<event>
 7    1  0.1139627E-011  0.5930196E+02  0.7816164E-02  0.1266605E+00
        -11   -1    0    0    0    0  0.00000000000E+00  0.00000000000E+00  0.45593999997E+02  0.45594000000E+02  0.51100000000E-03 0. -1.
         11   -1    0    0    0    0 -0.00000000000E+00 -0.00000000000E+00 -0.45593999997E+02  0.45594000000E+02  0.51100000000E-03 0.  1.
    9900012    2    1    2    0    0  0.29804736973E+02 -0.16221504989E+01  0.11214526031E+02  0.59301963677E+02  0.50000035836E+02 0.  0.
        -12    1    1    2    0    0 -0.29804736973E+02  0.16221504989E+01 -0.11214526031E+02  0.31886036323E+02  0.00000000000E+00 0.  1.
         11    1    3    3    0    0  0.88237122934E+01  0.23082839193E+02  0.10215081182E+02  0.26739918617E+02  0.51100000000E-03 0. -1.
        -11    1    3    3    0    0  0.60583942785E+01 -0.80640471817E+01  0.15427302864E+01  0.10203578548E+02  0.51100000000E-03 0.  1.
         12    1    3    3    0    0  0.14922630401E+02 -0.16640942510E+02 -0.54328543771E+00  0.22358466512E+02  0.00000000000E+00 0. -1.
</event>
<event>
 7    1  0.1139627E-011  0.5930191E+02  0.7816164E-02  0.1266605E+00
        -11   -1    0    0    0    0  0.00000000000E+00  0.00000000000E+00  0.45593999997E+02  0.45594000000E+02  0.51100000000E-03 0.  1.
         11   -1    0    0    0    0 -0.00000000000E+00 -0.00000000000E+00 -0.45593999997E+02  0.45594000000E+02  0.51100000000E-03 0. -1.
    9900012    2    1    2    0    0  0.22510792033E+02  0.11279482498E+01 -0.22554705946E+02  0.59301909216E+02  0.49999936511E+02 0.  0.
        -12    1    1    2    0    0 -0.22510792033E+02 -0.11279482498E+01  0.22554705946E+02  0.31886090784E+02  0.00000000000E+00 0.  1.
         11    1    3    3    0    0  0.27332266754E+02 -0.41259505371E+01  0.36083235536E+01  0.27876446561E+02  0.51100000000E-03 0. -1.
        -11    1    3    3    0    0 -0.49138684495E+01  0.72284192543E+01 -0.48011447486E+01  0.99723186478E+01  0.51100000000E-03 0.  1.
         12    1    3    3    0    0  0.92393728799E-01 -0.19745204674E+01 -0.21361884751E+02  0.21453144007E+02  0.00000000000E+00 0. -1.
</event>
<event>
 7    1  0.1139627E-011  0.5930194E+02  0.7816164E-02  0.1266605E+00
        -11   -1    0    0    0    0  0.00000000000E+00  0.00000000000E+00  0.45593999997E+02  0.45594000000E+02  0.51100000000E-03 0. -1.
         11   -1    0    0    0    0 -0.00000000000E+00 -0.00000000000E+00 -0.45593999997E+02  0.45594000000E+02  0.51100000000E-03 0.  1.
    9900012    2    1    2    0    0 -0.14903085262E+02  0.26425683846E+02  0.98133564458E+01  0.59301942204E+02  0.49999996673E+02 0.  0.
        -12    1    1    2    0    0  0.14903085262E+02 -0.26425683846E+02 -0.98133564458E+01  0.31886057796E+02  0.00000000000E+00 0.  1.
         11    1    3    3    0    0  0.11687925842E+01  0.14540828961E+02  0.70755102425E+01  0.16213100519E+02  0.51100000000E-03 0. -1.
        -11    1    3    3    0    0 -0.24819458624E+02 -0.24412841185E+01 -0.34958343495E+01  0.25183054871E+02  0.51100000000E-03 0.  1.
        -12    1    3    3    0    0  0.87475807777E+01  0.14326139003E+02  0.62336805528E+01  0.17905786814E+02  0.00000000000E+00 0.  1.
</event>
<event>
 7    1  0.1139627E-011  0.5930195E+02  0.7816164E-02  0.1266605E+00
        -11   -1    0    0    0    0  0.00000000000E+00  0.00000000000E+00  0.45593999997E+02  0.45594000000E+02  0.51100000000E-03 0.  1.
         11   -1    0    0    0    0 -0.00000000000E+00 -0.00000000000E+00 -0.45593999997E+02  0.45594000000E+02  0.51100000000E-03 0. -1.
    9900012    2    1    2    0    0 -0.17768069032E+02  0.35783475232E+01 -0.26233787398E+02  0.59301945848E+02  0.50000003320E+02 0.  0.
        -12    1    1    2    0    0  0.17768069032E+02 -0.35783475232E+01  0.26233787398E+02  0.31886054152E+02  0.00000000000E+00 0.  1.
         11    1    3    3    0    0  0.35958870073E+01  0.12708513653E+02 -0.16212334120E+02  0.20911157321E+02  0.51100000000E-03 0. -1.
        -11    1    3    3    0    0 -0.24746815063E+02 -0.14833579319E+02 -0.12320292341E+02  0.31372432721E+02  0.51100000000E-03 0.  1.
        -12    1    3    3    0    0  0.33828590234E+01  0.57034131897E+01  0.22988390633E+01  0.70183558063E+01  0.00000000000E+00 0.  1.
</event>
<event>
 7    1  0.1139627E-011  0.5930198E+02  0.7816164E-02  0.1266605E+00
        -11   -1    0    0    0    0  0.00000000000E+00  0.00000000000E+00  0.45593999997E+02  0.45594000000E+02  0.51100000000E-03 0.  1.
         11   -1    0    0    0    0 -0.00000000000E+00 -0.00000000000E+00 -0.45593999997E+02  0.45594000000E+02  0.51100000000E-03 0. -1.
    9900012    2    1    2    0    0  0.14102792607E+02 -0.23055579322E+02 -0.16919501166E+02  0.59301983991E+02  0.50000072884E+02 0.  0.
        -12    1    1    2    0    0 -0.14102792607E+02  0.23055579322E+02  0.16919501166E+02  0.31886016009E+02  0.00000000000E+00 0.  1.
         11    1    3    3    0    0  0.26428608420E+01  0.57590821781E+01 -0.26216738430E+01  0.68574714702E+01  0.51100000000E-03 0. -1.
        -11    1    3    3    0    0  0.68580008755E+01 -0.33484570826E+02 -0.23257647867E+02  0.41342071114E+02  0.51100000000E-03 0.  1.
        -12    1    3    3    0    0  0.46019308900E+01  0.46699093267E+01  0.89598205432E+01  0.11102441407E+02  0.00000000000E+00 0.  1.
</event>
<event>
 7    1  0.1139627E-011  0.5930194E+02  0.7816164E-02  0.1266605E+00
        -11   -1    0    0    0    0  0.00000000000E+00  0.00000000000E+00  0.45593999997E+02  0.45594000000E+02  0.51100000000E-03 0. -1.
         11   -1    0    0    0    0 -0.00000000000E+00 -0.00000000000E+00 -0.45593999997E+02  0.45594000000E+02  0.51100000000E-03 0.  1.
    9900012    2    1    2    0    0 -0.24743452716E+02 -0.18294598950E+02  0.83540248797E+01  0.59301944510E+02  0.50000000879E+02 0.  0.
        -12    1    1    2    0    0  0.24743452716E+02  0.18294598950E+02 -0.83540248797E+01  0.31886055490E+02  0.00000000000E+00 0.  1.
         11    1    3    3    0    0 -0.94798326933E+01  0.13548706030E+02 -0.21457737450E+01  0.16674501738E+02  0.51100000000E-03 0. -1.
        -11    1    3    3    0    0 -0.61136874464E+01 -0.21680862195E+02  0.16267567285E+02  0.27786160321E+02  0.51100000000E-03 0.  1.
         12    1    3    3    0    0 -0.91499325761E+01 -0.10162442784E+02 -0.57677686601E+01  0.14841282452E+02  0.00000000000E+00 0. -1.
</event>
<event>
 7    1  0.1139627E-011  0.5930185E+02  0.7816164E-02  0.1266605E+00
        -11   -1    0    0    0    0  0.00000000000E+00  0.00000000000E+00  0.45593999997E+02  0.45594000000E+02  0.51100000000E-03 0. -1.
         11   -1    0    0    0    0 -0.00000000000E+00 -0.00000000000E+00 -0.45593999997E+02  0.45594000000E+02  0.51100000000E-03 0.  1.
    9900012    2    1    2    0    0 -0.26670881941E+02  0.95719267538E+01  0.14620834528E+02  0.59301850537E+02  0.49999829496E+02 0.  0.
        -12    1    1    2    0    0  0.26670881941E+02 -0.95719267538E+01 -0.14620834528E+02  0.31886149463E+02  0.00000000000E+00 0.  1.
         11    1    3    3    0    0 -0.95434584296E+01 -0.10415372026E+01  0.11452738625E+02  0.14944150053E+02  0.51100000000E-03 0. -1.
        -11    1    3    3    0    0 -0.10611928322E+02  0.44455647118E+00 -0.17470146847E+02  0.20445456324E+02  0.51100000000E-03 0.  1.
         12    1    3    3    0    0 -0.65154951888E+01  0.10168907485E+02  0.20638242749E+02  0.23912244160E+02  0.00000000000E+00 0. -1.
</event>
<event>
 7    1  0.1139627E-011  0.5930210E+02  0.7816164E-02  0.1266604E+00
        -11   -1    0    0    0    0  0.00000000000E+00  0.00000000000E+00  0.45593999997E+02  0.45594000000E+02  0.51100000000E-03 0.  1.
         11   -1    0    0    0    0 -0.00000000000E+00 -0.00000000000E+00 -0.45593999997E+02  0.45594000000E+02  0.51100000000E-03 0. -1.
    9900012    2    1    2    0    0  0.20969592330E+02  0.23884551534E+02  0.25524526954E+01  0.59302099993E+02  0.50000284443E+02 0.  0.
        -12    1    1    2    0    0 -0.20969592330E+02 -0.23884551534E+02 -0.25524526954E+01  0.31885900007E+02  0.00000000000E+00 0.  1.
         11    1    3    3    0    0  0.19943415687E+02 -0.41878822731E+01 -0.11804910756E+02  0.23550671018E+02  0.51100000000E-03 0. -1.
        -11    1    3    3    0    0  0.51528528008E+01  0.37991895169E+01  0.81420297678E+01  0.10357527793E+02  0.51100000000E-03 0.  1.
         12    1    3    3    0    0 -0.41266761575E+01  0.24273244290E+02  0.62153336837E+01  0.25393901183E+02  0.00000000000E+00 0. -1.
</event>
<event>
 7    1  0.1139627E-011  0.5930192E+02  0.7816164E-02  0.1266605E+00
        -11   -1    0    0    0    0  0.00000000000E+00  0.00000000000E+00  0.45593999997E+02  0.45594000000E+02  0.51100000000E-03 0.  1.
         11   -1    0    0    0    0 -0.00000000000E+00 -0.00000000000E+00 -0.45593999997E+02  0.45594000000E+02  0.51100000000E-03 0. -1.
    9900012    2    1    2    0    0  0.42132853690E+00 -0.31854380123E+02 -0.13576540153E+01  0.59301917218E+02  0.49999951106E+02 0.  0.
        -12    1    1    2    0    0 -0.42132853690E+00  0.31854380123E+02  0.13576540153E+01  0.31886082782E+02  0.00000000000E+00 0.  1.
         11    1    3    3    0    0 -0.34954254091E+01 -0.16581353349E+01 -0.16325784982E+02  0.16777922014E+02  0.51100000000E-03 0. -1.
        -11    1    3    3    0    0  0.88550858772E+01 -0.31845938658E+02  0.83300900491E+01  0.34087633467E+02  0.51100000000E-03 0.  1.
        -12    1    3    3    0    0 -0.49383319312E+01  0.16496938700E+01  0.66380409176E+01  0.84363617366E+01  0.00000000000E+00 0.  1.
</event>
<event>
 7    1  0.1139627E-011  0.5930194E+02  0.7816164E-02  0.1266605E+00
        -11   -1    0    0    0    0  0.00000000000E+00  0.00000000000E+00  0.45593999997E+02  0.45594000000E+02  0.51100000000E-03 0.  1.
         11   -1    0    0    0    0 -0.00000000000E+00 -0.00000000000E+00 -0.45593999997E+02  0.45594000000E+02  0.51100000000E-03 0. -1.
    9900012    2    1    2    0    0 -0.10151690292E+02 -0.18614219601E+02 -0.23815430510E+02  0.59301941643E+02  0.49999995651E+02 0.  0.
        -12    1    1    2    0    0  0.10151690292E+02  0.18614219601E+02  0.23815430510E+02  0.31886058357E+02  0.00000000000E+00 0.  1.
         11    1    3    3    0    0  0.61595398286E+01  0.11195940665E+02 -0.78051263213E+01  0.14973610634E+02  0.51100000000E-03 0. -1.
        -11    1    3    3    0    0 -0.26395329935E+01 -0.16126655204E+02  0.36542624603E+01  0.16744843292E+02  0.51100000000E-03 0.  1.
         12    1    3    3    0    0 -0.13671697127E+02 -0.13683505062E+02 -0.19664566649E+02  0.27583487717E+02  0.00000000000E+00 0. -1.
</event>
<event>
 7    1  0.1139627E-011  0.5930191E+02  0.7816164E-02  0.1266605E+00
        -11   -1    0    0    0    0  0.00000000000E+00  0.00000000000E+00  0.45593999997E+02  0.45594000000E+02  0.51100000000E-03 0. -1.
         11   -1    0    0    0    0 -0.00000000000E+00 -0.00000000000E+00 -0.45593999997E+02  0.45594000000E+02  0.51100000000E-03 0.  1.
    9900012    2    1    2    0    0  0.69832470141E+01 -0.29770675724E+02 -0.90367936708E+01  0.59301913508E+02  0.49999944339E+02 0.  0.
        -12    1    1    2    0    0 -0.69832470141E+01  0.29770675724E+02  0.90367936708E+01  0.31886086492E+02  0.00000000000E+00 0.  1.
         11    1    3    3    0    0 -0.44603554164E+01 -0.22597059457E+02  0.68370471393E+01  0.24026383007E+02  0.51100000000E-03 0. -1.
        -11    1    3    3    0    0  0.14461890299E+02  0.64812219888E+01 -0.14037888749E+02  0.21171084768E+02  0.51100000000E-03 0.  1.
         12    1    3    3    0    0 -0.30182878679E+01 -0.13654838256E+02 -0.18359520609E+01  0.14104445733E+02  0.00000000000E+00 0. -1.
</event>
<event>
 7    1  0.1139627E-011  0.5930194E+02  0.7816164E-02  0.1266605E+00
        -11   -1    0    0    0    0  0.00000000000E+00  0.00000000000E+00  0.45593999997E+02  0.45594000000E+02  0.51100000000E-03 0. -1.
         11   -1    0    0    0    0 -0.00000000000E+00 -0.00000000000E+00 -0.45593999997E+02  0.45594000000E+02  0.51100000000E-03 0.  1.
    9900012    2    1    2    0    0  0.11324048947E+02  0.28036485164E+02  0.10121379447E+02  0.59301938676E+02  0.49999990239E+02 0.  0.
        -12    1    1    2    0    0 -0.11324048947E+02 -0.28036485164E+02 -0.10121379447E+02  0.31886061324E+02  0.00000000000E+00 0.  1.
         11    1    3    3    0    0 -0.11409152318E+02 -0.26588679946E+01  0.51272409297E+01  0.12787765069E+02  0.51100000000E-03 0. -1.
        -11    1    3    3    0    0  0.25155161400E+02  0.13300408529E+02  0.53221182004E+01  0.28948367043E+02  0.51100000000E-03 0.  1.
         12    1    3    3    0    0 -0.24219601343E+01  0.17394944630E+02 -0.32797968348E+00  0.17565806564E+02  0.00000000000E+00 0. -1.
</event>
<event>
 7    1  0.1139627E-011  0.5930196E+02  0.7816164E-02  0.1266605E+00
        -11   -1    0    0    0    0  0.00000000000E+00  0.00000000000E+00  0.45593999997E+02  0.45594000000E+02  0.51100000000E-03 0. -1.
         11   -1    0    0    0    0 -0.00000000000E+00 -0.00000000000E+00 -0.45593999997E+02  0.45594000000E+02  0.51100000000E-03 0.  1.
    9900012    2    1    2    0    0 -0.52575093362E+01  0.28930070714E+02 -0.12334056849E+02  0.59301963020E+02  0.50000034638E+02 0.  0.
        -12    1    1    2    0    0  0.52575093362E+01 -0.28930070714E+02  0.12334056849E+02  0.31886036980E+02  0.00000000000E+00 0.  1.
         11    1    3    3    0    0  0.15575137168E+02  0.94261532015E+01 -0.10823758699E+02  0.21179967295E+02  0.51100000000E-03 0. -1.
        -11    1    3    3    0    0 -0.23511484843E+02  0.16588776069E+02 -0.85736724282E+01  0.30024744298E+02  0.51100000000E-03 0.  1.
         12    1    3    3    0    0  0.26788383391E+01  0.29151414435E+01  0.70633742780E+01  0.80972514271E+01  0.00000000000E+00 0. -1.
</event>
<event>
 7    1  0.1139627E-011  0.5930194E+02  0.7816164E-02  0.1266605E+00
        -11   -1    0    0    0    0  0.00000000000E+00  0.00000000000E+00  0.45593999997E+02  0.45594000000E+02  0.51100000000E-03 0.  1.
         11   -1    0    0    0    0 -0.00000000000E+00 -0.00000000000E+00 -0.45593999997E+02  0.45594000000E+02  0.51100000000E-03 0. -1.
    9900012    2    1    2    0    0  0.96416585279E+00  0.31421991117E+02  0.53338426132E+01  0.59301936923E+02  0.49999987042E+02 0.  0.
        -12    1    1    2    0    0 -0.96416585279E+00 -0.31421991117E+02 -0.53338426132E+01  0.31886063077E+02  0.00000000000E+00 0.  1.
         11    1    3    3    0    0 -0.43706979830E+01  0.91218927665E+01 -0.10981929529E+02  0.14930328360E+02  0.51100000000E-03 0. -1.
        -11    1    3    3    0    0  0.77206664649E+01  0.28780836194E+02  0.20617276021E+02  0.36235580490E+02  0.51100000000E-03 0.  1.
        -12    1    3    3    0    0 -0.23858026291E+01 -0.64807378433E+01 -0.43015038788E+01  0.81360280726E+01  0.00000000000E+00 0.  1.
</event>
<event>
 7    1  0.1139627E-011  0.5930191E+02  0.7816164E-02  0.1266605E+00
        -11   -1    0    0    0    0  0.00000000000E+00  0.00000000000E+00  0.45593999997E+02  0.45594000000E+02  0.51100000000E-03 0.  1.
         11   -1    0    0    0    0 -0.00000000000E+00 -0.00000000000E+00 -0.45593999997E+02  0.45594000000E+02  0.51100000000E-03 0. -1.
    9900012    2    1    2    0    0  0.24897735434E+02  0.58537585079E+01 -0.19040987083E+02  0.59301907302E+02  0.49999933022E+02 0.  0.
        -12    1    1    2    0    0 -0.24897735434E+02 -0.58537585079E+01  0.19040987083E+02  0.31886092698E+02  0.00000000000E+00 0.  1.
         11    1    3    3    0    0  0.15416225350E+02  0.19753482916E+02  0.31091254174E+01  0.25249292119E+02  0.51100000000E-03 0. -1.
        -11    1    3    3    0    0  0.19858060011E+01 -0.10640367544E+02 -0.41569445710E+00  0.10832065782E+02  0.51100000000E-03 0.  1.
         12    1    3    3    0    0  0.74957040835E+01 -0.32593568642E+01 -0.21734418043E+02  0.23220549402E+02  0.00000000000E+00 0. -1.
</event>
<event>
 7    1  0.1139627E-011  0.5930195E+02  0.7816164E-02  0.1266605E+00
        -11   -1    0    0    0    0  0.00000000000E+00  0.00000000000E+00  0.45593999997E+02  0.45594000000E+02  0.51100000000E-03 0.  1.
         11   -1    0    0    0    0 -0.00000000000E+00 -0.00000000000E+00 -0.45593999997E+02  0.45594000000E+02  0.51100000000E-03 0. -1.
    9900012    2    1    2    0    0 -0.30096015152E+02 -0.10090428646E+02  0.30220862842E+01  0.59301954717E+02  0.50000019495E+02 0.  0.
        -12    1    1    2    0    0  0.30096015152E+02  0.10090428646E+02 -0.30220862842E+01  0.31886045283E+02  0.00000000000E+00 0.  1.
         11    1    3    3    0    0 -0.19006295854E+02  0.11985249629E+02 -0.62772726671E+01  0.23330015927E+02  0.51100000000E-03 0. -1.
        -11    1    3    3    0    0 -0.18591480832E+02 -0.16427193829E+02  0.95351361406E+01  0.26578462674E+02  0.51100000000E-03 0.  1.
        -12    1    3    3    0    0  0.75017615350E+01 -0.56484844460E+01 -0.23577718930E+00  0.93934761163E+01  0.00000000000E+00 0.  1.
</event>
<event>
 7    1  0.1139627E-011  0.5930193E+02  0.7816164E-02  0.1266605E+00
        -11   -1    0    0    0    0  0.00000000000E+00  0.00000000000E+00  0.45593999997E+02  0.45594000000E+02  0.51100000000E-03 0.  1.
         11   -1    0    0    0    0 -0.00000000000E+00 -0.00000000000E+00 -0.45593999997E+02  0.45594000000E+02  0.51100000000E-03 0. -1.
    9900012    2    1    2    0    0  0.16411924049E+02  0.26937516476E+02 -0.46626596661E+01  0.59301930313E+02  0.49999974988E+02 0.  0.
        -12    1    1    2    0    0 -0.16411924049E+02 -0.26937516476E+02  0.46626596661E+01  0.31886069687E+02  0.00000000000E+00 0.  1.
         11    1    3    3    0    0  0.29797014324E+00  0.25358377164E+02 -0.12581698775E+02  0.28309631275E+02  0.51100000000E-03 0. -1.
        -11    1    3    3    0    0  0.15048561805E+02  0.11248395249E+02  0.96348677873E+01  0.21114362070E+02  0.51100000000E-03 0.  1.
        -12    1    3    3    0    0  0.10653921012E+01 -0.96692559365E+01 -0.17158286785E+01  0.98779369683E+01  0.00000000000E+00 0.  1.
</event>
<event>
 7    1  0.1139627E-011  0.5930194E+02  0.7816164E-02  0.1266605E+00
        -11   -1    0    0    0    0  0.00000000000E+00  0.00000000000E+00  0.45593999997E+02  0.45594000000E+02  0.51100000000E-03 0.  1.
         11   -1    0    0    0    0 -0.00000000000E+00 -0.00000000000E+00 -0.45593999997E+02  0.45594000000E+02  0.51100000000E-03 0. -1.
    9900012    2    1    2    0    0  0.51563860208E+01  0.23885721292E+02 -0.20484257650E+02  0.59301940195E+02  0.49999993010E+02 0.  0.
        -12    1    1    2    0    0 -0.51563860208E+01 -0.23885721292E+02  0.20484257650E+02  0.31886059805E+02  0.00000000000E+00 0.  1.
         11    1    3    3    0    0 -0.14003547338E+02  0.26654756292E+00 -0.36502391190E+01  0.14473929374E+02  0.51100000000E-03 0. -1.
        -11    1    3    3    0    0  0.16365089055E+02  0.23176667415E+02 -0.63028870852E+00  0.28379064755E+02  0.51100000000E-03 0.  1.
        -12    1    3    3    0    0  0.27948443035E+01  0.44250631377E+00 -0.16203729822E+02  0.16448946066E+02  0.00000000000E+00 0.  1.
</event>
<event>
 7    1  0.1139627E-011  0.5930194E+02  0.7816164E-02  0.1266605E+00
        -11   -1    0    0    0    0  0.00000000000E+00  0.00000000000E+00  0.45593999997E+02  0.45594000000E+02  0.51100000000E-03 0. -1.
         11   -1    0    0    0    0 -0.00000000000E+00 -0.00000000000E+00 -0.45593999997E+02  0.45594000000E+02  0.51100000000E-03 0.  1.
    9900012    2    1    2    0    0 -0.13167648084E+02 -0.28777322170E+02 -0.38986604810E+01  0.59301940650E+02  0.49999993841E+02 0.  0.
        -12    1    1    2    0    0  0.13167648084E+02  0.28777322170E+02  0.38986604810E+01  0.31886059350E+02  0.00000000000E+00 0.  1.
         11    1    3    3    0    0  0.54333694384E+01  0.34735691202E+01 -0.83561943740E+01  0.10555243747E+02  0.51100000000E-03 0. -1.
        -11    1    3    3    0    0 -0.19253999700E+00 -0.29876599087E+02  0.11944463797E+01  0.29901086052E+02  0.51100000000E-03 0.  1.
        -12    1    3    3    0    0 -0.18408477525E+02 -0.23742922028E+01  0.32630875134E+01  0.18845610852E+02  0.00000000000E+00 0.  1.
</event>
<event>
 7    1  0.1139627E-011  0.5930192E+02  0.7816164E-02  0.1266605E+00
        -11   -1    0    0    0    0  0.00000000000E+00  0.00000000000E+00  0.45593999997E+02  0.45594000000E+02  0.51100000000E-03 0. -1.
         11   -1    0    0    0    0 -0.00000000000E+00 -0.00000000000E+00 -0.45593999997E+02  0.45594000000E+02  0.51100000000E-03 0.  1.
    9900012    2    1    2    0    0  0.19445222501E+02  0.21830339175E+02  0.12729560211E+02  0.59301920125E+02  0.49999956408E+02 0.  0.
        -12    1    1    2    0    0 -0.19445222501E+02 -0.21830339175E+02 -0.12729560211E+02  0.31886079875E+02  0.00000000000E+00 0.  1.
         11    1    3    3    0    0  0.26829432228E+02  0.38505580450E+01  0.52731047560E+00  0.27109468595E+02  0.51100000000E-03 0. -1.
        -11    1    3    3    0    0 -0.12420075739E+02  0.26958912882E+01  0.13452305938E+01  0.12780287822E+02  0.51100000000E-03 0.  1.
         12    1    3    3    0    0  0.50358660120E+01  0.15283889842E+02  0.10857019142E+02  0.19412163708E+02  0.00000000000E+00 0. -1.
</event>
<event>
 7    1  0.1139627E-011  0.5930199E+02  0.7816164E-02  0.1266605E+00
        -11   -1    0    0    0    0  0.00000000000E+00  0.00000000000E+00  0.45593999997E+02  0.45594000000E+02  0.51100000000E-03 0.  1.
         11   -1    0    0    0    0 -0.00000000000E+00 -0.00000000000E+00 -0.45593999997E+02  0.45594000000E+02  0.51100000000E-03 0. -1.
    9900012    2    1    2    0    0  0.29551665756E+02  0.79192758539E+01  0.89834099300E+01  0.59301991580E+02  0.50000086724E+02 0.  0.
        -12    1    1    2    0    0 -0.29551665756E+02 -0.79192758539E+01 -0.89834099300E+01  0.31886008420E+02  0.00000000000E+00 0.  1.
         11    1    3    3    0    0  0.24824773642E+02 -0.88361757208E+01 -0.11739723970E+02  0.28847331018E+02  0.51100000000E-03 0. -1.
        -11    1    3    3    0    0 -0.48979353336E+00  0.11222178935E+02  0.19839608760E+02  0.22798843693E+02  0.51100000000E-03 0.  1.
         12    1    3    3    0    0  0.52166856476E+01  0.55332726397E+01  0.88352513976E+00  0.76558168685E+01  0.00000000000E+00 0. -1.
</event>
<event>
 7    1  0.1139627E-011  0.5930193E+02  0.7816164E-02  0.1266605E+00
        -11   -1    0    0    0    0  0.00000000000E+00  0.00000000000E+00  0.45593999997E+02  0.45594000000E+02  0.51100000000E-03 0.  1.
         11   -1    0    0    0    0 -0.00000000000E+00 -0.00000000000E+00 -0.45593999997E+02  0.45594000000E+02  0.51100000000E-03 0. -1.
    9900012    2    1    2    0    0  0.59153023380E+01  0.19909184154E+02 -0.24194113158E+02  0.59301928951E+02  0.49999972504E+02 0.  0.
        -12    1    1    2    0    0 -0.59153023380E+01 -0.19909184154E+02  0.24194113158E+02  0.31886071049E+02  0.00000000000E+00 0.  1.
         11    1    3    3    0    0 -0.31561344649E+01 -0.11068936411E+00 -0.68753719229E+01  0.75659881202E+01  0.51100000000E-03 0. -1.
        -11    1    3    3    0    0  0.81298972726E+01  0.90132240095E+01  0.13998114955E+02  0.18527834716E+02  0.51100000000E-03 0.  1.
        -12    1    3    3    0    0  0.94153953023E+00  0.11006649509E+02 -0.31316856190E+02  0.33208106115E+02  0.00000000000E+00 0.  1.
</event>
<event>
 7    1  0.1139627E-011  0.5930190E+02  0.7816164E-02  0.1266605E+00
        -11   -1    0    0    0    0  0.00000000000E+00  0.00000000000E+00  0.45593999997E+02  0.45594000000E+02  0.51100000000E-03 0. -1.
         11   -1    0    0    0    0 -0.00000000000E+00 -0.00000000000E+00 -0.45593999997E+02  0.45594000000E+02  0.51100000000E-03 0.  1.
    9900012    2    1    2    0    0  0.27919348715E+00  0.14028909698E+02  0.28632762552E+02  0.59301900401E+02  0.49999920435E+02 0.  0.
        -12    1    1    2    0    0 -0.27919348715E+00 -0.14028909698E+02 -0.28632762552E+02  0.31886099599E+02  0.00000000000E+00 0.  1.
         11    1    3    3    0    0  0.87780916708E+01  0.10253836093E+02  0.27364806063E+02  0.30512762234E+02  0.51100000000E-03 0. -1.
        -11    1    3    3    0    0  0.86494668051E+01 -0.41215415295E+01  0.23960186978E+01  0.98762992286E+01  0.51100000000E-03 0.  1.
         12    1    3    3    0    0 -0.17148364989E+02  0.78966151339E+01 -0.11280622088E+01  0.18912838938E+02  0.00000000000E+00 0. -1.
</event>
<event>
 7    1  0.1139627E-011  0.5930188E+02  0.7816164E-02  0.1266605E+00
        -11   -1    0    0    0    0  0.00000000000E+00  0.00000000000E+00  0.45593999997E+02  0.45594000000E+02  0.51100000000E-03 0. -1.
         11   -1    0    0    0    0 -0.00000000000E+00 -0.00000000000E+00 -0.45593999997E+02  0.45594000000E+02  0.51100000000E-03 0.  1.
    9900012    2    1    2    0    0  0.15921890700E+02  0.22029436231E+02  0.16670986288E+02  0.59301883147E+02  0.49999888969E+02 0.  0.
        -12    1    1    2    0    0 -0.15921890700E+02 -0.22029436231E+02 -0.16670986288E+02  0.31886116853E+02  0.00000000000E+00 0.  1.
         11    1    3    3    0    0  0.19026506752E+02  0.76894707090E+01  0.13006405749E+02  0.24296141869E+02  0.51100000000E-03 0. -1.
        -11    1    3    3    0    0 -0.17295945043E+02  0.57596178417E+01  0.18861184448E+01  0.18327038922E+02  0.51100000000E-03 0.  1.
        -12    1    3    3    0    0  0.14191328991E+02  0.85803476802E+01  0.17784620944E+01  0.16678702356E+02  0.00000000000E+00 0.  1.
</event>
<event>
 7    1  0.1139627E-011  0.5930195E+02  0.7816164E-02  0.1266605E+00
        -11   -1    0    0    0    0  0.00000000000E+00  0.00000000000E+00  0.45593999997E+02  0.45594000000E+02  0.51100000000E-03 0.  1.
         11   -1    0    0    0    0 -0.00000000000E+00 -0.00000000000E+00 -0.45593999997E+02  0.45594000000E+02  0.51100000000E-03 0. -1.
    9900012    2    1    2    0    0  0.20189316250E+02 -0.24492252686E+02  0.30399735081E+01  0.59301947074E+02  0.50000005555E+02 0.  0.
        -12    1    1    2    0    0 -0.20189316250E+02  0.24492252686E+02 -0.30399735081E+01  0.31886052926E+02  0.00000000000E+00 0.  1.
         11    1    3    3    0    0  0.10350926737E+02 -0.30737420599E+02  0.67596814759E+01  0.33130409042E+02  0.51100000000E-03 0. -1.
        -11    1    3    3    0    0  0.14303563885E+02  0.58172754311E+01  0.51124373746E+01  0.16265597113E+02  0.51100000000E-03 0.  1.
         12    1    3    3    0    0 -0.44651743715E+01  0.42789248148E+00 -0.88321453423E+01  0.99059409190E+01  0.00000000000E+00 0. -1.
</event>
<event>
 7    1  0.1139627E-011  0.5930193E+02  0.7816164E-02  0.1266605E+00
        -11   -1    0    0    0    0  0.00000000000E+00  0.00000000000E+00  0.45593999997E+02  0.45594000000E+02  0.51100000000E-03 0.  1.
         11   -1    0    0    0    0 -0.00000000000E+00 -0.00000000000E+00 -0.45593999997E+02  0.45594000000E+02  0.51100000000E-03 0. -1.
    9900012    2    1    2    0    0 -0.10407186654E+02 -0.51668140287E+01 -0.29693705986E+02  0.59301926607E+02  0.49999968229E+02 0.  0.
        -12    1    1    2    0    0  0.10407186654E+02  0.51668140287E+01  0.29693705986E+02  0.31886073393E+02  0.00000000000E+00 0.  1.
         11    1    3    3    0    0 -0.16398694107E+02  0.74995751986E+01 -0.61154497582E+01  0.19040995840E+02  0.51100000000E-03 0. -1.
        -11    1    3    3    0    0  0.13867271585E+02 -0.11893018264E+02 -0.33947132313E+01  0.18581420366E+02  0.51100000000E-03 0.  1.
         12    1    3    3    0    0 -0.78757641322E+01 -0.77337096348E+00 -0.20183542996E+02  0.21679510400E+02  0.00000000000E+00 0. -1.
</event>
<event>
 7    1  0.1139627E-011  0.5930195E+02  0.7816164E-02  0.1266605E+00
        -11   -1    0    0    0    0  0.00000000000E+00  0.00000000000E+00  0.45593999997E+02  0.45594000000E+02  0.51100000000E-03 0. -1.
         11   -1    0    0    0    0 -0.00000000000E+00 -0.00000000000E+00 -0.45593999997E+02  0.45594000000E+02  0.51100000000E-03 0.  1.
    9900012    2    1    2    0    0  0.27639876215E+02  0.10705180068E+02  0.11754010043E+02  0.59301946786E+02  0.50000005031E+02 0.  0.
        -12    1    1    2    0    0 -0.27639876215E+02 -0.10705180068E+02 -0.11754010043E+02  0.31886053214E+02  0.00000000000E+00 0.  1.
         11    1    3    3    0    0  0.21518295612E+02  0.23080647926E+02 -0.14724033709E+01  0.31589892793E+02  0.51100000000E-03 0. -1.
        -11    1    3    3    0    0  0.51183979609E+00 -0.80933831789E+01  0.17621558570E+02  0.19398045209E+02  0.51100000000E-03 0.  1.
        -12    1    3    3    0    0  0.56097408070E+01 -0.42820846789E+01 -0.43951451561E+01  0.83140087842E+01  0.00000000000E+00 0.  1.
</event>
<event>
 7    1  0.1402577E-011  0.5930194E+02  0.7816164E-02  0.1266605E+00
        -11   -1    0    0    0    0  0.00000000000E+00  0.00000000000E+00  0.45593999997E+02  0.45594000000E+02  0.51100000000E-03 0.  1.
         11   -1    0    0    0    0 -0.00000000000E+00 -0.00000000000E+00 -0.45593999997E+02  0.45594000000E+02  0.51100000000E-03 0. -1.
    9900012    2    1    2    0    0 -0.26636111140E+02 -0.17510674994E+02 -0.78417777988E+00  0.59301935799E+02  0.49999984993E+02 0.  0.
        -12    1    1    2    0    0  0.26636111140E+02  0.17510674994E+02  0.78417777988E+00  0.31886064201E+02  0.00000000000E+00 0.  1.
         11    1    3    3    0    0 -0.44378291233E+01 -0.18692876327E+02 -0.11386003197E+02  0.22332913419E+02  0.51100000000E-03 0. -1.
        -11    1    3    3    0    0  0.19588439763E+00  0.85526555866E+00  0.14250261010E+02  0.14277247248E+02  0.51100000000E-03 0.  1.
         12    1    3    3    0    0 -0.22394166414E+02  0.32693577467E+00 -0.36484355931E+01  0.22691775133E+02  0.00000000000E+00 0. -1.
</event>
<event>
 7    1  0.1139627E-011  0.5930195E+02  0.7816164E-02  0.1266605E+00
        -11   -1    0    0    0    0  0.00000000000E+00  0.00000000000E+00  0.45593999997E+02  0.45594000000E+02  0.51100000000E-03 0.  1.
         11   -1    0    0    0    0 -0.00000000000E+00 -0.00000000000E+00 -0.45593999997E+02  0.45594000000E+02  0.51100000000E-03 0. -1.
    9900012    2    1    2    0    0 -0.79585826929E+01  0.97699442960E+01 -0.29290433401E+02  0.59301947581E+02  0.50000006480E+02 0.  0.
        -12    1    1    2    0    0  0.79585826929E+01 -0.97699442960E+01  0.29290433401E+02  0.31886052419E+02  0.00000000000E+00 0.  1.
         11    1    3    3    0    0 -0.11300434148E+02 -0.12372601478E+02 -0.70074364128E+00  0.16771169345E+02  0.51100000000E-03 0. -1.
        -11    1    3    3    0    0  0.24068671389E+01  0.79317463466E+01  0.22266610829E+01  0.85827518530E+01  0.51100000000E-03 0.  1.
         12    1    3    3    0    0  0.93498431632E+00  0.14210799427E+02 -0.30816350843E+02  0.33948026383E+02  0.00000000000E+00 0. -1.
</event>
<event>
 7    1  0.1139627E-011  0.5930178E+02  0.7816164E-02  0.1266605E+00
        -11   -1    0    0    0    0  0.00000000000E+00  0.00000000000E+00  0.45593999997E+02  0.45594000000E+02  0.51100000000E-03 0. -1.
         11   -1    0    0    0    0 -0.00000000000E+00 -0.00000000000E+00 -0.45593999997E+02  0.45594000000E+02  0.51100000000E-03 0.  1.
    9900012    2    1    2    0    0 -0.16248110282E+02  0.24267661397E+02  0.12798847271E+02  0.59301780894E+02  0.49999702483E+02 0.  0.
        -12    1    1    2    0    0  0.16248110282E+02 -0.24267661397E+02 -0.12798847271E+02  0.31886219106E+02  0.00000000000E+00 0.  1.
         11    1    3    3    0    0 -0.15811957922E+02 -0.80463312809E+01  0.16330981661E+02  0.24113531942E+02  0.51100000000E-03 0. -1.
        -11    1    3    3    0    0 -0.26557801827E+01  0.68805373397E+01 -0.60431737082E+01  0.95349311057E+01  0.51100000000E-03 0.  1.
         12    1    3    3    0    0  0.22196278234E+01  0.25433455338E+02  0.25110393175E+01  0.25653317847E+02  0.00000000000E+00 0. -1.
</event>
<event>
 7    1  0.1139627E-011  0.5930197E+02  0.7816164E-02  0.1266605E+00
        -11   -1    0    0    0    0  0.00000000000E+00  0.00000000000E+00  0.45593999997E+02  0.45594000000E+02  0.51100000000E-03 0.  1.
         11   -1    0    0    0    0 -0.00000000000E+00 -0.00000000000E+00 -0.45593999997E+02  0.45594000000E+02  0.51100000000E-03 0. -1.
    9900012    2    1    2    0    0  0.96220344035E+01  0.16080896908E+02 -0.25798069006E+02  0.59301966131E+02  0.50000040312E+02 0.  0.
        -12    1    1    2    0    0 -0.96220344035E+01 -0.16080896908E+02  0.25798069006E+02  0.31886033869E+02  0.00000000000E+00 0.  1.
         11    1    3    3    0    0  0.32129082338E+01  0.47922868594E+01 -0.10795319668E+02  0.12240413377E+02  0.51100000000E-03 0. -1.
        -11    1    3    3    0    0 -0.15957888809E+02  0.69492796896E+01  0.34479781593E+01  0.17743597637E+02  0.51100000000E-03 0.  1.
        -12    1    3    3    0    0  0.22367014979E+02  0.43393303592E+01 -0.18450727498E+02  0.29317955117E+02  0.00000000000E+00 0.  1.
</event>
<event>
 7    1  0.1139627E-011  0.5930195E+02  0.7816164E-02  0.1266605E+00
        -11   -1    0    0    0    0  0.00000000000E+00  0.00000000000E+00  0.45593999997E+02  0.45594000000E+02  0.51100000000E-03 0. -1.
         11   -1    0    0    0    0 -0.00000000000E+00 -0.00000000000E+00 -0.45593999997E+02  0.45594000000E+02  0.51100000000E-03 0.  1.
    9900012    2    1    2    0    0 -0.72195340195E+01 -0.25519182200E+01  0.30952972481E+02  0.59301945627E+02  0.50000002916E+02 0.  0.
        -12    1    1    2    0    0  0.72195340195E+01  0.25519182200E+01 -0.30952972481E+02  0.31886054373E+02  0.00000000000E+00 0.  1.
         11    1    3    3    0    0 -0.17857798887E+02  0.25838179674E+01 -0.15237319184E+01  0.18107977678E+02  0.51100000000E-03 0. -1.
        -11    1    3    3    0    0  0.40445680349E+01 -0.72466022161E+01  0.33210644650E+02  0.34231837412E+02  0.51100000000E-03 0.  1.
        -12    1    3    3    0    0  0.65936968326E+01  0.21108660287E+01 -0.73394025054E+00  0.69621305361E+01  0.00000000000E+00 0.  1.
</event>
<event>
 7    1  0.1139627E-011  0.5930194E+02  0.7816164E-02  0.1266605E+00
        -11   -1    0    0    0    0  0.00000000000E+00  0.00000000000E+00  0.45593999997E+02  0.45594000000E+02  0.51100000000E-03 0. -1.
         11   -1    0    0    0    0 -0.00000000000E+00 -0.00000000000E+00 -0.45593999997E+02  0.45594000000E+02  0.51100000000E-03 0.  1.
    9900012    2    1    2    0    0 -0.12927699631E+01  0.24142444151E+02  0.20789233861E+02  0.59301935515E+02  0.49999984475E+02 0.  0.
        -12    1    1    2    0    0  0.12927699631E+01 -0.24142444151E+02 -0.20789233861E+02  0.31886064485E+02  0.00000000000E+00 0.  1.
         11    1    3    3    0    0  0.11476305929E+02  0.91736672509E+01  0.11814158883E+02  0.18853013525E+02  0.51100000000E-03 0. -1.
        -11    1    3    3    0    0 -0.13302773637E+02 -0.77983591232E+01 -0.12799261262E+01  0.15473086395E+02  0.51100000000E-03 0.  1.
        -12    1    3    3    0    0  0.53369774453E+00  0.22767136024E+02  0.10255001105E+02  0.24975835595E+02  0.00000000000E+00 0.  1.
</event>
<event>
 7    1  0.1139627E-011  0.5930180E+02  0.7816164E-02  0.1266605E+00
        -11   -1    0    0    0    0  0.00000000000E+00  0.00000000000E+00  0.45593999997E+02  0.45594000000E+02  0.51100000000E-03 0. -1.
         11   -1    0    0    0    0 -0.00000000000E+00 -0.00000000000E+00 -0.45593999997E+02  0.45594000000E+02  0.51100000000E-03 0.  1.
    9900012    2    1    2    0    0  0.88430344953E+01 -0.15448245302E+02  0.26455290908E+02  0.59301796730E+02  0.49999731363E+02 0.  0.
        -12    1    1    2    0    0 -0.88430344953E+01  0.15448245302E+02 -0.26455290908E+02  0.31886203270E+02  0.00000000000E+00 0.  1.
         11    1    3    3    0    0  0.18799807355E+00 -0.20868289024E+02  0.35887652064E+02  0.41514387880E+02  0.51100000000E-03 0. -1.
        -11    1    3    3    0    0  0.27618070868E+01 -0.12754428566E+01 -0.82459852109E+01  0.87892323455E+01  0.51100000000E-03 0.  1.
         12    1    3    3    0    0  0.58932293350E+01  0.66954865787E+01 -0.11863759459E+01  0.89981765044E+01  0.00000000000E+00 0. -1.
</event>
<event>
 7    1  0.1139627E-011  0.5930195E+02  0.7816164E-02  0.1266605E+00
        -11   -1    0    0    0    0  0.00000000000E+00  0.00000000000E+00  0.45593999997E+02  0.45594000000E+02  0.51100000000E-03 0.  1.
         11   -1    0    0    0    0 -0.00000000000E+00 -0.00000000000E+00 -0.45593999997E+02  0.45594000000E+02  0.51100000000E-03 0. -1.
    9900012    2    1    2    0    0  0.27097353515E+02  0.14469122391E+02 -0.85497600702E+01  0.59301945563E+02  0.50000002800E+02 0.  0.
        -12    1    1    2    0    0 -0.27097353515E+02 -0.14469122391E+02  0.85497600702E+01  0.31886054437E+02  0.00000000000E+00 0.  1.
         11    1    3    3    0    0  0.46934602597E+01 -0.54719622114E+01 -0.17128668972E+01  0.74097808956E+01  0.51100000000E-03 0. -1.
        -11    1    3    3    0    0  0.14174114324E+02  0.15584822765E+02  0.16504645735E+02  0.26761830068E+02  0.51100000000E-03 0.  1.
        -12    1    3    3    0    0  0.82297789320E+01  0.43562618371E+01 -0.23341538908E+02  0.25130334599E+02  0.00000000000E+00 0.  1.
</event>
<event>
 7    1  0.1139627E-011  0.5930195E+02  0.7816164E-02  0.1266605E+00
        -11   -1    0    0    0    0  0.00000000000E+00  0.00000000000E+00  0.45593999997E+02  0.45594000000E+02  0.51100000000E-03 0.  1.
         11   -1    0    0    0    0 -0.00000000000E+00 -0.00000000000E+00 -0.45593999997E+02  0.45594000000E+02  0.51100000000E-03 0. -1.
    9900012    2    1    2    0    0 -0.23256599296E+02  0.17672575149E+02 -0.12787915993E+02  0.59301951034E+02  0.50000012778E+02 0.  0.
        -12    1    1    2    0    0  0.23256599296E+02 -0.17672575149E+02  0.12787915993E+02  0.31886048966E+02  0.00000000000E+00 0.  1.
         11    1    3    3    0    0  0.18807807532E+01 -0.69924838346E+01 -0.14070310042E+01  0.73764424302E+01  0.51100000000E-03 0. -1.
        -11    1    3    3    0    0 -0.10624530476E+02  0.29737413275E+02  0.18637611920E+01  0.31633336880E+02  0.51100000000E-03 0.  1.
        -12    1    3    3    0    0 -0.14512849574E+02 -0.50723542916E+01 -0.13244646181E+02  0.20292171724E+02  0.00000000000E+00 0.  1.
</event>
<event>
 7    1  0.1139627E-011  0.5930195E+02  0.7816164E-02  0.1266605E+00
        -11   -1    0    0    0    0  0.00000000000E+00  0.00000000000E+00  0.45593999997E+02  0.45594000000E+02  0.51100000000E-03 0.  1.
         11   -1    0    0    0    0 -0.00000000000E+00 -0.00000000000E+00 -0.45593999997E+02  0.45594000000E+02  0.51100000000E-03 0. -1.
    9900012    2    1    2    0    0 -0.51329905657E+01  0.44286606345E+00 -0.31467069251E+02  0.59301950233E+02  0.50000011317E+02 0.  0.
        -12    1    1    2    0    0  0.51329905657E+01 -0.44286606345E+00  0.31467069251E+02  0.31886049767E+02  0.00000000000E+00 0.  1.
         11    1    3    3    0    0  0.18116708447E+02  0.61449237893E+01 -0.25825874421E+02  0.32139555119E+02  0.51100000000E-03 0. -1.
        -11    1    3    3    0    0 -0.13995772049E+02 -0.74330929371E+01  0.61448378397E+00  0.15859069848E+02  0.51100000000E-03 0.  1.
         12    1    3    3    0    0 -0.92539269644E+01  0.17310352112E+01 -0.62556786134E+01  0.11303325266E+02  0.00000000000E+00 0. -1.
</event>
<event>
 7    1  0.1139627E-011  0.5930195E+02  0.7816164E-02  0.1266605E+00
        -11   -1    0    0    0    0  0.00000000000E+00  0.00000000000E+00  0.45593999997E+02  0.45594000000E+02  0.51100000000E-03 0.  1.
         11   -1    0    0    0    0 -0.00000000000E+00 -0.00000000000E+00 -0.45593999997E+02  0.45594000000E+02  0.51100000000E-03 0. -1.
    9900012    2    1    2    0    0 -0.10318140555E+02  0.29776649452E+02  0.48587120508E+01  0.59301953524E+02  0.50000017318E+02 0.  0.
        -12    1    1    2    0    0  0.10318140555E+02 -0.29776649452E+02 -0.48587120508E+01  0.31886046476E+02  0.00000000000E+00 0.  1.
         11    1    3    3    0    0  0.24055964498E+01  0.14449282165E+02 -0.18882329626E+02  0.23897929235E+02  0.51100000000E-03 0. -1.
        -11    1    3    3    0    0 -0.15284982580E+02  0.11969178938E+02  0.11753918351E+02  0.22694636675E+02  0.51100000000E-03 0.  1.
         12    1    3    3    0    0  0.25612455754E+01  0.33581883493E+01  0.11987123326E+02  0.12709387614E+02  0.00000000000E+00 0. -1.
</event>
<event>
 7    1  0.1139627E-011  0.5930192E+02  0.7816164E-02  0.1266605E+00
        -11   -1    0    0    0    0  0.00000000000E+00  0.00000000000E+00  0.45593999997E+02  0.45594000000E+02  0.51100000000E-03 0. -1.
         11   -1    0    0    0    0 -0.00000000000E+00 -0.00000000000E+00 -0.45593999997E+02  0.45594000000E+02  0.51100000000E-03 0.  1.
    9900012    2    1    2    0    0 -0.21092778633E+02 -0.59770142107E+01 -0.23153656738E+02  0.59301924204E+02  0.49999963846E+02 0.  0.
        -12    1    1    2    0    0  0.21092778633E+02  0.59770142107E+01  0.23153656738E+02  0.31886075796E+02  0.00000000000E+00 0.  1.
         11    1    3    3    0    0  0.56849098382E+01 -0.14003641267E+02 -0.17682431940E+01  0.15216663657E+02  0.51100000000E-03 0. -1.
        -11    1    3    3    0    0 -0.14592433695E+02 -0.48140261916E+01 -0.21446536084E+02  0.26383098369E+02  0.51100000000E-03 0.  1.
         12    1    3    3    0    0 -0.12185254777E+02  0.12840653248E+02  0.61122539217E-01  0.17702162177E+02  0.00000000000E+00 0. -1.
</event>
<event>
 7    1  0.1139627E-011  0.5930196E+02  0.7816164E-02  0.1266605E+00
        -11   -1    0    0    0    0  0.00000000000E+00  0.00000000000E+00  0.45593999997E+02  0.45594000000E+02  0.51100000000E-03 0.  1.
         11   -1    0    0    0    0 -0.00000000000E+00 -0.00000000000E+00 -0.45593999997E+02  0.45594000000E+02  0.51100000000E-03 0. -1.
    9900012    2    1    2    0    0 -0.25992164474E+02 -0.17519888590E+02 -0.58464099482E+01  0.59301958860E+02  0.50000027051E+02 0.  0.
        -12    1    1    2    0    0  0.25992164474E+02  0.17519888590E+02  0.58464099482E+01  0.31886041140E+02  0.00000000000E+00 0.  1.
         11    1    3    3    0    0 -0.17504853632E+02 -0.82306211331E+01 -0.21567019945E+02  0.28970664033E+02  0.51100000000E-03 0. -1.
        -11    1    3    3    0    0  0.11936703633E+01 -0.86291715328E+01  0.18319996203E+02  0.20285702143E+02  0.51100000000E-03 0.  1.
        -12    1    3    3    0    0 -0.96809812060E+01 -0.66009592425E+00 -0.25993862061E+01  0.10045592685E+02  0.00000000000E+00 0.  1.
</event>
<event>
 7    1  0.1139627E-011  0.5930196E+02  0.7816164E-02  0.1266605E+00
        -11   -1    0    0    0    0  0.00000000000E+00  0.00000000000E+00  0.45593999997E+02  0.45594000000E+02  0.51100000000E-03 0.  1.
         11   -1    0    0    0    0 -0.00000000000E+00 -0.00000000000E+00 -0.45593999997E+02  0.45594000000E+02  0.51100000000E-03 0. -1.
    9900012    2    1    2    0    0  0.20351644591E+02  0.20559138430E+02 -0.13410887692E+02  0.59301960434E+02  0.50000029921E+02 0.  0.
        -12    1    1    2    0    0 -0.20351644591E+02 -0.20559138430E+02  0.13410887692E+02  0.31886039566E+02  0.00000000000E+00 0.  1.
         11    1    3    3    0    0  0.17833802968E+02  0.25500070677E+01 -0.41639135564E+01  0.18490139013E+02  0.51100000000E-03 0. -1.
        -11    1    3    3    0    0 -0.12824999121E+02 -0.32591781277E+01 -0.78648919471E+00  0.13255995249E+02  0.51100000000E-03 0.  1.
        -12    1    3    3    0    0  0.15342840744E+02  0.21268309490E+02 -0.84604849409E+01  0.27555826173E+02  0.00000000000E+00 0.  1.
</event>
<event>
 7    1  0.1139627E-011  0.5930194E+02  0.7816164E-02  0.1266605E+00
        -11   -1    0    0    0    0  0.00000000000E+00  0.00000000000E+00  0.45593999997E+02  0.45594000000E+02  0.51100000000E-03 0.  1.
         11   -1    0    0    0    0 -0.00000000000E+00 -0.00000000000E+00 -0.45593999997E+02  0.45594000000E+02  0.51100000000E-03 0. -1.
    9900012    2    1    2    0    0  0.16090806018E+01 -0.25007557705E+02 -0.19716833418E+02  0.59301943443E+02  0.49999998933E+02 0.  0.
        -12    1    1    2    0    0 -0.16090806018E+01  0.25007557705E+02  0.19716833418E+02  0.31886056557E+02  0.00000000000E+00 0.  1.
         11    1    3    3    0    0  0.43783667591E+01  0.48609525099E+01 -0.22463663201E+02  0.23396904057E+02  0.51100000000E-03 0. -1.
        -11    1    3    3    0    0 -0.11235276013E+02 -0.17801280988E+02  0.12263800860E+01  0.21086038990E+02  0.51100000000E-03 0.  1.
         12    1    3    3    0    0  0.84659898559E+01 -0.12067229227E+02  0.15204496970E+01  0.14819000396E+02  0.00000000000E+00 0. -1.
</event>
<event>
 7    1  0.1139627E-011  0.5930191E+02  0.7816164E-02  0.1266605E+00
        -11   -1    0    0    0    0  0.00000000000E+00  0.00000000000E+00  0.45593999997E+02  0.45594000000E+02  0.51100000000E-03 0. -1.
         11   -1    0    0    0    0 -0.00000000000E+00 -0.00000000000E+00 -0.45593999997E+02  0.45594000000E+02  0.51100000000E-03 0.  1.
    9900012    2    1    2    0    0 -0.82773188715E+01  0.30789463752E+02  0.46651076217E+00  0.59301910272E+02  0.49999938438E+02 0.  0.
        -12    1    1    2    0    0  0.82773188715E+01 -0.30789463752E+02 -0.46651076217E+00  0.31886089728E+02  0.00000000000E+00 0.  1.
         11    1    3    3    0    0 -0.37541003957E+01  0.16835639017E+02 -0.35780636971E+01  0.17616314909E+02  0.51100000000E-03 0. -1.
        -11    1    3    3    0    0  0.11448890663E+02 -0.14097930467E+01 -0.10152091503E+02  0.15366508257E+02  0.51100000000E-03 0.  1.
        -12    1    3    3    0    0 -0.15972109139E+02  0.15363617782E+02  0.14196665962E+02  0.26319087107E+02  0.00000000000E+00 0.  1.
</event>
<event>
 7    1  0.1139627E-011  0.5930196E+02  0.7816164E-02  0.1266605E+00
        -11   -1    0    0    0    0  0.00000000000E+00  0.00000000000E+00  0.45593999997E+02  0.45594000000E+02  0.51100000000E-03 0.  1.
         11   -1    0    0    0    0 -0.00000000000E+00 -0.00000000000E+00 -0.45593999997E+02  0.45594000000E+02  0.51100000000E-03 0. -1.
    9900012    2    1    2    0    0  0.31412597831E+02 -0.35742292295E+01 -0.41464565145E+01  0.59301960442E+02  0.50000029935E+02 0.  0.
        -12    1    1    2    0    0 -0.31412597831E+02  0.35742292295E+01  0.41464565145E+01  0.31886039558E+02  0.00000000000E+00 0.  1.
         11    1    3    3    0    0  0.24583660268E+02 -0.11461251540E+02 -0.23432193199E+02  0.35843888146E+02  0.51100000000E-03 0. -1.
        -11    1    3    3    0    0 -0.13815874223E+01  0.40636616777E+01  0.58957804717E+01  0.72926235107E+01  0.51100000000E-03 0.  1.
         12    1    3    3    0    0  0.82105249856E+01  0.38233606325E+01  0.13389956213E+02  0.16165448786E+02  0.00000000000E+00 0. -1.
</event>
<event>
 7    1  0.1139627E-011  0.5930192E+02  0.7816164E-02  0.1266605E+00
        -11   -1    0    0    0    0  0.00000000000E+00  0.00000000000E+00  0.45593999997E+02  0.45594000000E+02  0.51100000000E-03 0. -1.
         11   -1    0    0    0    0 -0.00000000000E+00 -0.00000000000E+00 -0.45593999997E+02  0.45594000000E+02  0.51100000000E-03 0.  1.
    9900012    2    1    2    0    0  0.27778643970E+02  0.34106101905E+01 -0.15278630182E+02  0.59301923683E+02  0.49999962896E+02 0.  0.
        -12    1    1    2    0    0 -0.27778643970E+02 -0.34106101905E+01  0.15278630182E+02  0.31886076317E+02  0.00000000000E+00 0.  1.
         11    1    3    3    0    0  0.18357573099E+02  0.84320328542E+01 -0.93446013468E+00  0.20223078009E+02  0.51100000000E-03 0. -1.
        -11    1    3    3    0    0 -0.11309468210E+02 -0.71218758653E+00  0.29843347770E+01  0.11718256554E+02  0.51100000000E-03 0.  1.
        -12    1    3    3    0    0  0.20730539081E+02 -0.43092350772E+01 -0.17328504825E+02  0.27360589120E+02  0.00000000000E+00 0.  1.
</event>
<event>
 7    1  0.1139627E-011  0.5930192E+02  0.7816164E-02  0.1266605E+00
        -11   -1    0    0    0    0  0.00000000000E+00  0.00000000000E+00  0.45593999997E+02  0.45594000000E+02  0.51100000000E-03 0. -1.
         11   -1    0    0    0    0 -0.00000000000E+00 -0.00000000000E+00 -0.45593999997E+02  0.45594000000E+02  0.51100000000E-03 0.  1.
    9900012    2    1    2    0    0 -0.15633228458E+00 -0.31872879982E+02  0.90413024197E+00  0.59301915737E+02  0.49999948405E+02 0.  0.
        -12    1    1    2    0    0  0.15633228458E+00  0.31872879982E+02 -0.90413024197E+00  0.31886084263E+02  0.00000000000E+00 0.  1.
         11    1    3    3    0    0  0.66469332690E+01  0.10720100069E+01  0.14371131481E+02  0.15870108621E+02  0.51100000000E-03 0. -1.
        -11    1    3    3    0    0 -0.99101982342E+01 -0.22106261522E+01 -0.54209200803E+01  0.11510224664E+02  0.51100000000E-03 0.  1.
         12    1    3    3    0    0  0.31069326807E+01 -0.30734263836E+02 -0.80460811589E+01  0.31921582452E+02  0.00000000000E+00 0. -1.
</event>
<event>
 7    1  0.1139627E-011  0.5930194E+02  0.7816164E-02  0.1266605E+00
        -11   -1    0    0    0    0  0.00000000000E+00  0.00000000000E+00  0.45593999997E+02  0.45594000000E+02  0.51100000000E-03 0. -1.
         11   -1    0    0    0    0 -0.00000000000E+00 -0.00000000000E+00 -0.45593999997E+02  0.45594000000E+02  0.51100000000E-03 0.  1.
    9900012    2    1    2    0    0  0.20137733329E+02 -0.97720614763E+01  0.22709017869E+02  0.59301937501E+02  0.49999988096E+02 0.  0.
        -12    1    1    2    0    0 -0.20137733329E+02  0.97720614763E+01 -0.22709017869E+02  0.31886062499E+02  0.00000000000E+00 0.  1.
         11    1    3    3    0    0  0.84334135698E+01 -0.11941602089E+02  0.12144332194E+02  0.19005502614E+02  0.51100000000E-03 0. -1.
        -11    1    3    3    0    0  0.21074623580E+02  0.12785877265E+02  0.79235348541E+01  0.25892099593E+02  0.51100000000E-03 0.  1.
        -12    1    3    3    0    0 -0.93703038207E+01 -0.10616336653E+02  0.26411508208E+01  0.14404335294E+02  0.00000000000E+00 0.  1.
</event>
<event>
 7    1  0.1139627E-011  0.5930197E+02  0.7816164E-02  0.1266605E+00
        -11   -1    0    0    0    0  0.00000000000E+00  0.00000000000E+00  0.45593999997E+02  0.45594000000E+02  0.51100000000E-03 0. -1.
         11   -1    0    0    0    0 -0.00000000000E+00 -0.00000000000E+00 -0.45593999997E+02  0.45594000000E+02  0.51100000000E-03 0.  1.
    9900012    2    1    2    0    0 -0.15626029294E+02  0.22992758318E+02  0.15616629582E+02  0.59301970990E+02  0.50000049172E+02 0.  0.
        -12    1    1    2    0    0  0.15626029294E+02 -0.22992758318E+02 -0.15616629582E+02  0.31886029010E+02  0.00000000000E+00 0.  1.
         11    1    3    3    0    0  0.75075007534E+01  0.12700202520E+02  0.24489829456E+02  0.28590373531E+02  0.51100000000E-03 0. -1.
        -11    1    3    3    0    0 -0.16663190123E+02  0.54327038851E+00 -0.11919107960E+01  0.16714595400E+02  0.51100000000E-03 0.  1.
         12    1    3    3    0    0 -0.64703399246E+01  0.97492854092E+01 -0.76812890779E+01  0.13997002059E+02  0.00000000000E+00 0. -1.
</event>
<event>
 7    1  0.1139627E-011  0.5930185E+02  0.7816164E-02  0.1266605E+00
        -11   -1    0    0    0    0  0.00000000000E+00  0.00000000000E+00  0.45593999997E+02  0.45594000000E+02  0.51100000000E-03 0.  1.
         11   -1    0    0    0    0 -0.00000000000E+00 -0.00000000000E+00 -0.45593999997E+02  0.45594000000E+02  0.51100000000E-03 0. -1.
    9900012    2    1    2    0    0  0.88078723996E+01 -0.10625436808E+02 -0.28744535671E+02  0.59301845411E+02  0.49999820146E+02 0.  0.
        -12    1    1    2    0    0 -0.88078723996E+01  0.10625436808E+02  0.28744535671E+02  0.31886154589E+02  0.00000000000E+00 0.  1.
         11    1    3    3    0    0  0.81631065919E+01  0.25711116193E+01 -0.35247197856E+02  0.36271364479E+02  0.51100000000E-03 0. -1.
        -11    1    3    3    0    0  0.28502009989E+01 -0.12980326230E+02 -0.27031616272E+01  0.13561695979E+02  0.51100000000E-03 0.  1.
         12    1    3    3    0    0 -0.22054351912E+01 -0.21622219699E+00  0.92058238128E+01  0.94687849534E+01  0.00000000000E+00 0. -1.
</event>
<event>
 7    1  0.1139627E-011  0.5930195E+02  0.7816164E-02  0.1266605E+00
        -11   -1    0    0    0    0  0.00000000000E+00  0.00000000000E+00  0.45593999997E+02  0.45594000000E+02  0.51100000000E-03 0.  1.
         11   -1    0    0    0    0 -0.00000000000E+00 -0.00000000000E+00 -0.45593999997E+02  0.45594000000E+02  0.51100000000E-03 0. -1.
    9900012    2    1    2    0    0  0.23433125838E+02 -0.13841735365E+02 -0.16613707964E+02  0.59301947927E+02  0.50000007112E+02 0.  0.
        -12    1    1    2    0    0 -0.23433125838E+02  0.13841735365E+02  0.16613707964E+02  0.31886052073E+02  0.00000000000E+00 0.  1.
         11    1    3    3    0    0  0.23704273884E+02  0.63668441304E+01 -0.14128059744E+02  0.28320158490E+02  0.51100000000E-03 0. -1.
        -11    1    3    3    0    0  0.11533697535E+02 -0.10504340365E+02 -0.12958014643E+01  0.15653959468E+02  0.51100000000E-03 0.  1.
         12    1    3    3    0    0 -0.11804845580E+02 -0.97042391305E+01 -0.11898467558E+01  0.15327829969E+02  0.00000000000E+00 0. -1.
</event>
<event>
 7    1  0.1139627E-011  0.5930197E+02  0.7816164E-02  0.1266605E+00
        -11   -1    0    0    0    0  0.00000000000E+00  0.00000000000E+00  0.45593999997E+02  0.45594000000E+02  0.51100000000E-03 0.  1.
         11   -1    0    0    0    0 -0.00000000000E+00 -0.00000000000E+00 -0.45593999997E+02  0.45594000000E+02  0.51100000000E-03 0. -1.
    9900012    2    1    2    0    0  0.29503130911E+02 -0.16368813511E+01 -0.11983526548E+02  0.59301968220E+02  0.50000044122E+02 0.  0.
        -12    1    1    2    0    0 -0.29503130911E+02  0.16368813511E+01  0.11983526548E+02  0.31886031780E+02  0.00000000000E+00 0.  1.
         11    1    3    3    0    0 -0.11440565146E+02 -0.39586116761E+01  0.94975028678E-01  0.12106451081E+02  0.51100000000E-03 0.  1.
        -11    1    3    3    0    0  0.30832852617E+02  0.68640877193E+01 -0.16037080104E+02  0.35425533718E+02  0.51100000000E-03 0. -1.
        -12    1    3    3    0    0  0.10110843441E+02 -0.45423573943E+01  0.39585785273E+01  0.11769983421E+02  0.00000000000E+00 0.  1.
</event>
<event>
 7    1  0.1139627E-011  0.5930194E+02  0.7816164E-02  0.1266605E+00
        -11   -1    0    0    0    0  0.00000000000E+00  0.00000000000E+00  0.45593999997E+02  0.45594000000E+02  0.51100000000E-03 0. -1.
         11   -1    0    0    0    0 -0.00000000000E+00 -0.00000000000E+00 -0.45593999997E+02  0.45594000000E+02  0.51100000000E-03 0.  1.
    9900012    2    1    2    0    0  0.20554966394E+02  0.14563446503E+02  0.19547900986E+02  0.59301936423E+02  0.49999986130E+02 0.  0.
        -12    1    1    2    0    0 -0.20554966394E+02 -0.14563446503E+02 -0.19547900986E+02  0.31886063577E+02  0.00000000000E+00 0.  1.
         11    1    3    3    0    0  0.78451375345E+01 -0.52861951069E+01  0.24978509240E+02  0.26709847730E+02  0.51100000000E-03 0. -1.
        -11    1    3    3    0    0  0.16527944902E+02  0.71734594576E+01 -0.68538169466E+01  0.19277092371E+02  0.51100000000E-03 0.  1.
        -12    1    3    3    0    0 -0.38181160431E+01  0.12676182152E+02  0.14232086931E+01  0.13314996322E+02  0.00000000000E+00 0.  1.
</event>
<event>
 7    1  0.1139627E-011  0.5930194E+02  0.7816164E-02  0.1266605E+00
        -11   -1    0    0    0    0  0.00000000000E+00  0.00000000000E+00  0.45593999997E+02  0.45594000000E+02  0.51100000000E-03 0. -1.
         11   -1    0    0    0    0 -0.00000000000E+00 -0.00000000000E+00 -0.45593999997E+02  0.45594000000E+02  0.51100000000E-03 0.  1.
    9900012    2    1    2    0    0  0.20459525561E+02 -0.20377077735E+02  0.13524172846E+02  0.59301941380E+02  0.49999995170E+02 0.  0.
        -12    1    1    2    0    0 -0.20459525561E+02  0.20377077735E+02 -0.13524172846E+02  0.31886058620E+02  0.00000000000E+00 0.  1.
         11    1    3    3    0    0  0.14978373986E+02 -0.18959269167E+02  0.11712740272E+02  0.26851328822E+02  0.51100000000E-03 0. -1.
        -11    1    3    3    0    0  0.39409647069E+01  0.14742363156E+02 -0.29303725139E+01  0.15538840290E+02  0.51100000000E-03 0.  1.
        -12    1    3    3    0    0  0.15401868684E+01 -0.16160171723E+02  0.47418050879E+01  0.16911772267E+02  0.00000000000E+00 0.  1.
</event>
<event>
 7    1  0.1139627E-011  0.5930186E+02  0.7816164E-02  0.1266605E+00
        -11   -1    0    0    0    0  0.00000000000E+00  0.00000000000E+00  0.45593999997E+02  0.45594000000E+02  0.51100000000E-03 0. -1.
         11   -1    0    0    0    0 -0.00000000000E+00 -0.00000000000E+00 -0.45593999997E+02  0.45594000000E+02  0.51100000000E-03 0.  1.
    9900012    2    1    2    0    0  0.24488043235E+02 -0.13311520626E+02  0.15487585204E+02  0.59301856641E+02  0.49999840628E+02 0.  0.
        -12    1    1    2    0    0 -0.24488043235E+02  0.13311520626E+02 -0.15487585204E+02  0.31886143359E+02  0.00000000000E+00 0.  1.
         11    1    3    3    0    0  0.22740130567E+02 -0.20041906383E+02  0.30052848022E+02  0.42684484583E+02  0.51100000000E-03 0. -1.
        -11    1    3    3    0    0 -0.32091730218E+00  0.44765004772E+01 -0.58006731263E+01  0.73341566261E+01  0.51100000000E-03 0.  1.
         12    1    3    3    0    0  0.20688299698E+01  0.22538852795E+01 -0.87645896917E+01  0.92832154322E+01  0.00000000000E+00 0. -1.
</event>
<event>
 7    1  0.1139627E-011  0.5930196E+02  0.7816164E-02  0.1266605E+00
        -11   -1    0    0    0    0  0.00000000000E+00  0.00000000000E+00  0.45593999997E+02  0.45594000000E+02  0.51100000000E-03 0.  1.
         11   -1    0    0    0    0 -0.00000000000E+00 -0.00000000000E+00 -0.45593999997E+02  0.45594000000E+02  0.51100000000E-03 0. -1.
    9900012    2    1    2    0    0  0.20196383478E+02  0.17886093437E+02 -0.16997447131E+02  0.59301961472E+02  0.50000031815E+02 0.  0.
        -12    1    1    2    0    0 -0.20196383478E+02 -0.17886093437E+02  0.16997447131E+02  0.31886038528E+02  0.00000000000E+00 0.  1.
         11    1    3    3    0    0  0.31064865488E+01 -0.21426436982E+01 -0.53299801265E+01  0.65306867254E+01  0.51100000000E-03 0. -1.
        -11    1    3    3    0    0  0.21655884191E+02  0.28266270901E+02  0.25694254829E+01  0.35700999122E+02  0.51100000000E-03 0.  1.
        -12    1    3    3    0    0 -0.45659872627E+01 -0.82375337654E+01 -0.14236892487E+02  0.17070275625E+02  0.00000000000E+00 0.  1.
</event>
<event>
 7    1  0.1139627E-011  0.5930197E+02  0.7816164E-02  0.1266605E+00
        -11   -1    0    0    0    0  0.00000000000E+00  0.00000000000E+00  0.45593999997E+02  0.45594000000E+02  0.51100000000E-03 0.  1.
         11   -1    0    0    0    0 -0.00000000000E+00 -0.00000000000E+00 -0.45593999997E+02  0.45594000000E+02  0.51100000000E-03 0. -1.
    9900012    2    1    2    0    0  0.31262460458E+01  0.68380889631E+01 -0.30986865263E+02  0.59301973377E+02  0.50000053525E+02 0.  0.
        -12    1    1    2    0    0 -0.31262460458E+01 -0.68380889631E+01  0.30986865263E+02  0.31886026623E+02  0.00000000000E+00 0.  1.
         11    1    3    3    0    0 -0.88981600583E+01 -0.29630052664E+01 -0.99996045489E+01  0.13709439960E+02  0.51100000000E-03 0. -1.
        -11    1    3    3    0    0  0.21111081007E+02 -0.58371123942E+01 -0.14974710618E+02  0.26532839666E+02  0.51100000000E-03 0.  1.
        -12    1    3    3    0    0 -0.90866749027E+01  0.15638206624E+02 -0.60125500959E+01  0.19059693750E+02  0.00000000000E+00 0.  1.
</event>
<event>
 7    1  0.1139627E-011  0.5930194E+02  0.7816164E-02  0.1266605E+00
        -11   -1    0    0    0    0  0.00000000000E+00  0.00000000000E+00  0.45593999997E+02  0.45594000000E+02  0.51100000000E-03 0.  1.
         11   -1    0    0    0    0 -0.00000000000E+00 -0.00000000000E+00 -0.45593999997E+02  0.45594000000E+02  0.51100000000E-03 0. -1.
    9900012    2    1    2    0    0  0.75337231102E+01 -0.97423146841E+01 -0.29411755835E+02  0.59301936264E+02  0.49999985840E+02 0.  0.
        -12    1    1    2    0    0 -0.75337231102E+01  0.97423146841E+01  0.29411755835E+02  0.31886063736E+02  0.00000000000E+00 0.  1.
         11    1    3    3    0    0  0.76805139166E+01  0.72658399340E+01 -0.80340364760E+01  0.13278872931E+02  0.51100000000E-03 0. -1.
        -11    1    3    3    0    0 -0.10156421455E+02 -0.12855243488E+02 -0.28628000955E+02  0.32984429976E+02  0.51100000000E-03 0.  1.
        -12    1    3    3    0    0  0.10009630649E+02 -0.41529111302E+01  0.72502815960E+01  0.13038633356E+02  0.00000000000E+00 0.  1.
</event>
<event>
 7    1  0.1139627E-011  0.5930194E+02  0.7816164E-02  0.1266605E+00
        -11   -1    0    0    0    0  0.00000000000E+00  0.00000000000E+00  0.45593999997E+02  0.45594000000E+02  0.51100000000E-03 0. -1.
         11   -1    0    0    0    0 -0.00000000000E+00 -0.00000000000E+00 -0.45593999997E+02  0.45594000000E+02  0.51100000000E-03 0.  1.
    9900012    2    1    2    0    0  0.29052347558E+02 -0.61982913828E+01  0.11587205297E+02  0.59301936566E+02  0.49999986392E+02 0.  0.
        -12    1    1    2    0    0 -0.29052347558E+02  0.61982913828E+01 -0.11587205297E+02  0.31886063434E+02  0.00000000000E+00 0.  1.
         11    1    3    3    0    0  0.13580804219E+02  0.10500384461E+02  0.93669446226E+01  0.19555970160E+02  0.51100000000E-03 0. -1.
        -11    1    3    3    0    0  0.13786883653E+02 -0.98523671907E+01 -0.14050810356E+02  0.22013009154E+02  0.51100000000E-03 0.  1.
        -12    1    3    3    0    0  0.16846596863E+01 -0.68463086532E+01  0.16271071030E+02  0.17732957252E+02  0.00000000000E+00 0.  1.
</event>
<event>
 7    1  0.1139627E-011  0.5930195E+02  0.7816164E-02  0.1266605E+00
        -11   -1    0    0    0    0  0.00000000000E+00  0.00000000000E+00  0.45593999997E+02  0.45594000000E+02  0.51100000000E-03 0.  1.
         11   -1    0    0    0    0 -0.00000000000E+00 -0.00000000000E+00 -0.45593999997E+02  0.45594000000E+02  0.51100000000E-03 0. -1.
    9900012    2    1    2    0    0  0.57645283480E+01 -0.51800756660E+01 -0.30929870606E+02  0.59301954985E+02  0.50000019984E+02 0.  0.
        -12    1    1    2    0    0 -0.57645283480E+01  0.51800756660E+01  0.30929870606E+02  0.31886045015E+02  0.00000000000E+00 0.  1.
         11    1    3    3    0    0 -0.10694062265E+02  0.27264779592E+01 -0.26839785958E+02  0.29020178502E+02  0.51100000000E-03 0. -1.
        -11    1    3    3    0    0  0.19591685333E+02  0.18767927417E+01 -0.18545409650E+01  0.19768556033E+02  0.51100000000E-03 0.  1.
         12    1    3    3    0    0 -0.31330947199E+01 -0.97833463669E+01 -0.22355436834E+01  0.10513220449E+02  0.00000000000E+00 0. -1.
</event>
<event>
 7    1  0.1139627E-011  0.5930194E+02  0.7816164E-02  0.1266605E+00
        -11   -1    0    0    0    0  0.00000000000E+00  0.00000000000E+00  0.45593999997E+02  0.45594000000E+02  0.51100000000E-03 0. -1.
         11   -1    0    0    0    0 -0.00000000000E+00 -0.00000000000E+00 -0.45593999997E+02  0.45594000000E+02  0.51100000000E-03 0.  1.
    9900012    2    1    2    0    0  0.21740862876E+02 -0.65575677535E+00  0.23315782040E+02  0.59301939916E+02  0.49999992501E+02 0.  0.
        -12    1    1    2    0    0 -0.21740862876E+02  0.65575677535E+00 -0.23315782040E+02  0.31886060084E+02  0.00000000000E+00 0.  1.
         11    1    3    3    0    0  0.28801213461E+02  0.13268531358E+01  0.24675345208E+02  0.37949217350E+02  0.51100000000E-03 0. -1.
        -11    1    3    3    0    0  0.42962012144E+01  0.23073665421E+01 -0.65364693473E+01  0.81551650519E+01  0.51100000000E-03 0.  1.
         12    1    3    3    0    0 -0.11356551799E+02 -0.42899764533E+01  0.51769061798E+01  0.13197557514E+02  0.00000000000E+00 0. -1.
</event>
<event>
 7    1  0.1139627E-011  0.5930191E+02  0.7816164E-02  0.1266605E+00
        -11   -1    0    0    0    0  0.00000000000E+00  0.00000000000E+00  0.45593999997E+02  0.45594000000E+02  0.51100000000E-03 0. -1.
         11   -1    0    0    0    0 -0.00000000000E+00 -0.00000000000E+00 -0.45593999997E+02  0.45594000000E+02  0.51100000000E-03 0.  1.
    9900012    2    1    2    0    0  0.28586401634E+02  0.89610324764E+01 -0.10919726604E+02  0.59301907569E+02  0.49999933508E+02 0.  0.
        -12    1    1    2    0    0 -0.28586401634E+02 -0.89610324764E+01  0.10919726604E+02  0.31886092431E+02  0.00000000000E+00 0.  1.
         11    1    3    3    0    0 -0.27058697755E+01 -0.13494017960E+02  0.61643186538E+01  0.15080088749E+02  0.51100000000E-03 0. -1.
        -11    1    3    3    0    0  0.13570878093E+02  0.17950796400E+02 -0.93347114233E+01  0.24362607850E+02  0.51100000000E-03 0.  1.
         12    1    3    3    0    0  0.17721393316E+02  0.45042540364E+01 -0.77493338341E+01  0.19859210970E+02  0.00000000000E+00 0. -1.
</event>
<event>
 7    1  0.1139627E-011  0.5930195E+02  0.7816164E-02  0.1266605E+00
        -11   -1    0    0    0    0  0.00000000000E+00  0.00000000000E+00  0.45593999997E+02  0.45594000000E+02  0.51100000000E-03 0.  1.
         11   -1    0    0    0    0 -0.00000000000E+00 -0.00000000000E+00 -0.45593999997E+02  0.45594000000E+02  0.51100000000E-03 0. -1.
    9900012    2    1    2    0    0 -0.33423253349E+01  0.31683760936E+02 -0.12993454271E+01  0.59301950633E+02  0.50000012047E+02 0.  0.
        -12    1    1    2    0    0  0.33423253349E+01 -0.31683760936E+02  0.12993454271E+01  0.31886049367E+02  0.00000000000E+00 0.  1.
         11    1    3    3    0    0  0.42925575036E+01  0.13975735762E+02 -0.21759925007E+02  0.26215292800E+02  0.51100000000E-03 0. -1.
        -11    1    3    3    0    0 -0.36165257826E+01  0.62140315770E+01  0.19603468050E+02  0.20880359361E+02  0.51100000000E-03 0.  1.
         12    1    3    3    0    0 -0.40183570560E+01  0.11493993597E+02  0.85711152955E+00  0.12206298473E+02  0.00000000000E+00 0. -1.
</event>
<event>
 7    1  0.1140351E-011  0.5930190E+02  0.7816164E-02  0.1266605E+00
        -11   -1    0    0    0    0  0.00000000000E+00  0.00000000000E+00  0.45593999997E+02  0.45594000000E+02  0.51100000000E-03 0.  1.
         11   -1    0    0    0    0 -0.00000000000E+00 -0.00000000000E+00 -0.45593999997E+02  0.45594000000E+02  0.51100000000E-03 0. -1.
    9900012    2    1    2    0    0  0.23782186979E+02  0.18750556170E+02 -0.99773544214E+01  0.59301899965E+02  0.49999919640E+02 0.  0.
        -12    1    1    2    0    0 -0.23782186979E+02 -0.18750556170E+02  0.99773544214E+01  0.31886100035E+02  0.00000000000E+00 0.  1.
         11    1    3    3    0    0  0.17830140835E+02  0.24896585445E+02 -0.16034552566E+02  0.34566758096E+02  0.51100000000E-03 0. -1.
        -11    1    3    3    0    0  0.11966091893E+02 -0.92543100944E+01 -0.73551408839E+00  0.15144985697E+02  0.51100000000E-03 0.  1.
        -12    1    3    3    0    0 -0.60140457491E+01  0.31082808200E+01  0.67927122328E+01  0.95901561722E+01  0.00000000000E+00 0.  1.
</event>
<event>
 7    1  0.1139627E-011  0.5930194E+02  0.7816164E-02  0.1266605E+00
        -11   -1    0    0    0    0  0.00000000000E+00  0.00000000000E+00  0.45593999997E+02  0.45594000000E+02  0.51100000000E-03 0.  1.
         11   -1    0    0    0    0 -0.00000000000E+00 -0.00000000000E+00 -0.45593999997E+02  0.45594000000E+02  0.51100000000E-03 0. -1.
    9900012    2    1    2    0    0  0.29222554001E+02 -0.12703426135E+02  0.11774254524E+01  0.59301936765E+02  0.49999986755E+02 0.  0.
        -12    1    1    2    0    0 -0.29222554001E+02  0.12703426135E+02 -0.11774254524E+01  0.31886063235E+02  0.00000000000E+00 0.  1.
         11    1    3    3    0    0  0.33106467320E+02 -0.10984384649E+02 -0.15675273357E+02  0.38241457603E+02  0.51100000000E-03 0. -1.
        -11    1    3    3    0    0 -0.51543547130E+01 -0.24595479514E+01  0.18194511457E+02  0.19069792763E+02  0.51100000000E-03 0.  1.
         12    1    3    3    0    0  0.12704413941E+01  0.74050646493E+00 -0.13418126476E+01  0.19906863996E+01  0.00000000000E+00 0. -1.
</event>
<event>
 7    1  0.1139627E-011  0.5930187E+02  0.7816164E-02  0.1266605E+00
        -11   -1    0    0    0    0  0.00000000000E+00  0.00000000000E+00  0.45593999997E+02  0.45594000000E+02  0.51100000000E-03 0. -1.
         11   -1    0    0    0    0 -0.00000000000E+00 -0.00000000000E+00 -0.45593999997E+02  0.45594000000E+02  0.51100000000E-03 0.  1.
    9900012    2    1    2    0    0  0.63006833287E+01  0.18100316201E+02  0.25483433845E+02  0.59301867316E+02  0.49999860097E+02 0.  0.
        -12    1    1    2    0    0 -0.63006833287E+01 -0.18100316201E+02 -0.25483433845E+02  0.31886132684E+02  0.00000000000E+00 0.  1.
         11    1    3    3    0    0  0.21438380187E+01  0.26321007531E+02  0.30794086220E+02  0.40566824195E+02  0.51100000000E-03 0. -1.
        -11    1    3    3    0    0  0.53159031457E+01 -0.12113046805E+02 -0.17680639211E+01  0.13345815054E+02  0.51100000000E-03 0.  1.
        -12    1    3    3    0    0 -0.11590578357E+01  0.38923554753E+01 -0.35425884539E+01  0.53892280677E+01  0.00000000000E+00 0.  1.
</event>
<event>
 7    1  0.1139627E-011  0.5930196E+02  0.7816164E-02  0.1266605E+00
        -11   -1    0    0    0    0  0.00000000000E+00  0.00000000000E+00  0.45593999997E+02  0.45594000000E+02  0.51100000000E-03 0. -1.
         11   -1    0    0    0    0 -0.00000000000E+00 -0.00000000000E+00 -0.45593999997E+02  0.45594000000E+02  0.51100000000E-03 0.  1.
    9900012    2    1    2    0    0  0.22254184650E+02 -0.21920529392E+02  0.64001112858E+01  0.59301956536E+02  0.50000022813E+02 0.  0.
        -12    1    1    2    0    0 -0.22254184650E+02  0.21920529392E+02 -0.64001112858E+01  0.31886043464E+02  0.00000000000E+00 0.  1.
         11    1    3    3    0    0  0.91213015443E+01  0.12709733495E+01 -0.10619396142E+02  0.14056496356E+02  0.51100000000E-03 0. -1.
        -11    1    3    3    0    0  0.41740998258E+01 -0.31360621033E+01  0.22093162486E+02  0.22701670066E+02  0.51100000000E-03 0.  1.
         12    1    3    3    0    0  0.89587832802E+01 -0.20055440639E+02 -0.50736550583E+01  0.22543790114E+02  0.00000000000E+00 0. -1.
</event>
<event>
 7    1  0.1139627E-011  0.5930194E+02  0.7816164E-02  0.1266605E+00
        -11   -1    0    0    0    0  0.00000000000E+00  0.00000000000E+00  0.45593999997E+02  0.45594000000E+02  0.51100000000E-03 0.  1.
         11   -1    0    0    0    0 -0.00000000000E+00 -0.00000000000E+00 -0.45593999997E+02  0.45594000000E+02  0.51100000000E-03 0. -1.
    9900012    2    1    2    0    0 -0.11882131638E+02  0.28480922594E+02 -0.80232496459E+01  0.59301944444E+02  0.50000000759E+02 0.  0.
        -12    1    1    2    0    0  0.11882131638E+02 -0.28480922594E+02  0.80232496459E+01  0.31886055556E+02  0.00000000000E+00 0.  1.
         11    1    3    3    0    0 -0.24394908489E+02  0.20237294202E+01  0.33372809194E+01  0.24705150984E+02  0.51100000000E-03 0. -1.
        -11    1    3    3    0    0  0.31898937523E+01  0.17123334078E+02 -0.36295520059E+00  0.17421702811E+02  0.51100000000E-03 0.  1.
         12    1    3    3    0    0  0.93228830989E+01  0.93338590961E+01 -0.10997575365E+02  0.17175090649E+02  0.00000000000E+00 0. -1.
</event>
<event>
 7    1  0.1139627E-011  0.5930193E+02  0.7816164E-02  0.1266605E+00
        -11   -1    0    0    0    0  0.00000000000E+00  0.00000000000E+00  0.45593999997E+02  0.45594000000E+02  0.51100000000E-03 0.  1.
         11   -1    0    0    0    0 -0.00000000000E+00 -0.00000000000E+00 -0.45593999997E+02  0.45594000000E+02  0.51100000000E-03 0. -1.
    9900012    2    1    2    0    0 -0.12574037266E+02 -0.12467873599E+02 -0.26517295916E+02  0.59301933012E+02  0.49999979910E+02 0.  0.
        -12    1    1    2    0    0  0.12574037266E+02  0.12467873599E+02  0.26517295916E+02  0.31886066988E+02  0.00000000000E+00 0.  1.
         11    1    3    3    0    0 -0.88590799079E+01  0.13659848103E+02 -0.16607605303E+01  0.16365600289E+02  0.51100000000E-03 0. -1.
        -11    1    3    3    0    0 -0.74737022977E+01 -0.20128580550E+02 -0.27921009274E+02  0.35222134236E+02  0.51100000000E-03 0.  1.
        -12    1    3    3    0    0  0.37587449398E+01 -0.59991411522E+01  0.30644738881E+01  0.77141984870E+01  0.00000000000E+00 0.  1.
</event>
<event>
 7    1  0.1139627E-011  0.5930194E+02  0.7816164E-02  0.1266605E+00
        -11   -1    0    0    0    0  0.00000000000E+00  0.00000000000E+00  0.45593999997E+02  0.45594000000E+02  0.51100000000E-03 0.  1.
         11   -1    0    0    0    0 -0.00000000000E+00 -0.00000000000E+00 -0.45593999997E+02  0.45594000000E+02  0.51100000000E-03 0. -1.
    9900012    2    1    2    0    0 -0.27907600606E+02 -0.12056420328E+02 -0.96192267300E+01  0.59301937754E+02  0.49999988557E+02 0.  0.
        -12    1    1    2    0    0  0.27907600606E+02  0.12056420328E+02  0.96192267300E+01  0.31886062246E+02  0.00000000000E+00 0.  1.
         11    1    3    3    0    0 -0.11789007723E+02  0.97734960419E+01 -0.16305356877E+02  0.22368875500E+02  0.51100000000E-03 0. -1.
        -11    1    3    3    0    0 -0.90077115632E+01 -0.11517981449E+02 -0.87608126633E+01  0.17045662294E+02  0.51100000000E-03 0.  1.
         12    1    3    3    0    0 -0.71108813198E+01 -0.10311934921E+02  0.15446942811E+02  0.19887399959E+02  0.00000000000E+00 0. -1.
</event>
<event>
 7    1  0.1139627E-011  0.5930197E+02  0.7816164E-02  0.1266605E+00
        -11   -1    0    0    0    0  0.00000000000E+00  0.00000000000E+00  0.45593999997E+02  0.45594000000E+02  0.51100000000E-03 0.  1.
         11   -1    0    0    0    0 -0.00000000000E+00 -0.00000000000E+00 -0.45593999997E+02  0.45594000000E+02  0.51100000000E-03 0. -1.
    9900012    2    1    2    0    0  0.96269556440E+01 -0.29218282037E+02  0.83864533224E+01  0.59301970465E+02  0.50000048215E+02 0.  0.
        -12    1    1    2    0    0 -0.96269556440E+01  0.29218282037E+02 -0.83864533224E+01  0.31886029535E+02  0.00000000000E+00 0.  1.
         11    1    3    3    0    0  0.11658345615E+02 -0.57018140899E+00 -0.71234604801E+01  0.13674275805E+02  0.51100000000E-03 0. -1.
        -11    1    3    3    0    0  0.46238665958E+01 -0.24848970498E+02  0.23531594462E+02  0.34533858969E+02  0.51100000000E-03 0.  1.
        -12    1    3    3    0    0 -0.66552565670E+01 -0.37991301307E+01 -0.80216806597E+01  0.11093835691E+02  0.00000000000E+00 0.  1.
</event>
<event>
 7    1  0.1139627E-011  0.5930194E+02  0.7816164E-02  0.1266605E+00
        -11   -1    0    0    0    0  0.00000000000E+00  0.00000000000E+00  0.45593999997E+02  0.45594000000E+02  0.51100000000E-03 0. -1.
         11   -1    0    0    0    0 -0.00000000000E+00 -0.00000000000E+00 -0.45593999997E+02  0.45594000000E+02  0.51100000000E-03 0.  1.
    9900012    2    1    2    0    0  0.22672226948E+02 -0.10800975018E+01  0.22394744819E+02  0.59301935945E+02  0.49999985259E+02 0.  0.
        -12    1    1    2    0    0 -0.22672226948E+02  0.10800975018E+01 -0.22394744819E+02  0.31886064055E+02  0.00000000000E+00 0.  1.
         11    1    3    3    0    0  0.10037315315E+02 -0.79386940345E+01  0.50490750786E+01  0.13757315185E+02  0.51100000000E-03 0. -1.
        -11    1    3    3    0    0  0.14893645342E+02  0.13064075157E+02 -0.64615453071E+01  0.20838481214E+02  0.51100000000E-03 0.  1.
        -12    1    3    3    0    0 -0.22587337088E+01 -0.62054786248E+01  0.23807215048E+02  0.24706139546E+02  0.00000000000E+00 0.  1.
</event>
<event>
 7    1  0.1139627E-011  0.5930193E+02  0.7816164E-02  0.1266605E+00
        -11   -1    0    0    0    0  0.00000000000E+00  0.00000000000E+00  0.45593999997E+02  0.45594000000E+02  0.51100000000E-03 0.  1.
         11   -1    0    0    0    0 -0.00000000000E+00 -0.00000000000E+00 -0.45593999997E+02  0.45594000000E+02  0.51100000000E-03 0. -1.
    9900012    2    1    2    0    0 -0.90936735868E+01  0.28225784520E+02 -0.11718863448E+02  0.59301928251E+02  0.49999971227E+02 0.  0.
        -12    1    1    2    0    0  0.90936735868E+01 -0.28225784520E+02  0.11718863448E+02  0.31886071749E+02  0.00000000000E+00 0.  1.
         11    1    3    3    0    0  0.78702563749E+01  0.83653732116E+01 -0.32574234939E+00  0.11490279053E+02  0.51100000000E-03 0. -1.
        -11    1    3    3    0    0 -0.27923594845E+02  0.21327185704E+02 -0.65578055617E+01  0.35743262486E+02  0.51100000000E-03 0.  1.
        -12    1    3    3    0    0  0.10959664883E+02 -0.14667743955E+01 -0.48353155366E+01  0.12068386712E+02  0.00000000000E+00 0.  1.
</event>
<event>
 7    1  0.1139627E-011  0.5930195E+02  0.7816164E-02  0.1266605E+00
        -11   -1    0    0    0    0  0.00000000000E+00  0.00000000000E+00  0.45593999997E+02  0.45594000000E+02  0.51100000000E-03 0. -1.
         11   -1    0    0    0    0 -0.00000000000E+00 -0.00000000000E+00 -0.45593999997E+02  0.45594000000E+02  0.51100000000E-03 0.  1.
    9900012    2    1    2    0    0 -0.15383622416E+02  0.24207851044E+02  0.13929984419E+02  0.59301947301E+02  0.50000005969E+02 0.  0.
        -12    1    1    2    0    0  0.15383622416E+02 -0.24207851044E+02 -0.13929984419E+02  0.31886052699E+02  0.00000000000E+00 0.  1.
         11    1    3    3    0    0 -0.43353492572E+01 -0.46331213379E+01  0.65516972898E+01  0.91206252061E+01  0.51100000000E-03 0. -1.
        -11    1    3    3    0    0  0.14181541778E+01  0.26221542151E+02  0.19413287663E+02  0.32656640553E+02  0.51100000000E-03 0.  1.
        -12    1    3    3    0    0 -0.12466427337E+02  0.26194302307E+01 -0.12035000534E+02  0.17524681541E+02  0.00000000000E+00 0.  1.
</event>
<event>
 7    1  0.1139627E-011  0.5930192E+02  0.7816164E-02  0.1266605E+00
        -11   -1    0    0    0    0  0.00000000000E+00  0.00000000000E+00  0.45593999997E+02  0.45594000000E+02  0.51100000000E-03 0.  1.
         11   -1    0    0    0    0 -0.00000000000E+00 -0.00000000000E+00 -0.45593999997E+02  0.45594000000E+02  0.51100000000E-03 0. -1.
    9900012    2    1    2    0    0 -0.24399614709E+02  0.14058547216E+02 -0.14957869070E+02  0.59301924749E+02  0.49999964841E+02 0.  0.
        -12    1    1    2    0    0  0.24399614709E+02 -0.14058547216E+02  0.14957869070E+02  0.31886075251E+02  0.00000000000E+00 0.  1.
         11    1    3    3    0    0 -0.14265050506E+01 -0.54275009428E+01 -0.25576466996E+02  0.26184887768E+02  0.51100000000E-03 0. -1.
        -11    1    3    3    0    0 -0.70522885546E+01  0.52641066453E+01  0.74597578789E+01  0.11536619111E+02  0.51100000000E-03 0.  1.
         12    1    3    3    0    0 -0.15920821104E+02  0.14221941513E+02  0.31588400470E+01  0.21580417871E+02  0.00000000000E+00 0. -1.
</event>
<event>
 7    1  0.1139627E-011  0.5930194E+02  0.7816164E-02  0.1266605E+00
        -11   -1    0    0    0    0  0.00000000000E+00  0.00000000000E+00  0.45593999997E+02  0.45594000000E+02  0.51100000000E-03 0. -1.
         11   -1    0    0    0    0 -0.00000000000E+00 -0.00000000000E+00 -0.45593999997E+02  0.45594000000E+02  0.51100000000E-03 0.  1.
    9900012    2    1    2    0    0  0.81023736215E+01  0.30634830504E+02 -0.35467506598E+01  0.59301941313E+02  0.49999995049E+02 0.  0.
        -12    1    1    2    0    0 -0.81023736215E+01 -0.30634830504E+02  0.35467506598E+01  0.31886058687E+02  0.00000000000E+00 0.  1.
         11    1    3    3    0    0  0.62977399915E+01  0.37565356687E+02 -0.18593027728E+01  0.38134951935E+02  0.51100000000E-03 0. -1.
        -11    1    3    3    0    0 -0.39019791667E+01 -0.68152672172E+01  0.71671962747E+01  0.10632121677E+02  0.51100000000E-03 0.  1.
        -12    1    3    3    0    0  0.57066127967E+01 -0.11525896570E+00 -0.88546441617E+01  0.10534867701E+02  0.00000000000E+00 0.  1.
</event>
<event>
 7    1  0.1139627E-011  0.5930199E+02  0.7816164E-02  0.1266605E+00
        -11   -1    0    0    0    0  0.00000000000E+00  0.00000000000E+00  0.45593999997E+02  0.45594000000E+02  0.51100000000E-03 0. -1.
         11   -1    0    0    0    0 -0.00000000000E+00 -0.00000000000E+00 -0.45593999997E+02  0.45594000000E+02  0.51100000000E-03 0.  1.
    9900012    2    1    2    0    0 -0.57209005365E+01 -0.17796391310E+01  0.31318078485E+02  0.59301986477E+02  0.50000077417E+02 0.  0.
        -12    1    1    2    0    0  0.57209005365E+01  0.17796391310E+01 -0.31318078485E+02  0.31886013523E+02  0.00000000000E+00 0.  1.
         11    1    3    3    0    0  0.56712923334E+00  0.79480593861E+01  0.71254311739E+01  0.10689483301E+02  0.51100000000E-03 0. -1.
        -11    1    3    3    0    0 -0.22383077937E+02 -0.12105370445E+02  0.18151938273E+02  0.31257559644E+02  0.51100000000E-03 0.  1.
        -12    1    3    3    0    0  0.16095048167E+02  0.23776719279E+01  0.60407090385E+01  0.17354943532E+02  0.00000000000E+00 0.  1.
</event>
<event>
 7    1  0.1139627E-011  0.5930195E+02  0.7816164E-02  0.1266605E+00
        -11   -1    0    0    0    0  0.00000000000E+00  0.00000000000E+00  0.45593999997E+02  0.45594000000E+02  0.51100000000E-03 0. -1.
         11   -1    0    0    0    0 -0.00000000000E+00 -0.00000000000E+00 -0.45593999997E+02  0.45594000000E+02  0.51100000000E-03 0.  1.
    9900012    2    1    2    0    0 -0.24380708484E+02 -0.22616884594E+00  0.20548732288E+02  0.59301945099E+02  0.50000001953E+02 0.  0.
        -12    1    1    2    0    0  0.24380708484E+02  0.22616884594E+00 -0.20548732288E+02  0.31886054901E+02  0.00000000000E+00 0.  1.
         11    1    3    3    0    0 -0.35590312902E+02  0.89887856087E+01  0.22698412485E+02  0.43158852728E+02  0.51100000000E-03 0. -1.
        -11    1    3    3    0    0  0.11388234839E+01 -0.13666324751E+01 -0.28460888389E+01  0.33563112474E+01  0.51100000000E-03 0.  1.
         12    1    3    3    0    0  0.10070780934E+02 -0.78483219795E+01  0.69640864141E+00  0.12786781124E+02  0.00000000000E+00 0. -1.
</event>
<event>
 7    1  0.1139627E-011  0.5930196E+02  0.7816164E-02  0.1266605E+00
        -11   -1    0    0    0    0  0.00000000000E+00  0.00000000000E+00  0.45593999997E+02  0.45594000000E+02  0.51100000000E-03 0.  1.
         11   -1    0    0    0    0 -0.00000000000E+00 -0.00000000000E+00 -0.45593999997E+02  0.45594000000E+02  0.51100000000E-03 0. -1.
    9900012    2    1    2    0    0  0.25980122865E+02 -0.57564299135E+00 -0.18477588126E+02  0.59301962117E+02  0.50000032990E+02 0.  0.
        -12    1    1    2    0    0 -0.25980122865E+02  0.57564299135E+00  0.18477588126E+02  0.31886037883E+02  0.00000000000E+00 0.  1.
         11    1    3    3    0    0  0.11560315242E+02  0.21418939318E+01 -0.31984775145E+02  0.34077183561E+02  0.51100000000E-03 0. -1.
        -11    1    3    3    0    0  0.22947794233E+01 -0.35957962229E+01  0.12287608375E+02  0.13006962863E+02  0.51100000000E-03 0.  1.
         12    1    3    3    0    0  0.12125028200E+02  0.87825929969E+00  0.12195786442E+01  0.12217815693E+02  0.00000000000E+00 0. -1.
</event>
<event>
 7    1  0.1139627E-011  0.5930194E+02  0.7816164E-02  0.1266605E+00
        -11   -1    0    0    0    0  0.00000000000E+00  0.00000000000E+00  0.45593999997E+02  0.45594000000E+02  0.51100000000E-03 0.  1.
         11   -1    0    0    0    0 -0.00000000000E+00 -0.00000000000E+00 -0.45593999997E+02  0.45594000000E+02  0.51100000000E-03 0. -1.
    9900012    2    1    2    0    0 -0.11722411496E+02 -0.15470963498E+02 -0.25297335863E+02  0.59301939650E+02  0.49999992017E+02 0.  0.
        -12    1    1    2    0    0  0.11722411496E+02  0.15470963498E+02  0.25297335863E+02  0.31886060350E+02  0.00000000000E+00 0.  1.
         11    1    3    3    0    0 -0.84022111913E+01 -0.18251712443E+02 -0.20325036405E+02  0.28580225071E+02  0.51100000000E-03 0. -1.
        -11    1    3    3    0    0  0.52151274040E+01  0.80939185960E+00  0.11170926151E+02  0.12354847646E+02  0.51100000000E-03 0.  1.
        -12    1    3    3    0    0 -0.85353277091E+01  0.19713570858E+01 -0.16143225610E+02  0.18366866933E+02  0.00000000000E+00 0.  1.
</event>
<event>
 7    1  0.1139627E-011  0.5930194E+02  0.7816164E-02  0.1266605E+00
        -11   -1    0    0    0    0  0.00000000000E+00  0.00000000000E+00  0.45593999997E+02  0.45594000000E+02  0.51100000000E-03 0.  1.
         11   -1    0    0    0    0 -0.00000000000E+00 -0.00000000000E+00 -0.45593999997E+02  0.45594000000E+02  0.51100000000E-03 0. -1.
    9900012    2    1    2    0    0  0.23343643919E+02 -0.11277296813E+02 -0.18563875938E+02  0.59301943100E+02  0.49999998307E+02 0.  0.
        -12    1    1    2    0    0 -0.23343643919E+02  0.11277296813E+02  0.18563875938E+02  0.31886056900E+02  0.00000000000E+00 0.  1.
         11    1    3    3    0    0  0.20539381044E+01  0.91038893771E+01 -0.19737216206E+01  0.95391320791E+01  0.51100000000E-03 0. -1.
        -11    1    3    3    0    0  0.22339806810E+02 -0.28277626447E+02 -0.19865146024E+02  0.41149910724E+02  0.51100000000E-03 0.  1.
        -12    1    3    3    0    0 -0.10501009955E+01  0.78964402566E+01  0.32749917073E+01  0.86129002960E+01  0.00000000000E+00 0.  1.
</event>
<event>
 7    1  0.1139627E-011  0.5930216E+02  0.7816164E-02  0.1266604E+00
        -11   -1    0    0    0    0  0.00000000000E+00  0.00000000000E+00  0.45593999997E+02  0.45594000000E+02  0.51100000000E-03 0.  1.
         11   -1    0    0    0    0 -0.00000000000E+00 -0.00000000000E+00 -0.45593999997E+02  0.45594000000E+02  0.51100000000E-03 0. -1.
    9900012    2    1    2    0    0  0.23462465419E+02 -0.78493456072E+01 -0.20114860186E+02  0.59302155016E+02  0.50000384791E+02 0.  0.
        -12    1    1    2    0    0 -0.23462465419E+02  0.78493456072E+01  0.20114860186E+02  0.31885844984E+02  0.00000000000E+00 0.  1.
         11    1    3    3    0    0  0.15020148671E+02 -0.14928877106E+02 -0.15951810827E+02  0.26512949792E+02  0.51100000000E-03 0. -1.
        -11    1    3    3    0    0  0.50331972889E+01  0.15579475180E+02 -0.12347823254E+02  0.20506629690E+02  0.51100000000E-03 0.  1.
        -12    1    3    3    0    0  0.34091194594E+01 -0.84999436814E+01  0.81847738944E+01  0.12282575535E+02  0.00000000000E+00 0.  1.
</event>
<event>
 7    1  0.1139627E-011  0.5930197E+02  0.7816164E-02  0.1266605E+00
        -11   -1    0    0    0    0  0.00000000000E+00  0.00000000000E+00  0.45593999997E+02  0.45594000000E+02  0.51100000000E-03 0.  1.
         11   -1    0    0    0    0 -0.00000000000E+00 -0.00000000000E+00 -0.45593999997E+02  0.45594000000E+02  0.51100000000E-03 0. -1.
    9900012    2    1    2    0    0 -0.10967597526E+02 -0.75039600253E+01 -0.28984846677E+02  0.59301969384E+02  0.50000046244E+02 0.  0.
        -12    1    1    2    0    0  0.10967597526E+02  0.75039600253E+01  0.28984846677E+02  0.31886030616E+02  0.00000000000E+00 0.  1.
         11    1    3    3    0    0 -0.60781207304E+01  0.12315237346E+02  0.45077405615E+01  0.14454353937E+02  0.51100000000E-03 0. -1.
        -11    1    3    3    0    0  0.44589887507E+01 -0.19534886778E+02 -0.19094088669E+02  0.27678125017E+02  0.51100000000E-03 0.  1.
         12    1    3    3    0    0 -0.93484655466E+01 -0.28431059326E+00 -0.14398498569E+02  0.17169490430E+02  0.00000000000E+00 0. -1.
</event>
<event>
 7    1  0.1139627E-011  0.5930209E+02  0.7816164E-02  0.1266604E+00
        -11   -1    0    0    0    0  0.00000000000E+00  0.00000000000E+00  0.45593999997E+02  0.45594000000E+02  0.51100000000E-03 0.  1.
         11   -1    0    0    0    0 -0.00000000000E+00 -0.00000000000E+00 -0.45593999997E+02  0.45594000000E+02  0.51100000000E-03 0. -1.
    9900012    2    1    2    0    0 -0.26240370668E+02 -0.17076463331E+02 -0.60455489220E+01  0.59302089091E+02  0.50000264561E+02 0.  0.
        -12    1    1    2    0    0  0.26240370668E+02  0.17076463331E+02  0.60455489220E+01  0.31885910909E+02  0.00000000000E+00 0.  1.
         11    1    3    3    0    0 -0.26649981290E+01  0.42688100504E+01 -0.20370558290E+01  0.54290469685E+01  0.51100000000E-03 0. -1.
        -11    1    3    3    0    0 -0.21376204914E+02 -0.12206076260E+02  0.17632093366E+02  0.30279054657E+02  0.51100000000E-03 0.  1.
        -12    1    3    3    0    0 -0.21991676250E+01 -0.91391971213E+01 -0.21640586459E+02  0.23593987466E+02  0.00000000000E+00 0.  1.
</event>
<event>
 7    1  0.1139627E-011  0.5930195E+02  0.7816164E-02  0.1266605E+00
        -11   -1    0    0    0    0  0.00000000000E+00  0.00000000000E+00  0.45593999997E+02  0.45594000000E+02  0.51100000000E-03 0.  1.
         11   -1    0    0    0    0 -0.00000000000E+00 -0.00000000000E+00 -0.45593999997E+02  0.45594000000E+02  0.51100000000E-03 0. -1.
    9900012    2    1    2    0    0 -0.16526440946E-01 -0.18305186407E+02 -0.26108242610E+02  0.59301945765E+02  0.50000003167E+02 0.  0.
        -12    1    1    2    0    0  0.16526440946E-01  0.18305186407E+02  0.26108242610E+02  0.31886054235E+02  0.00000000000E+00 0.  1.
         11    1    3    3    0    0 -0.29768889424E+01  0.69790951506E+01  0.81366468463E+01  0.11125406018E+02  0.51100000000E-03 0.  1.
        -11    1    3    3    0    0  0.65835397255E+00 -0.29042783565E+02 -0.32037670186E+02  0.43247300707E+02  0.51100000000E-03 0. -1.
        -12    1    3    3    0    0  0.23020085289E+01  0.37585020078E+01 -0.22072192701E+01  0.49292390402E+01  0.00000000000E+00 0.  1.
</event>
<event>
 7    1  0.1139627E-011  0.5930179E+02  0.7816164E-02  0.1266605E+00
        -11   -1    0    0    0    0  0.00000000000E+00  0.00000000000E+00  0.45593999997E+02  0.45594000000E+02  0.51100000000E-03 0. -1.
         11   -1    0    0    0    0 -0.00000000000E+00 -0.00000000000E+00 -0.45593999997E+02  0.45594000000E+02  0.51100000000E-03 0.  1.
    9900012    2    1    2    0    0 -0.40744286697E+01 -0.13174825218E+01  0.31597370725E+02  0.59301787213E+02  0.49999714007E+02 0.  0.
        -12    1    1    2    0    0  0.40744286697E+01  0.13174825218E+01 -0.31597370725E+02  0.31886212787E+02  0.00000000000E+00 0.  1.
         11    1    3    3    0    0 -0.16867093689E+02 -0.55583367131E+01  0.33473781044E+01  0.18072047393E+02  0.51100000000E-03 0. -1.
        -11    1    3    3    0    0  0.20689468504E+02  0.64532716647E+01  0.22310217953E+02  0.31103772239E+02  0.51100000000E-03 0.  1.
        -12    1    3    3    0    0 -0.78968034840E+01 -0.22124174734E+01  0.59397746673E+01  0.10125967580E+02  0.00000000000E+00 0.  1.
</event>
<event>
 7    1  0.1139627E-011  0.5930191E+02  0.7816164E-02  0.1266605E+00
        -11   -1    0    0    0    0  0.00000000000E+00  0.00000000000E+00  0.45593999997E+02  0.45594000000E+02  0.51100000000E-03 0.  1.
         11   -1    0    0    0    0 -0.00000000000E+00 -0.00000000000E+00 -0.45593999997E+02  0.45594000000E+02  0.51100000000E-03 0. -1.
    9900012    2    1    2    0    0 -0.14672526490E+02 -0.29256199514E+01 -0.28158136383E+02  0.59301906946E+02  0.49999932372E+02 0.  0.
        -12    1    1    2    0    0  0.14672526490E+02  0.29256199514E+01  0.28158136383E+02  0.31886093054E+02  0.00000000000E+00 0.  1.
         11    1    3    3    0    0  0.75867090021E+01 -0.75939709874E+01 -0.70882803411E+01  0.12863524684E+02  0.51100000000E-03 0. -1.
        -11    1    3    3    0    0 -0.29122990269E+02 -0.35457271068E+01 -0.98897349087E+01  0.30960096895E+02  0.51100000000E-03 0.  1.
        -12    1    3    3    0    0  0.68637547766E+01  0.82140781427E+01 -0.11180121133E+02  0.15478285367E+02  0.00000000000E+00 0.  1.
</event>
<event>
 7    1  0.1139627E-011  0.5930192E+02  0.7816164E-02  0.1266605E+00
        -11   -1    0    0    0    0  0.00000000000E+00  0.00000000000E+00  0.45593999997E+02  0.45594000000E+02  0.51100000000E-03 0.  1.
         11   -1    0    0    0    0 -0.00000000000E+00 -0.00000000000E+00 -0.45593999997E+02  0.45594000000E+02  0.51100000000E-03 0. -1.
    9900012    2    1    2    0    0  0.66607809773E+01 -0.11863754781E+02 -0.28837608217E+02  0.59301916384E+02  0.49999949584E+02 0.  0.
        -12    1    1    2    0    0 -0.66607809773E+01  0.11863754781E+02  0.28837608217E+02  0.31886083616E+02  0.00000000000E+00 0.  1.
         11    1    3    3    0    0  0.19443988567E+02 -0.40025271716E+01 -0.89828081396E+00  0.19871985906E+02  0.51100000000E-03 0.  1.
        -11    1    3    3    0    0 -0.52156892279E+01 -0.99997896837E+01 -0.29348340836E+02  0.31440806573E+02  0.51100000000E-03 0. -1.
         12    1    3    3    0    0 -0.75675183621E+01  0.21385620747E+01  0.14090134334E+01  0.79891239047E+01  0.00000000000E+00 0. -1.
</event>
<event>
 7    1  0.1139627E-011  0.5930192E+02  0.7816164E-02  0.1266605E+00
        -11   -1    0    0    0    0  0.00000000000E+00  0.00000000000E+00  0.45593999997E+02  0.45594000000E+02  0.51100000000E-03 0. -1.
         11   -1    0    0    0    0 -0.00000000000E+00 -0.00000000000E+00 -0.45593999997E+02  0.45594000000E+02  0.51100000000E-03 0.  1.
    9900012    2    1    2    0    0  0.28050788125E+02 -0.57008944010E+01  0.14049029345E+02  0.59301919385E+02  0.49999955058E+02 0.  0.
        -12    1    1    2    0    0 -0.28050788125E+02  0.57008944010E+01 -0.14049029345E+02  0.31886080615E+02  0.00000000000E+00 0.  1.
         11    1    3    3    0    0  0.20702568406E+02  0.79495831557E+01 -0.10439353611E+02  0.24510657173E+02  0.51100000000E-03 0.  1.
        -11    1    3    3    0    0 -0.15887115569E+01 -0.82895672030E+00  0.17635030002E+02  0.17725841506E+02  0.51100000000E-03 0. -1.
         12    1    3    3    0    0  0.89369312761E+01 -0.12821520836E+02  0.68533529531E+01  0.17065420707E+02  0.00000000000E+00 0. -1.
</event>
<event>
 7    1  0.1139627E-011  0.5930196E+02  0.7816164E-02  0.1266605E+00
        -11   -1    0    0    0    0  0.00000000000E+00  0.00000000000E+00  0.45593999997E+02  0.45594000000E+02  0.51100000000E-03 0.  1.
         11   -1    0    0    0    0 -0.00000000000E+00 -0.00000000000E+00 -0.45593999997E+02  0.45594000000E+02  0.51100000000E-03 0. -1.
    9900012    2    1    2    0    0  0.10367743820E+01  0.30171186448E+02 -0.10263731964E+02  0.59301959376E+02  0.50000027992E+02 0.  0.
        -12    1    1    2    0    0 -0.10367743820E+01 -0.30171186448E+02  0.10263731964E+02  0.31886040624E+02  0.00000000000E+00 0.  1.
         11    1    3    3    0    0 -0.63835115748E+01  0.74878167379E+01  0.13320822338E+02  0.16560825087E+02  0.51100000000E-03 0.  1.
        -11    1    3    3    0    0  0.13459003701E+02  0.12070543198E+02 -0.24554528168E+02  0.30492091557E+02  0.51100000000E-03 0. -1.
         12    1    3    3    0    0 -0.60387177437E+01  0.10612826512E+02  0.96997386580E+00  0.12249042733E+02  0.00000000000E+00 0. -1.
</event>
<event>
 7    1  0.1139627E-011  0.5930193E+02  0.7816164E-02  0.1266605E+00
        -11   -1    0    0    0    0  0.00000000000E+00  0.00000000000E+00  0.45593999997E+02  0.45594000000E+02  0.51100000000E-03 0. -1.
         11   -1    0    0    0    0 -0.00000000000E+00 -0.00000000000E+00 -0.45593999997E+02  0.45594000000E+02  0.51100000000E-03 0.  1.
    9900012    2    1    2    0    0 -0.71609550024E+01  0.22267397495E+02  0.21670374999E+02  0.59301930622E+02  0.49999975551E+02 0.  0.
        -12    1    1    2    0    0  0.71609550024E+01 -0.22267397495E+02 -0.21670374999E+02  0.31886069378E+02  0.00000000000E+00 0.  1.
         11    1    3    3    0    0 -0.13811600056E+02 -0.99115999159E-01  0.13675829408E+01  0.13879495793E+02  0.51100000000E-03 0. -1.
        -11    1    3    3    0    0  0.73212340616E+01  0.65354467349E+00  0.22421939579E+02  0.23595994651E+02  0.51100000000E-03 0.  1.
        -12    1    3    3    0    0 -0.67058900758E+00  0.21712968821E+02 -0.21191475207E+01  0.21826440178E+02  0.00000000000E+00 0.  1.
</event>
<event>
 7    1  0.1139627E-011  0.5930195E+02  0.7816164E-02  0.1266605E+00
        -11   -1    0    0    0    0  0.00000000000E+00  0.00000000000E+00  0.45593999997E+02  0.45594000000E+02  0.51100000000E-03 0. -1.
         11   -1    0    0    0    0 -0.00000000000E+00 -0.00000000000E+00 -0.45593999997E+02  0.45594000000E+02  0.51100000000E-03 0.  1.
    9900012    2    1    2    0    0  0.29367305200E+02  0.82672095179E+01  0.92701072047E+01  0.59301948889E+02  0.50000008865E+02 0.  0.
        -12    1    1    2    0    0 -0.29367305200E+02 -0.82672095179E+01 -0.92701072047E+01  0.31886051111E+02  0.00000000000E+00 0.  1.
         11    1    3    3    0    0  0.25810328669E+02 -0.50654926018E+01 -0.94592303816E+01  0.27951910864E+02  0.51100000000E-03 0. -1.
        -11    1    3    3    0    0 -0.65160812211E+01 -0.54666754784E+00  0.88120124656E+00  0.65980812200E+01  0.51100000000E-03 0.  1.
         12    1    3    3    0    0  0.10073057752E+02  0.13879369668E+02  0.17848136340E+02  0.24751956804E+02  0.00000000000E+00 0. -1.
</event>
<event>
 7    1  0.1139627E-011  0.5930191E+02  0.7816164E-02  0.1266605E+00
        -11   -1    0    0    0    0  0.00000000000E+00  0.00000000000E+00  0.45593999997E+02  0.45594000000E+02  0.51100000000E-03 0.  1.
         11   -1    0    0    0    0 -0.00000000000E+00 -0.00000000000E+00 -0.45593999997E+02  0.45594000000E+02  0.51100000000E-03 0. -1.
    9900012    2    1    2    0    0  0.24848284424E+02  0.18691508421E+02 -0.70649289312E+01  0.59301906688E+02  0.49999931902E+02 0.  0.
        -12    1    1    2    0    0 -0.24848284424E+02 -0.18691508421E+02  0.70649289312E+01  0.31886093312E+02  0.00000000000E+00 0.  1.
         11    1    3    3    0    0  0.11312166401E+02 -0.95439192806E+01 -0.15270768334E+02  0.21266120231E+02  0.51100000000E-03 0. -1.
        -11    1    3    3    0    0  0.17592404987E+02  0.19486894185E+02  0.10241466510E+02  0.28180124108E+02  0.51100000000E-03 0.  1.
        -12    1    3    3    0    0 -0.40562869636E+01  0.87485335168E+01 -0.20356271076E+01  0.98556623495E+01  0.00000000000E+00 0.  1.
</event>
<event>
 7    1  0.1139627E-011  0.5930195E+02  0.7816164E-02  0.1266605E+00
        -11   -1    0    0    0    0  0.00000000000E+00  0.00000000000E+00  0.45593999997E+02  0.45594000000E+02  0.51100000000E-03 0. -1.
         11   -1    0    0    0    0 -0.00000000000E+00 -0.00000000000E+00 -0.45593999997E+02  0.45594000000E+02  0.51100000000E-03 0.  1.
    9900012    2    1    2    0    0 -0.69983251462E+01  0.20958953654E+02  0.22988383438E+02  0.59301951856E+02  0.50000014277E+02 0.  0.
        -12    1    1    2    0    0  0.69983251462E+01 -0.20958953654E+02 -0.22988383438E+02  0.31886048144E+02  0.00000000000E+00 0.  1.
         11    1    3    3    0    0 -0.11024546037E+02  0.24968705659E+02 -0.36403220191E+01  0.27535955082E+02  0.51100000000E-03 0. -1.
        -11    1    3    3    0    0  0.41102001520E+00 -0.10043694170E+02  0.18165560659E+02  0.20761317982E+02  0.51100000000E-03 0.  1.
         12    1    3    3    0    0  0.36152008761E+01  0.60339421649E+01  0.84631447982E+01  0.11004678791E+02  0.00000000000E+00 0. -1.
</event>
<event>
 7    1  0.1139627E-011  0.5930196E+02  0.7816164E-02  0.1266605E+00
        -11   -1    0    0    0    0  0.00000000000E+00  0.00000000000E+00  0.45593999997E+02  0.45594000000E+02  0.51100000000E-03 0. -1.
         11   -1    0    0    0    0 -0.00000000000E+00 -0.00000000000E+00 -0.45593999997E+02  0.45594000000E+02  0.51100000000E-03 0.  1.
    9900012    2    1    2    0    0  0.10047170019E+02 -0.28741158692E+02  0.94720575515E+01  0.59301957558E+02  0.50000024677E+02 0.  0.
        -12    1    1    2    0    0 -0.10047170019E+02  0.28741158692E+02 -0.94720575515E+01  0.31886042442E+02  0.00000000000E+00 0.  1.
         11    1    3    3    0    0 -0.26175097641E+01  0.75152000734E+00  0.10625988384E+02  0.10969401491E+02  0.51100000000E-03 0. -1.
        -11    1    3    3    0    0 -0.13285040305E+01 -0.33442106949E+02 -0.33179644340E+01  0.33632548646E+02  0.51100000000E-03 0.  1.
        -12    1    3    3    0    0  0.13993183814E+02  0.39494282505E+01  0.21640336018E+01  0.14700007421E+02  0.00000000000E+00 0.  1.
</event>
<event>
 7    1  0.1139627E-011  0.5930194E+02  0.7816164E-02  0.1266605E+00
        -11   -1    0    0    0    0  0.00000000000E+00  0.00000000000E+00  0.45593999997E+02  0.45594000000E+02  0.51100000000E-03 0. -1.
         11   -1    0    0    0    0 -0.00000000000E+00 -0.00000000000E+00 -0.45593999997E+02  0.45594000000E+02  0.51100000000E-03 0.  1.
    9900012    2    1    2    0    0 -0.20765974016E+02  0.13711578698E+02  0.19937088434E+02  0.59301944075E+02  0.50000000087E+02 0.  0.
        -12    1    1    2    0    0  0.20765974016E+02 -0.13711578698E+02 -0.19937088434E+02  0.31886055925E+02  0.00000000000E+00 0.  1.
         11    1    3    3    0    0 -0.14959448699E+02  0.18344801069E+02  0.12953417201E+01  0.23706428286E+02  0.51100000000E-03 0. -1.
        -11    1    3    3    0    0  0.77714473367E+01 -0.12377128703E+02  0.10284051378E+02  0.17870378330E+02  0.51100000000E-03 0.  1.
        -12    1    3    3    0    0 -0.13577972653E+02  0.77439063318E+01  0.83576953354E+01  0.17725137460E+02  0.00000000000E+00 0.  1.
</event>
<event>
 7    1  0.1139627E-011  0.5930194E+02  0.7816164E-02  0.1266605E+00
        -11   -1    0    0    0    0  0.00000000000E+00  0.00000000000E+00  0.45593999997E+02  0.45594000000E+02  0.51100000000E-03 0. -1.
         11   -1    0    0    0    0 -0.00000000000E+00 -0.00000000000E+00 -0.45593999997E+02  0.45594000000E+02  0.51100000000E-03 0.  1.
    9900012    2    1    2    0    0 -0.29410312834E+02  0.13627245126E+01  0.12243243962E+02  0.59301944399E+02  0.50000000677E+02 0.  0.
        -12    1    1    2    0    0  0.29410312834E+02 -0.13627245126E+01 -0.12243243962E+02  0.31886055601E+02  0.00000000000E+00 0.  1.
         11    1    3    3    0    0 -0.13900497747E+02 -0.17278295741E+01  0.25790915570E+02  0.29349285491E+02  0.51100000000E-03 0. -1.
        -11    1    3    3    0    0 -0.16377416858E+02  0.76426216856E+01 -0.16488498814E+02  0.24464260515E+02  0.51100000000E-03 0.  1.
        -12    1    3    3    0    0  0.86760177080E+00 -0.45520675989E+01  0.29408272063E+01  0.54883983925E+01  0.00000000000E+00 0.  1.
</event>
<event>
 7    1  0.1139627E-011  0.5930193E+02  0.7816164E-02  0.1266605E+00
        -11   -1    0    0    0    0  0.00000000000E+00  0.00000000000E+00  0.45593999997E+02  0.45594000000E+02  0.51100000000E-03 0. -1.
         11   -1    0    0    0    0 -0.00000000000E+00 -0.00000000000E+00 -0.45593999997E+02  0.45594000000E+02  0.51100000000E-03 0.  1.
    9900012    2    1    2    0    0 -0.18856063141E+02  0.12474797229E+02  0.22484428364E+02  0.59301934047E+02  0.49999981798E+02 0.  0.
        -12    1    1    2    0    0  0.18856063141E+02 -0.12474797229E+02 -0.22484428364E+02  0.31886065953E+02  0.00000000000E+00 0.  1.
         11    1    3    3    0    0  0.17136323705E+01 -0.94947782277E+01  0.56025513756E+01  0.11156878223E+02  0.51100000000E-03 0. -1.
        -11    1    3    3    0    0 -0.65798429146E+01  0.15813627225E+02 -0.80310254757E+01  0.18917254274E+02  0.51100000000E-03 0.  1.
         12    1    3    3    0    0 -0.13989852597E+02  0.61559482317E+01  0.24912902464E+02  0.29227801551E+02  0.00000000000E+00 0. -1.
</event>
<event>
 7    1  0.1139627E-011  0.5930194E+02  0.7816164E-02  0.1266605E+00
        -11   -1    0    0    0    0  0.00000000000E+00  0.00000000000E+00  0.45593999997E+02  0.45594000000E+02  0.51100000000E-03 0. -1.
         11   -1    0    0    0    0 -0.00000000000E+00 -0.00000000000E+00 -0.45593999997E+02  0.45594000000E+02  0.51100000000E-03 0.  1.
    9900012    2    1    2    0    0  0.52598734641E+01 -0.26751463712E+02 -0.16535227618E+02  0.59301939849E+02  0.49999992379E+02 0.  0.
        -12    1    1    2    0    0 -0.52598734641E+01  0.26751463712E+02  0.16535227618E+02  0.31886060151E+02  0.00000000000E+00 0.  1.
         11    1    3    3    0    0 -0.13078738825E+02 -0.10048357644E+02 -0.27423581551E+01  0.16719552300E+02  0.51100000000E-03 0. -1.
        -11    1    3    3    0    0  0.18087029554E+02 -0.12590888894E+02  0.56150262151E+01  0.22742023676E+02  0.51100000000E-03 0.  1.
        -12    1    3    3    0    0  0.25158273472E+00 -0.41122171740E+01 -0.19407895678E+02  0.19840363873E+02  0.00000000000E+00 0.  1.
</event>
<event>
 7    1  0.1139627E-011  0.5930194E+02  0.7816164E-02  0.1266605E+00
        -11   -1    0    0    0    0  0.00000000000E+00  0.00000000000E+00  0.45593999997E+02  0.45594000000E+02  0.51100000000E-03 0.  1.
         11   -1    0    0    0    0 -0.00000000000E+00 -0.00000000000E+00 -0.45593999997E+02  0.45594000000E+02  0.51100000000E-03 0. -1.
    9900012    2    1    2    0    0 -0.16336699710E+02  0.13455526485E+02 -0.23849147372E+02  0.59301940652E+02  0.49999993843E+02 0.  0.
        -12    1    1    2    0    0  0.16336699710E+02 -0.13455526485E+02  0.23849147372E+02  0.31886059348E+02  0.00000000000E+00 0.  1.
         11    1    3    3    0    0 -0.62617203278E+01  0.17280359304E+02 -0.22093390881E+02  0.28739134991E+02  0.51100000000E-03 0. -1.
        -11    1    3    3    0    0 -0.67764535243E+01 -0.14295047881E+02  0.62148026504E+01  0.16996837604E+02  0.51100000000E-03 0.  1.
        -12    1    3    3    0    0 -0.32985258577E+01  0.10470215062E+02 -0.79705591409E+01  0.13565968056E+02  0.00000000000E+00 0.  1.
</event>
<event>
 7    1  0.1139627E-011  0.5930195E+02  0.7816164E-02  0.1266605E+00
        -11   -1    0    0    0    0  0.00000000000E+00  0.00000000000E+00  0.45593999997E+02  0.45594000000E+02  0.51100000000E-03 0. -1.
         11   -1    0    0    0    0 -0.00000000000E+00 -0.00000000000E+00 -0.45593999997E+02  0.45594000000E+02  0.51100000000E-03 0.  1.
    9900012    2    1    2    0    0 -0.26566574563E+02 -0.70454442387E+01  0.16164753064E+02  0.59301946463E+02  0.50000004442E+02 0.  0.
        -12    1    1    2    0    0  0.26566574563E+02  0.70454442387E+01 -0.16164753064E+02  0.31886053537E+02  0.00000000000E+00 0.  1.
         11    1    3    3    0    0  0.96411401607E+01 -0.67543108289E+01  0.13919698510E+02  0.18229928832E+02  0.51100000000E-03 0. -1.
        -11    1    3    3    0    0 -0.22067452798E+02  0.18208742729E+01 -0.79345668423E+01  0.23521169344E+02  0.51100000000E-03 0.  1.
         12    1    3    3    0    0 -0.14140261926E+02 -0.21120076827E+01  0.10179621397E+02  0.17550848286E+02  0.00000000000E+00 0. -1.
</event>
<event>
 7    1  0.1139627E-011  0.5930195E+02  0.7816164E-02  0.1266605E+00
        -11   -1    0    0    0    0  0.00000000000E+00  0.00000000000E+00  0.45593999997E+02  0.45594000000E+02  0.51100000000E-03 0.  1.
         11   -1    0    0    0    0 -0.00000000000E+00 -0.00000000000E+00 -0.45593999997E+02  0.45594000000E+02  0.51100000000E-03 0. -1.
    9900012    2    1    2    0    0 -0.29100081078E+01  0.48766435340E+01 -0.31376266865E+02  0.59301954123E+02  0.50000018410E+02 0.  0.
        -12    1    1    2    0    0  0.29100081078E+01 -0.48766435340E+01  0.31376266865E+02  0.31886045877E+02  0.00000000000E+00 0.  1.
         11    1    3    3    0    0 -0.44355628923E+01 -0.66987161890E+01 -0.99266316478E+01  0.12770475045E+02  0.51100000000E-03 0. -1.
        -11    1    3    3    0    0  0.17710216527E+02  0.13039642719E+02 -0.20795190695E+02  0.30267540500E+02  0.51100000000E-03 0.  1.
        -12    1    3    3    0    0 -0.16184661742E+02 -0.14642829959E+01 -0.65444452208E+00  0.16263938577E+02  0.00000000000E+00 0.  1.
</event>
<event>
 7    1  0.1139627E-011  0.5930210E+02  0.7816164E-02  0.1266604E+00
        -11   -1    0    0    0    0  0.00000000000E+00  0.00000000000E+00  0.45593999997E+02  0.45594000000E+02  0.51100000000E-03 0.  1.
         11   -1    0    0    0    0 -0.00000000000E+00 -0.00000000000E+00 -0.45593999997E+02  0.45594000000E+02  0.51100000000E-03 0. -1.
    9900012    2    1    2    0    0  0.68011173673E+01 -0.30154931166E+02 -0.78189336523E+01  0.59302097244E+02  0.50000279430E+02 0.  0.
        -12    1    1    2    0    0 -0.68011173673E+01  0.30154931166E+02  0.78189336523E+01  0.31885902756E+02  0.00000000000E+00 0.  1.
         11    1    3    3    0    0 -0.98969338029E+00 -0.28535661273E+02  0.12210402980E+01  0.28578915251E+02  0.51100000000E-03 0. -1.
        -11    1    3    3    0    0 -0.69730870416E+01  0.12599142492E+01 -0.13317025962E+02  0.15084909928E+02  0.51100000000E-03 0.  1.
        -12    1    3    3    0    0  0.14763897789E+02 -0.28791841426E+01  0.42770520121E+01  0.15638272065E+02  0.00000000000E+00 0.  1.
</event>
<event>
 7    1  0.1139627E-011  0.5930186E+02  0.7816164E-02  0.1266605E+00
        -11   -1    0    0    0    0  0.00000000000E+00  0.00000000000E+00  0.45593999997E+02  0.45594000000E+02  0.51100000000E-03 0. -1.
         11   -1    0    0    0    0 -0.00000000000E+00 -0.00000000000E+00 -0.45593999997E+02  0.45594000000E+02  0.51100000000E-03 0.  1.
    9900012    2    1    2    0    0 -0.21368908841E+02  0.21511118082E+02 -0.98675012694E+01  0.59301858064E+02  0.49999843223E+02 0.  0.
        -12    1    1    2    0    0  0.21368908841E+02 -0.21511118082E+02  0.98675012694E+01  0.31886141936E+02  0.00000000000E+00 0.  1.
         11    1    3    3    0    0 -0.73374650495E+01  0.13734312848E+01  0.13037478711E+02  0.15023333793E+02  0.51100000000E-03 0. -1.
        -11    1    3    3    0    0  0.65175044920E-01  0.13497827076E+02 -0.25142420405E+02  0.28536588577E+02  0.51100000000E-03 0.  1.
         12    1    3    3    0    0 -0.14096618837E+02  0.66398597216E+01  0.22374404244E+01  0.15741935694E+02  0.00000000000E+00 0. -1.
</event>
<event>
 7    1  0.1139627E-011  0.5930194E+02  0.7816164E-02  0.1266605E+00
        -11   -1    0    0    0    0  0.00000000000E+00  0.00000000000E+00  0.45593999997E+02  0.45594000000E+02  0.51100000000E-03 0. -1.
         11   -1    0    0    0    0 -0.00000000000E+00 -0.00000000000E+00 -0.45593999997E+02  0.45594000000E+02  0.51100000000E-03 0.  1.
    9900012    2    1    2    0    0 -0.36510514731E+01  0.27006064229E+02  0.16554858825E+02  0.59301936701E+02  0.49999986638E+02 0.  0.
        -12    1    1    2    0    0  0.36510514731E+01 -0.27006064229E+02 -0.16554858825E+02  0.31886063299E+02  0.00000000000E+00 0.  1.
         11    1    3    3    0    0  0.10945459594E+02  0.17624114085E+02  0.12113527622E+02  0.24023947109E+02  0.51100000000E-03 0. -1.
        -11    1    3    3    0    0  0.65268698625E+00  0.74813347029E+01 -0.11113179152E+02  0.13412647776E+02  0.51100000000E-03 0.  1.
         12    1    3    3    0    0 -0.15249198053E+02  0.19006154407E+01  0.15554510356E+02  0.21865341816E+02  0.00000000000E+00 0. -1.
</event>
<event>
 7    1  0.1139627E-011  0.5930192E+02  0.7816164E-02  0.1266605E+00
        -11   -1    0    0    0    0  0.00000000000E+00  0.00000000000E+00  0.45593999997E+02  0.45594000000E+02  0.51100000000E-03 0.  1.
         11   -1    0    0    0    0 -0.00000000000E+00 -0.00000000000E+00 -0.45593999997E+02  0.45594000000E+02  0.51100000000E-03 0. -1.
    9900012    2    1    2    0    0 -0.15267416346E+02 -0.21705089507E+02  0.17678164288E+02  0.59301915182E+02  0.49999947393E+02 0.  0.
        -12    1    1    2    0    0  0.15267416346E+02  0.21705089507E+02 -0.17678164288E+02  0.31886084818E+02  0.00000000000E+00 0.  1.
         11    1    3    3    0    0 -0.21774537334E+02 -0.15618869061E+01  0.49990270572E+01  0.22395540596E+02  0.51100000000E-03 0. -1.
        -11    1    3    3    0    0  0.93688593412E+01 -0.16607650138E+02 -0.41151402597E+01  0.19507023045E+02  0.51100000000E-03 0.  1.
        -12    1    3    3    0    0 -0.28617383536E+01 -0.35355524632E+01  0.16794277491E+02  0.17399351541E+02  0.00000000000E+00 0.  1.
</event>
<event>
 7    1  0.1139627E-011  0.5930195E+02  0.7816164E-02  0.1266605E+00
        -11   -1    0    0    0    0  0.00000000000E+00  0.00000000000E+00  0.45593999997E+02  0.45594000000E+02  0.51100000000E-03 0.  1.
         11   -1    0    0    0    0 -0.00000000000E+00 -0.00000000000E+00 -0.45593999997E+02  0.45594000000E+02  0.51100000000E-03 0. -1.
    9900012    2    1    2    0    0 -0.20529658510E+02  0.18600892910E+01 -0.24326807188E+02  0.59301947271E+02  0.50000005914E+02 0.  0.
        -12    1    1    2    0    0  0.20529658510E+02 -0.18600892910E+01  0.24326807188E+02  0.31886052729E+02  0.00000000000E+00 0.  1.
         11    1    3    3    0    0 -0.25595616877E+02  0.42137459507E+01 -0.20197410080E+02  0.32875927857E+02  0.51100000000E-03 0. -1.
        -11    1    3    3    0    0  0.14114241014E+02 -0.47030274030E+01  0.23363938579E+01  0.15059515353E+02  0.51100000000E-03 0.  1.
        -12    1    3    3    0    0 -0.90482826469E+01  0.23493707434E+01 -0.64657909651E+01  0.11366504060E+02  0.00000000000E+00 0.  1.
</event>
<event>
 7    1  0.1139627E-011  0.5930190E+02  0.7816164E-02  0.1266605E+00
        -11   -1    0    0    0    0  0.00000000000E+00  0.00000000000E+00  0.45593999997E+02  0.45594000000E+02  0.51100000000E-03 0.  1.
         11   -1    0    0    0    0 -0.00000000000E+00 -0.00000000000E+00 -0.45593999997E+02  0.45594000000E+02  0.51100000000E-03 0. -1.
    9900012    2    1    2    0    0  0.69369769845E+01  0.46754107463E+01 -0.30769181295E+02  0.59301895928E+02  0.49999912278E+02 0.  0.
        -12    1    1    2    0    0 -0.69369769845E+01 -0.46754107463E+01  0.30769181295E+02  0.31886104072E+02  0.00000000000E+00 0.  1.
         11    1    3    3    0    0 -0.11892508082E+02  0.78577354840E+01 -0.13328040274E+02  0.19514415523E+02  0.51100000000E-03 0. -1.
        -11    1    3    3    0    0  0.26660870681E+02 -0.23027674749E+00 -0.16526238091E+02  0.31368321577E+02  0.51100000000E-03 0.  1.
        -12    1    3    3    0    0 -0.78313856153E+01 -0.29520479902E+01 -0.91490292984E+00  0.84191588275E+01  0.00000000000E+00 0.  1.
</event>
<event>
 7    1  0.1139627E-011  0.5930195E+02  0.7816164E-02  0.1266605E+00
        -11   -1    0    0    0    0  0.00000000000E+00  0.00000000000E+00  0.45593999997E+02  0.45594000000E+02  0.51100000000E-03 0. -1.
         11   -1    0    0    0    0 -0.00000000000E+00 -0.00000000000E+00 -0.45593999997E+02  0.45594000000E+02  0.51100000000E-03 0.  1.
    9900012    2    1    2    0    0 -0.30282425566E+02 -0.13308086067E+01  0.98956547907E+01  0.59301947666E+02  0.50000006635E+02 0.  0.
        -12    1    1    2    0    0  0.30282425566E+02  0.13308086067E+01 -0.98956547907E+01  0.31886052334E+02  0.00000000000E+00 0.  1.
         11    1    3    3    0    0 -0.22802962902E+02  0.14523389163E+02  0.20966147277E+02  0.34212326459E+02  0.51100000000E-03 0. -1.
        -11    1    3    3    0    0 -0.53605613802E+00 -0.19009236514E+01 -0.91799048856E+01  0.93899691630E+01  0.51100000000E-03 0.  1.
        -12    1    3    3    0    0 -0.69434065267E+01 -0.13953274118E+02 -0.18905876007E+01  0.15699652043E+02  0.00000000000E+00 0.  1.
</event>
<event>
 7    1  0.1139627E-011  0.5930193E+02  0.7816164E-02  0.1266605E+00
        -11   -1    0    0    0    0  0.00000000000E+00  0.00000000000E+00  0.45593999997E+02  0.45594000000E+02  0.51100000000E-03 0. -1.
         11   -1    0    0    0    0 -0.00000000000E+00 -0.00000000000E+00 -0.45593999997E+02  0.45594000000E+02  0.51100000000E-03 0.  1.
    9900012    2    1    2    0    0  0.30479929484E+01  0.31515433259E+02 -0.37694433810E+01  0.59301929406E+02  0.49999973333E+02 0.  0.
        -12    1    1    2    0    0 -0.30479929484E+01 -0.31515433259E+02  0.37694433810E+01  0.31886070594E+02  0.00000000000E+00 0.  1.
         11    1    3    3    0    0 -0.12927690404E+02  0.13471954183E+02  0.13482806169E+02  0.23030518690E+02  0.51100000000E-03 0. -1.
        -11    1    3    3    0    0 -0.25081747129E+01 -0.28088070519E+00 -0.84136383397E+01  0.87840278195E+01  0.51100000000E-03 0.  1.
         12    1    3    3    0    0  0.18483858065E+02  0.18324359782E+02 -0.88386112098E+01  0.27487382896E+02  0.00000000000E+00 0. -1.
</event>
<event>
 7    1  0.1139627E-011  0.5930195E+02  0.7816164E-02  0.1266605E+00
        -11   -1    0    0    0    0  0.00000000000E+00  0.00000000000E+00  0.45593999997E+02  0.45594000000E+02  0.51100000000E-03 0. -1.
         11   -1    0    0    0    0 -0.00000000000E+00 -0.00000000000E+00 -0.45593999997E+02  0.45594000000E+02  0.51100000000E-03 0.  1.
    9900012    2    1    2    0    0  0.27445038290E+02  0.48884690040E+01  0.15478790634E+02  0.59301949517E+02  0.50000010011E+02 0.  0.
        -12    1    1    2    0    0 -0.27445038290E+02 -0.48884690040E+01 -0.15478790634E+02  0.31886050483E+02  0.00000000000E+00 0.  1.
         11    1    3    3    0    0  0.18267343119E+02  0.12538332237E+01  0.21923158848E+02  0.28563837567E+02  0.51100000000E-03 0. -1.
        -11    1    3    3    0    0 -0.63013584713E+01 -0.60319788400E+01  0.41246204917E+01  0.96490611860E+01  0.51100000000E-03 0.  1.
         12    1    3    3    0    0  0.15479053642E+02  0.96666146203E+01 -0.10568988706E+02  0.21089050764E+02  0.00000000000E+00 0. -1.
</event>
<event>
 7    1  0.1139627E-011  0.5930194E+02  0.7816164E-02  0.1266605E+00
        -11   -1    0    0    0    0  0.00000000000E+00  0.00000000000E+00  0.45593999997E+02  0.45594000000E+02  0.51100000000E-03 0.  1.
         11   -1    0    0    0    0 -0.00000000000E+00 -0.00000000000E+00 -0.45593999997E+02  0.45594000000E+02  0.51100000000E-03 0. -1.
    9900012    2    1    2    0    0 -0.31098268888E+02  0.41837175122E+01 -0.56669824622E+01  0.59301944893E+02  0.50000001577E+02 0.  0.
        -12    1    1    2    0    0  0.31098268888E+02 -0.41837175122E+01  0.56669824622E+01  0.31886055107E+02  0.00000000000E+00 0.  1.
         11    1    3    3    0    0 -0.17772473127E+02  0.11913464683E+02 -0.18843876060E+02  0.28511104978E+02  0.51100000000E-03 0. -1.
        -11    1    3    3    0    0  0.46823521634E+01  0.14284862839E+01  0.88737500437E+01  0.10134517006E+02  0.51100000000E-03 0.  1.
         12    1    3    3    0    0 -0.18008147924E+02 -0.91582334547E+01  0.43031435541E+01  0.20656322909E+02  0.00000000000E+00 0. -1.
</event>
<event>
 7    1  0.1139627E-011  0.5930195E+02  0.7816164E-02  0.1266605E+00
        -11   -1    0    0    0    0  0.00000000000E+00  0.00000000000E+00  0.45593999997E+02  0.45594000000E+02  0.51100000000E-03 0. -1.
         11   -1    0    0    0    0 -0.00000000000E+00 -0.00000000000E+00 -0.45593999997E+02  0.45594000000E+02  0.51100000000E-03 0.  1.
    9900012    2    1    2    0    0  0.84528065081E+01  0.22103973790E+02  0.21370178992E+02  0.59301950616E+02  0.50000012015E+02 0.  0.
        -12    1    1    2    0    0 -0.84528065081E+01 -0.22103973790E+02 -0.21370178992E+02  0.31886049384E+02  0.00000000000E+00 0.  1.
         11    1    3    3    0    0  0.71536372611E+01  0.62340368392E+01  0.31433614918E+01  0.99959223239E+01  0.51100000000E-03 0. -1.
        -11    1    3    3    0    0 -0.19636698250E+02  0.14574992543E+02  0.66282791121E+01  0.25337016597E+02  0.51100000000E-03 0.  1.
        -12    1    3    3    0    0  0.20935867497E+02  0.12949444076E+01  0.11598538388E+02  0.23969011695E+02  0.00000000000E+00 0.  1.
</event>
<event>
 7    1  0.1139627E-011  0.5930193E+02  0.7816164E-02  0.1266605E+00
        -11   -1    0    0    0    0  0.00000000000E+00  0.00000000000E+00  0.45593999997E+02  0.45594000000E+02  0.51100000000E-03 0. -1.
         11   -1    0    0    0    0 -0.00000000000E+00 -0.00000000000E+00 -0.45593999997E+02  0.45594000000E+02  0.51100000000E-03 0.  1.
    9900012    2    1    2    0    0 -0.13548402008E+02 -0.17287020087E+01  0.28812732265E+02  0.59301934890E+02  0.49999983336E+02 0.  0.
        -12    1    1    2    0    0  0.13548402008E+02  0.17287020087E+01 -0.28812732265E+02  0.31886065110E+02  0.00000000000E+00 0.  1.
         11    1    3    3    0    0 -0.11009161995E+02  0.19576039010E+02  0.16648593273E+02  0.27957085138E+02  0.51100000000E-03 0. -1.
        -11    1    3    3    0    0  0.69123301432E+01 -0.56726760699E+01 -0.75043152583E+00  0.89734446863E+01  0.51100000000E-03 0.  1.
         12    1    3    3    0    0 -0.94515701567E+01 -0.15632064949E+02  0.12914570518E+02  0.22371405067E+02  0.00000000000E+00 0. -1.
</event>
<event>
 7    1  0.1139627E-011  0.5930194E+02  0.7816164E-02  0.1266605E+00
        -11   -1    0    0    0    0  0.00000000000E+00  0.00000000000E+00  0.45593999997E+02  0.45594000000E+02  0.51100000000E-03 0. -1.
         11   -1    0    0    0    0 -0.00000000000E+00 -0.00000000000E+00 -0.45593999997E+02  0.45594000000E+02  0.51100000000E-03 0.  1.
    9900012    2    1    2    0    0  0.12672889782E+02 -0.24874743502E+02  0.15406686878E+02  0.59301937210E+02  0.49999987565E+02 0.  0.
        -12    1    1    2    0    0 -0.12672889782E+02  0.24874743502E+02 -0.15406686878E+02  0.31886062790E+02  0.00000000000E+00 0.  1.
         11    1    3    3    0    0  0.52938879015E+01  0.10462241907E+02  0.85625889875E+01  0.14519011167E+02  0.51100000000E-03 0. -1.
        -11    1    3    3    0    0  0.12857158554E+02 -0.33117149364E+02  0.11411344080E+02  0.37313146236E+02  0.51100000000E-03 0.  1.
         12    1    3    3    0    0 -0.54781566734E+01 -0.22198360453E+01 -0.45672461900E+01  0.74697798071E+01  0.00000000000E+00 0. -1.
</event>
<event>
 7    1  0.1139627E-011  0.5930196E+02  0.7816164E-02  0.1266605E+00
        -11   -1    0    0    0    0  0.00000000000E+00  0.00000000000E+00  0.45593999997E+02  0.45594000000E+02  0.51100000000E-03 0.  1.
         11   -1    0    0    0    0 -0.00000000000E+00 -0.00000000000E+00 -0.45593999997E+02  0.45594000000E+02  0.51100000000E-03 0. -1.
    9900012    2    1    2    0    0 -0.71522166526E+01 -0.71256013784E+01 -0.30245511047E+02  0.59301963298E+02  0.50000035144E+02 0.  0.
        -12    1    1    2    0    0  0.71522166526E+01  0.71256013784E+01  0.30245511047E+02  0.31886036702E+02  0.00000000000E+00 0.  1.
         11    1    3    3    0    0 -0.31266499687E+00 -0.20043486714E+00 -0.17813008191E+02  0.17816879486E+02  0.51100000000E-03 0. -1.
        -11    1    3    3    0    0 -0.19968127949E+02  0.11348764227E+01  0.23457845055E+01  0.20137447293E+02  0.51100000000E-03 0.  1.
        -12    1    3    3    0    0  0.13128576293E+02 -0.80600429340E+01 -0.14778287362E+02  0.21347636519E+02  0.00000000000E+00 0.  1.
</event>
<event>
 7    1  0.1139627E-011  0.5930189E+02  0.7816164E-02  0.1266605E+00
        -11   -1    0    0    0    0  0.00000000000E+00  0.00000000000E+00  0.45593999997E+02  0.45594000000E+02  0.51100000000E-03 0. -1.
         11   -1    0    0    0    0 -0.00000000000E+00 -0.00000000000E+00 -0.45593999997E+02  0.45594000000E+02  0.51100000000E-03 0.  1.
    9900012    2    1    2    0    0 -0.17918080452E+02  0.14607567942E+01  0.26335009929E+02  0.59301887577E+02  0.49999897048E+02 0.  0.
        -12    1    1    2    0    0  0.17918080452E+02 -0.14607567942E+01 -0.26335009929E+02  0.31886112423E+02  0.00000000000E+00 0.  1.
         11    1    3    3    0    0 -0.15922459185E+01  0.88223844954E+01  0.27818488427E+02  0.29227350442E+02  0.51100000000E-03 0. -1.
        -11    1    3    3    0    0  0.62006553098E+01 -0.16123529115E+01 -0.23118330476E+01  0.68111952316E+01  0.51100000000E-03 0.  1.
         12    1    3    3    0    0 -0.22526489843E+02 -0.57492747898E+01  0.82835454964E+00  0.23263341904E+02  0.00000000000E+00 0. -1.
</event>
<event>
 7    1  0.1139627E-011  0.5930196E+02  0.7816164E-02  0.1266605E+00
        -11   -1    0    0    0    0  0.00000000000E+00  0.00000000000E+00  0.45593999997E+02  0.45594000000E+02  0.51100000000E-03 0. -1.
         11   -1    0    0    0    0 -0.00000000000E+00 -0.00000000000E+00 -0.45593999997E+02  0.45594000000E+02  0.51100000000E-03 0.  1.
    9900012    2    1    2    0    0  0.21348403248E+02  0.21949925182E+02 -0.88975383631E+01  0.59301957197E+02  0.50000024017E+02 0.  0.
        -12    1    1    2    0    0 -0.21348403248E+02 -0.21949925182E+02  0.88975383631E+01  0.31886042803E+02  0.00000000000E+00 0.  1.
         11    1    3    3    0    0  0.17659341835E+02  0.28828285794E+02 -0.12336080859E+02  0.35987515989E+02  0.51100000000E-03 0. -1.
        -11    1    3    3    0    0 -0.15435892372E+01 -0.12602479599E+02 -0.32135002427E+01  0.13097012783E+02  0.51100000000E-03 0.  1.
         12    1    3    3    0    0  0.52326506499E+01  0.57241189875E+01  0.66520427384E+01  0.10217428424E+02  0.00000000000E+00 0. -1.
</event>
<event>
 7    1  0.1139627E-011  0.5930197E+02  0.7816164E-02  0.1266605E+00
        -11   -1    0    0    0    0  0.00000000000E+00  0.00000000000E+00  0.45593999997E+02  0.45594000000E+02  0.51100000000E-03 0. -1.
         11   -1    0    0    0    0 -0.00000000000E+00 -0.00000000000E+00 -0.45593999997E+02  0.45594000000E+02  0.51100000000E-03 0.  1.
    9900012    2    1    2    0    0 -0.16731989486E+02 -0.17207505939E+02  0.20991938505E+02  0.59301965205E+02  0.50000038622E+02 0.  0.
        -12    1    1    2    0    0  0.16731989486E+02  0.17207505939E+02 -0.20991938505E+02  0.31886034795E+02  0.00000000000E+00 0.  1.
         11    1    3    3    0    0 -0.24101394874E+02 -0.18151857735E+02  0.32357321036E+02  0.44242099848E+02  0.51100000000E-03 0. -1.
        -11    1    3    3    0    0  0.63236798681E+01 -0.12034223408E+01 -0.46746392955E+01  0.79554638588E+01  0.51100000000E-03 0.  1.
         12    1    3    3    0    0  0.10457255197E+01  0.21477741368E+01 -0.66907432353E+01  0.71044014981E+01  0.00000000000E+00 0. -1.
</event>
<event>
 7    1  0.1139627E-011  0.5930189E+02  0.7816164E-02  0.1266605E+00
        -11   -1    0    0    0    0  0.00000000000E+00  0.00000000000E+00  0.45593999997E+02  0.45594000000E+02  0.51100000000E-03 0.  1.
         11   -1    0    0    0    0 -0.00000000000E+00 -0.00000000000E+00 -0.45593999997E+02  0.45594000000E+02  0.51100000000E-03 0. -1.
    9900012    2    1    2    0    0 -0.15898014199E+02 -0.19721258630E+02 -0.19366179895E+02  0.59301892976E+02  0.49999906893E+02 0.  0.
        -12    1    1    2    0    0  0.15898014199E+02  0.19721258630E+02  0.19366179895E+02  0.31886107024E+02  0.00000000000E+00 0.  1.
         11    1    3    3    0    0 -0.17905952532E+02 -0.16272379818E+02 -0.77651520792E+01  0.25410845482E+02  0.51100000000E-03 0. -1.
        -11    1    3    3    0    0  0.11850328294E+02 -0.11062303117E+02 -0.13757742466E+02  0.21262180249E+02  0.51100000000E-03 0.  1.
         12    1    3    3    0    0 -0.98423899617E+01  0.76134243052E+01  0.21567146498E+01  0.12628867245E+02  0.00000000000E+00 0. -1.
</event>
<event>
 7    1  0.1139627E-011  0.5930194E+02  0.7816164E-02  0.1266605E+00
        -11   -1    0    0    0    0  0.00000000000E+00  0.00000000000E+00  0.45593999997E+02  0.45594000000E+02  0.51100000000E-03 0. -1.
         11   -1    0    0    0    0 -0.00000000000E+00 -0.00000000000E+00 -0.45593999997E+02  0.45594000000E+02  0.51100000000E-03 0.  1.
    9900012    2    1    2    0    0  0.31483869595E+02 -0.32210241598E+01  0.38873735763E+01  0.59301941689E+02  0.49999995734E+02 0.  0.
        -12    1    1    2    0    0 -0.31483869595E+02  0.32210241598E+01 -0.38873735763E+01  0.31886058311E+02  0.00000000000E+00 0.  1.
         11    1    3    3    0    0  0.68413170069E+01 -0.12149430769E+02  0.13114693942E+02  0.19141773268E+02  0.51100000000E-03 0. -1.
        -11    1    3    3    0    0  0.19547674786E+02  0.15154736734E+02 -0.16155640990E+02  0.29542890365E+02  0.51100000000E-03 0.  1.
        -12    1    3    3    0    0  0.50948778020E+01 -0.62263301255E+01  0.69283206246E+01  0.10617278056E+02  0.00000000000E+00 0.  1.
</event>
<event>
 7    1  0.1139627E-011  0.5930201E+02  0.7816164E-02  0.1266605E+00
        -11   -1    0    0    0    0  0.00000000000E+00  0.00000000000E+00  0.45593999997E+02  0.45594000000E+02  0.51100000000E-03 0.  1.
         11   -1    0    0    0    0 -0.00000000000E+00 -0.00000000000E+00 -0.45593999997E+02  0.45594000000E+02  0.51100000000E-03 0. -1.
    9900012    2    1    2    0    0 -0.29297728318E+02 -0.45556177769E+01 -0.11730549162E+02  0.59302010576E+02  0.50000121368E+02 0.  0.
        -12    1    1    2    0    0  0.29297728318E+02  0.45556177769E+01  0.11730549162E+02  0.31885989424E+02  0.00000000000E+00 0.  1.
         11    1    3    3    0    0 -0.15873846572E+02 -0.85213372730E+00 -0.28386997587E+02  0.32535008362E+02  0.51100000000E-03 0. -1.
        -11    1    3    3    0    0 -0.15447149794E+02 -0.64636535254E+01  0.16227520007E+02  0.23317925712E+02  0.51100000000E-03 0.  1.
         12    1    3    3    0    0  0.20232680475E+01  0.27601694757E+01  0.42892841768E+00  0.34490765017E+01  0.00000000000E+00 0. -1.
</event>
<event>
 7    1  0.1139627E-011  0.5930205E+02  0.7816164E-02  0.1266604E+00
        -11   -1    0    0    0    0  0.00000000000E+00  0.00000000000E+00  0.45593999997E+02  0.45594000000E+02  0.51100000000E-03 0. -1.
         11   -1    0    0    0    0 -0.00000000000E+00 -0.00000000000E+00 -0.45593999997E+02  0.45594000000E+02  0.51100000000E-03 0.  1.
    9900012    2    1    2    0    0  0.13831001211E+02 -0.12454062797E+02  0.25890418491E+02  0.59302046285E+02  0.50000186492E+02 0.  0.
        -12    1    1    2    0    0 -0.13831001211E+02  0.12454062797E+02 -0.25890418491E+02  0.31885953715E+02  0.00000000000E+00 0.  1.
         11    1    3    3    0    0  0.17849339840E+02 -0.12374916737E+02  0.53315502576E+01  0.22364322600E+02  0.51100000000E-03 0. -1.
        -11    1    3    3    0    0 -0.12111112527E+02  0.11027450286E+02  0.76288656571E+01  0.18068848827E+02  0.51100000000E-03 0.  1.
         12    1    3    3    0    0  0.80927738980E+01 -0.11106596347E+02  0.12930002577E+02  0.18868874858E+02  0.00000000000E+00 0. -1.
</event>
<event>
 7    1  0.1139627E-011  0.5930186E+02  0.7816164E-02  0.1266605E+00
        -11   -1    0    0    0    0  0.00000000000E+00  0.00000000000E+00  0.45593999997E+02  0.45594000000E+02  0.51100000000E-03 0. -1.
         11   -1    0    0    0    0 -0.00000000000E+00 -0.00000000000E+00 -0.45593999997E+02  0.45594000000E+02  0.51100000000E-03 0.  1.
    9900012    2    1    2    0    0 -0.10320128706E+02 -0.29901113948E+02  0.40179634460E+01  0.59301863481E+02  0.49999853102E+02 0.  0.
        -12    1    1    2    0    0  0.10320128706E+02  0.29901113948E+02 -0.40179634460E+01  0.31886136519E+02  0.00000000000E+00 0.  1.
         11    1    3    3    0    0 -0.21364245115E+01  0.39276770519E+01  0.15990399801E+02  0.16603729785E+02  0.51100000000E-03 0. -1.
        -11    1    3    3    0    0  0.15877730236E+01 -0.94295163046E+01 -0.13300867381E+02  0.16381388045E+02  0.51100000000E-03 0.  1.
         12    1    3    3    0    0 -0.97714772179E+01 -0.24399274695E+02  0.13284310262E+01  0.26316745651E+02  0.00000000000E+00 0. -1.
</event>
<event>
 7    1  0.1139627E-011  0.5930194E+02  0.7816164E-02  0.1266605E+00
        -11   -1    0    0    0    0  0.00000000000E+00  0.00000000000E+00  0.45593999997E+02  0.45594000000E+02  0.51100000000E-03 0. -1.
         11   -1    0    0    0    0 -0.00000000000E+00 -0.00000000000E+00 -0.45593999997E+02  0.45594000000E+02  0.51100000000E-03 0.  1.
    9900012    2    1    2    0    0  0.11766826373E+02  0.29566371765E+02 -0.20228759374E+01  0.59301943968E+02  0.49999999891E+02 0.  0.
        -12    1    1    2    0    0 -0.11766826373E+02 -0.29566371765E+02  0.20228759374E+01  0.31886056032E+02  0.00000000000E+00 0.  1.
         11    1    3    3    0    0  0.20360341050E+02  0.16035687588E+01  0.20434682883E+01  0.20525366826E+02  0.51100000000E-03 0. -1.
        -11    1    3    3    0    0 -0.78262241073E+01  0.29017703590E+02 -0.10786057656E+02  0.31931425672E+02  0.51100000000E-03 0.  1.
         12    1    3    3    0    0 -0.76729056974E+00 -0.10549005839E+01  0.67197134305E+01  0.68451514701E+01  0.00000000000E+00 0. -1.
</event>
<event>
 7    1  0.1139627E-011  0.5930195E+02  0.7816164E-02  0.1266605E+00
        -11   -1    0    0    0    0  0.00000000000E+00  0.00000000000E+00  0.45593999997E+02  0.45594000000E+02  0.51100000000E-03 0.  1.
         11   -1    0    0    0    0 -0.00000000000E+00 -0.00000000000E+00 -0.45593999997E+02  0.45594000000E+02  0.51100000000E-03 0. -1.
    9900012    2    1    2    0    0 -0.25371856799E+02 -0.17853819859E+02 -0.73640968425E+01  0.59301954097E+02  0.50000018364E+02 0.  0.
        -12    1    1    2    0    0  0.25371856799E+02  0.17853819859E+02  0.73640968425E+01  0.31886045903E+02  0.00000000000E+00 0.  1.
         11    1    3    3    0    0 -0.33091561670E+02 -0.15793683275E+02 -0.21644455629E+02  0.42579036449E+02  0.51100000000E-03 0. -1.
        -11    1    3    3    0    0  0.65281790293E+01 -0.26650888531E+01  0.13339982104E+02  0.15088901313E+02  0.51100000000E-03 0.  1.
         12    1    3    3    0    0  0.11915258418E+01  0.60495226878E+00  0.94037668202E+00  0.16340163351E+01  0.00000000000E+00 0. -1.
</event>
<event>
 7    1  0.1139627E-011  0.5930193E+02  0.7816164E-02  0.1266605E+00
        -11   -1    0    0    0    0  0.00000000000E+00  0.00000000000E+00  0.45593999997E+02  0.45594000000E+02  0.51100000000E-03 0.  1.
         11   -1    0    0    0    0 -0.00000000000E+00 -0.00000000000E+00 -0.45593999997E+02  0.45594000000E+02  0.51100000000E-03 0. -1.
    9900012    2    1    2    0    0  0.15942553306E+02  0.28301025648E+00 -0.27612979075E+02  0.59301926016E+02  0.49999967152E+02 0.  0.
        -12    1    1    2    0    0 -0.15942553306E+02 -0.28301025648E+00  0.27612979075E+02  0.31886073984E+02  0.00000000000E+00 0.  1.
         11    1    3    3    0    0  0.11312072967E+02  0.59081874911E+01 -0.35911106998E+02  0.38111379932E+02  0.51100000000E-03 0. -1.
        -11    1    3    3    0    0 -0.20456437031E+01  0.51561963876E+01  0.62304717990E+01  0.83420500146E+01  0.51100000000E-03 0.  1.
         12    1    3    3    0    0  0.66761240422E+01 -0.10781373622E+02  0.20676561242E+01  0.12848496070E+02  0.00000000000E+00 0. -1.
</event>
<event>
 7    1  0.1139627E-011  0.5930196E+02  0.7816164E-02  0.1266605E+00
        -11   -1    0    0    0    0  0.00000000000E+00  0.00000000000E+00  0.45593999997E+02  0.45594000000E+02  0.51100000000E-03 0. -1.
         11   -1    0    0    0    0 -0.00000000000E+00 -0.00000000000E+00 -0.45593999997E+02  0.45594000000E+02  0.51100000000E-03 0.  1.
    9900012    2    1    2    0    0  0.57177414194E+01  0.26328765676E+02  0.17053543490E+02  0.59301955803E+02  0.50000021476E+02 0.  0.
        -12    1    1    2    0    0 -0.57177414194E+01 -0.26328765676E+02 -0.17053543490E+02  0.31886044197E+02  0.00000000000E+00 0.  1.
         11    1    3    3    0    0 -0.80805203583E+01  0.15988037244E+02  0.73254039886E+01  0.19353906274E+02  0.51100000000E-03 0. -1.
        -11    1    3    3    0    0  0.13480359494E+02  0.65025054300E+00 -0.10773861023E+02  0.17269018486E+02  0.51100000000E-03 0.  1.
        -12    1    3    3    0    0  0.31790228378E+00  0.96904778884E+01  0.20502000525E+02  0.22679031044E+02  0.00000000000E+00 0.  1.
</event>
<event>
 7    1  0.1139627E-011  0.5930193E+02  0.7816164E-02  0.1266605E+00
        -11   -1    0    0    0    0  0.00000000000E+00  0.00000000000E+00  0.45593999997E+02  0.45594000000E+02  0.51100000000E-03 0.  1.
         11   -1    0    0    0    0 -0.00000000000E+00 -0.00000000000E+00 -0.45593999997E+02  0.45594000000E+02  0.51100000000E-03 0. -1.
    9900012    2    1    2    0    0  0.43226409697E+01  0.27013661083E+01 -0.31476003085E+02  0.59301931349E+02  0.49999976877E+02 0.  0.
        -12    1    1    2    0    0 -0.43226409697E+01 -0.27013661083E+01  0.31476003085E+02  0.31886068651E+02  0.00000000000E+00 0.  1.
         11    1    3    3    0    0 -0.54579751743E+01  0.13752163353E+02 -0.83868809362E+01  0.17007388453E+02  0.51100000000E-03 0.  1.
        -11    1    3    3    0    0  0.18270950080E+02 -0.88869759109E+01 -0.26058632462E+02  0.33043278949E+02  0.51100000000E-03 0. -1.
        -12    1    3    3    0    0 -0.84903339357E+01 -0.21638213342E+01  0.29695103132E+01  0.92512639465E+01  0.00000000000E+00 0.  1.
</event>
<event>
 7    1  0.1139627E-011  0.5930192E+02  0.7816164E-02  0.1266605E+00
        -11   -1    0    0    0    0  0.00000000000E+00  0.00000000000E+00  0.45593999997E+02  0.45594000000E+02  0.51100000000E-03 0.  1.
         11   -1    0    0    0    0 -0.00000000000E+00 -0.00000000000E+00 -0.45593999997E+02  0.45594000000E+02  0.51100000000E-03 0. -1.
    9900012    2    1    2    0    0 -0.27608191614E+02 -0.12538027428E+02 -0.98644784881E+01  0.59301916643E+02  0.49999950057E+02 0.  0.
        -12    1    1    2    0    0  0.27608191614E+02  0.12538027428E+02  0.98644784881E+01  0.31886083357E+02  0.00000000000E+00 0.  1.
         11    1    3    3    0    0 -0.78081667179E+01  0.12799323377E+02 -0.17252266045E+02  0.22856745839E+02  0.51100000000E-03 0. -1.
        -11    1    3    3    0    0 -0.64635557866E+00 -0.32728156518E+01  0.63917204260E+01  0.72099367605E+01  0.51100000000E-03 0.  1.
         12    1    3    3    0    0 -0.19153669318E+02 -0.22064535153E+02  0.99606713090E+00  0.29235234044E+02  0.00000000000E+00 0. -1.
</event>
<event>
 7    1  0.1139627E-011  0.5930194E+02  0.7816164E-02  0.1266605E+00
        -11   -1    0    0    0    0  0.00000000000E+00  0.00000000000E+00  0.45593999997E+02  0.45594000000E+02  0.51100000000E-03 0. -1.
         11   -1    0    0    0    0 -0.00000000000E+00 -0.00000000000E+00 -0.45593999997E+02  0.45594000000E+02  0.51100000000E-03 0.  1.
    9900012    2    1    2    0    0 -0.75535447852E+01  0.36241357283E+01  0.30765733390E+02  0.59301941140E+02  0.49999994734E+02 0.  0.
        -12    1    1    2    0    0  0.75535447852E+01 -0.36241357283E+01 -0.30765733390E+02  0.31886058860E+02  0.00000000000E+00 0.  1.
         11    1    3    3    0    0 -0.17633661531E+02 -0.54174966361E+01  0.13940833924E+02  0.23122329891E+02  0.51100000000E-03 0. -1.
        -11    1    3    3    0    0  0.13556918355E+02  0.13723233501E+02  0.10019977088E+01  0.19316344703E+02  0.51100000000E-03 0.  1.
        -12    1    3    3    0    0 -0.34768016089E+01 -0.46816011364E+01  0.15822901757E+02  0.16863266547E+02  0.00000000000E+00 0.  1.
</event>
<event>
 7    1  0.1139627E-011  0.5930193E+02  0.7816164E-02  0.1266605E+00
        -11   -1    0    0    0    0  0.00000000000E+00  0.00000000000E+00  0.45593999997E+02  0.45594000000E+02  0.51100000000E-03 0.  1.
         11   -1    0    0    0    0 -0.00000000000E+00 -0.00000000000E+00 -0.45593999997E+02  0.45594000000E+02  0.51100000000E-03 0. -1.
    9900012    2    1    2    0    0 -0.54319183342E+01  0.44157698438E+01 -0.31108145033E+02  0.59301930197E+02  0.49999974776E+02 0.  0.
        -12    1    1    2    0    0  0.54319183342E+01 -0.44157698438E+01  0.31108145033E+02  0.31886069803E+02  0.00000000000E+00 0.  1.
         11    1    3    3    0    0 -0.15577432203E+02  0.38572309308E+01 -0.35492492752E+02  0.38951914799E+02  0.51100000000E-03 0. -1.
        -11    1    3    3    0    0 -0.17077667807E+01 -0.54535904153E+01  0.41403472246E+01  0.70569533934E+01  0.51100000000E-03 0.  1.
         12    1    3    3    0    0  0.11853280649E+02  0.60121293283E+01  0.24400049448E+00  0.13293062005E+02  0.00000000000E+00 0. -1.
</event>
<event>
 7    1  0.1139627E-011  0.5930201E+02  0.7816164E-02  0.1266605E+00
        -11   -1    0    0    0    0  0.00000000000E+00  0.00000000000E+00  0.45593999997E+02  0.45594000000E+02  0.51100000000E-03 0.  1.
         11   -1    0    0    0    0 -0.00000000000E+00 -0.00000000000E+00 -0.45593999997E+02  0.45594000000E+02  0.51100000000E-03 0. -1.
    9900012    2    1    2    0    0 -0.24022362921E+01 -0.13939309342E+02 -0.28576934405E+02  0.59302011477E+02  0.50000123010E+02 0.  0.
        -12    1    1    2    0    0  0.24022362921E+01  0.13939309342E+02  0.28576934405E+02  0.31885988523E+02  0.00000000000E+00 0.  1.
         11    1    3    3    0    0  0.56474161851E+01 -0.27961503253E+02 -0.16743052755E+02  0.33076710682E+02  0.51100000000E-03 0. -1.
        -11    1    3    3    0    0  0.24160376088E+01  0.11295300688E+02 -0.99539396096E+01  0.15248015260E+02  0.51100000000E-03 0.  1.
         12    1    3    3    0    0 -0.10465690086E+02  0.27268932228E+01 -0.18799420407E+01  0.10977285534E+02  0.00000000000E+00 0. -1.
</event>
<event>
 7    1  0.1139627E-011  0.5930176E+02  0.7816164E-02  0.1266605E+00
        -11   -1    0    0    0    0  0.00000000000E+00  0.00000000000E+00  0.45593999997E+02  0.45594000000E+02  0.51100000000E-03 0.  1.
         11   -1    0    0    0    0 -0.00000000000E+00 -0.00000000000E+00 -0.45593999997E+02  0.45594000000E+02  0.51100000000E-03 0. -1.
    9900012    2    1    2    0    0  0.13052585198E+02 -0.14652966051E+02 -0.25132711404E+02  0.59301755678E+02  0.49999656494E+02 0.  0.
        -12    1    1    2    0    0 -0.13052585198E+02  0.14652966051E+02  0.25132711404E+02  0.31886244322E+02  0.00000000000E+00 0.  1.
         11    1    3    3    0    0  0.82392281457E+01 -0.80290152460E+01  0.10216916359E+02  0.15386206368E+02  0.51100000000E-03 0. -1.
        -11    1    3    3    0    0 -0.62360739803E+01 -0.79000161265E+01 -0.29862255508E+02  0.31512746275E+02  0.51100000000E-03 0.  1.
         12    1    3    3    0    0  0.11049431033E+02  0.12760653215E+01 -0.54873722548E+01  0.12402803035E+02  0.00000000000E+00 0. -1.
</event>
<event>
 7    1  0.1139627E-011  0.5930193E+02  0.7816164E-02  0.1266605E+00
        -11   -1    0    0    0    0  0.00000000000E+00  0.00000000000E+00  0.45593999997E+02  0.45594000000E+02  0.51100000000E-03 0. -1.
         11   -1    0    0    0    0 -0.00000000000E+00 -0.00000000000E+00 -0.45593999997E+02  0.45594000000E+02  0.51100000000E-03 0.  1.
    9900012    2    1    2    0    0 -0.17018526967E+02 -0.66515613438E+01  0.26131356881E+02  0.59301931869E+02  0.49999977825E+02 0.  0.
        -12    1    1    2    0    0  0.17018526967E+02  0.66515613438E+01 -0.26131356881E+02  0.31886068131E+02  0.00000000000E+00 0.  1.
         11    1    3    3    0    0 -0.13123847959E+02  0.84612119429E+00  0.38316556873E+02  0.40510613883E+02  0.51100000000E-03 0. -1.
        -11    1    3    3    0    0 -0.68999051904E+01 -0.48712611124E+01 -0.33312617551E+01  0.90793822259E+01  0.51100000000E-03 0.  1.
         12    1    3    3    0    0  0.30052261820E+01 -0.26264214257E+01 -0.88539382365E+01  0.97119357600E+01  0.00000000000E+00 0. -1.
</event>
<event>
 7    1  0.1139627E-011  0.5930162E+02  0.7816164E-02  0.1266606E+00
        -11   -1    0    0    0    0  0.00000000000E+00  0.00000000000E+00  0.45593999997E+02  0.45594000000E+02  0.51100000000E-03 0.  1.
         11   -1    0    0    0    0 -0.00000000000E+00 -0.00000000000E+00 -0.45593999997E+02  0.45594000000E+02  0.51100000000E-03 0. -1.
    9900012    2    1    2    0    0 -0.19366428518E+02  0.18837957733E+02 -0.16935583959E+02  0.59301620319E+02  0.49999409630E+02 0.  0.
        -12    1    1    2    0    0  0.19366428518E+02 -0.18837957733E+02  0.16935583959E+02  0.31886379681E+02  0.00000000000E+00 0.  1.
         11    1    3    3    0    0 -0.24733343892E+02  0.26139194392E+01 -0.25155817555E+02  0.35374935082E+02  0.51100000000E-03 0.  1.
        -11    1    3    3    0    0  0.99630207868E+01  0.74270820345E+01  0.57837301028E+01  0.13706745234E+02  0.51100000000E-03 0. -1.
        -12    1    3    3    0    0 -0.45961054135E+01  0.87969562593E+01  0.24365034938E+01  0.10219940003E+02  0.00000000000E+00 0.  1.
</event>
<event>
 7    1  0.1139627E-011  0.5930195E+02  0.7816164E-02  0.1266605E+00
        -11   -1    0    0    0    0  0.00000000000E+00  0.00000000000E+00  0.45593999997E+02  0.45594000000E+02  0.51100000000E-03 0. -1.
         11   -1    0    0    0    0 -0.00000000000E+00 -0.00000000000E+00 -0.45593999997E+02  0.45594000000E+02  0.51100000000E-03 0.  1.
    9900012    2    1    2    0    0  0.81492921005E+01  0.21778709938E+02  0.21817353691E+02  0.59301951478E+02  0.50000013587E+02 0.  0.
        -12    1    1    2    0    0 -0.81492921005E+01 -0.21778709938E+02 -0.21817353691E+02  0.31886048522E+02  0.00000000000E+00 0.  1.
         11    1    3    3    0    0 -0.71167299941E+01  0.18199126860E+02  0.30965534418E+02  0.36615848841E+02  0.51100000000E-03 0. -1.
        -11    1    3    3    0    0  0.16380892547E+01 -0.38672783884E+01 -0.51583887362E+01  0.66519285289E+01  0.51100000000E-03 0.  1.
         12    1    3    3    0    0  0.13627932840E+02  0.74468614658E+01 -0.39897919913E+01  0.16034174108E+02  0.00000000000E+00 0. -1.
</event>
<event>
 7    1  0.1139627E-011  0.5930185E+02  0.7816164E-02  0.1266605E+00
        -11   -1    0    0    0    0  0.00000000000E+00  0.00000000000E+00  0.45593999997E+02  0.45594000000E+02  0.51100000000E-03 0.  1.
         11   -1    0    0    0    0 -0.00000000000E+00 -0.00000000000E+00 -0.45593999997E+02  0.45594000000E+02  0.51100000000E-03 0. -1.
    9900012    2    1    2    0    0 -0.13229870044E+02  0.29002805981E+02 -0.73119179275E+00  0.59301845362E+02  0.49999820057E+02 0.  0.
        -12    1    1    2    0    0  0.13229870044E+02 -0.29002805981E+02  0.73119179275E+00  0.31886154638E+02  0.00000000000E+00 0.  1.
         11    1    3    3    0    0 -0.18782818599E+02  0.22770413739E+02  0.92802924290E+01  0.30942040078E+02  0.51100000000E-03 0. -1.
        -11    1    3    3    0    0  0.11542827792E+01 -0.47639727634E+01  0.64371121211E+01  0.80909961034E+01  0.51100000000E-03 0.  1.
         12    1    3    3    0    0  0.43986657759E+01  0.10996365006E+02 -0.16448596343E+02  0.20268809180E+02  0.00000000000E+00 0. -1.
</event>
<event>
 7    1  0.1271709E-011  0.5930193E+02  0.7816164E-02  0.1266605E+00
        -11   -1    0    0    0    0  0.00000000000E+00  0.00000000000E+00  0.45593999997E+02  0.45594000000E+02  0.51100000000E-03 0. -1.
         11   -1    0    0    0    0 -0.00000000000E+00 -0.00000000000E+00 -0.45593999997E+02  0.45594000000E+02  0.51100000000E-03 0.  1.
    9900012    2    1    2    0    0  0.25589383428E+01  0.22222262167E+02  0.22723208661E+02  0.59301932304E+02  0.49999978618E+02 0.  0.
        -12    1    1    2    0    0 -0.25589383428E+01 -0.22222262167E+02 -0.22723208661E+02  0.31886067696E+02  0.00000000000E+00 0.  1.
         11    1    3    3    0    0 -0.92797205671E+01  0.21971871756E+02  0.21898051615E+02  0.32379021404E+02  0.51100000000E-03 0. -1.
        -11    1    3    3    0    0  0.35725341061E+01  0.29578901906E+01 -0.11176492506E+02  0.12100665243E+02  0.51100000000E-03 0.  1.
         12    1    3    3    0    0  0.82661248038E+01 -0.27074997796E+01  0.12001649552E+02  0.14822245657E+02  0.00000000000E+00 0. -1.
</event>
<event>
 7    1  0.1139627E-011  0.5930193E+02  0.7816164E-02  0.1266605E+00
        -11   -1    0    0    0    0  0.00000000000E+00  0.00000000000E+00  0.45593999997E+02  0.45594000000E+02  0.51100000000E-03 0.  1.
         11   -1    0    0    0    0 -0.00000000000E+00 -0.00000000000E+00 -0.45593999997E+02  0.45594000000E+02  0.51100000000E-03 0. -1.
    9900012    2    1    2    0    0 -0.31817797141E+02 -0.19025923908E+01 -0.85397423249E+00  0.59301931809E+02  0.49999977715E+02 0.  0.
        -12    1    1    2    0    0  0.31817797141E+02  0.19025923908E+01  0.85397423249E+00  0.31886068191E+02  0.00000000000E+00 0.  1.
         11    1    3    3    0    0 -0.17229326697E+02  0.16434653282E+02  0.14715906155E+02  0.27991166842E+02  0.51100000000E-03 0. -1.
        -11    1    3    3    0    0 -0.28143390627E+01 -0.26142287090E+01  0.25306317433E+01  0.45998688442E+01  0.51100000000E-03 0.  1.
         12    1    3    3    0    0 -0.11774131381E+02 -0.15723016964E+02 -0.18100512131E+02  0.26710896122E+02  0.00000000000E+00 0. -1.
</event>
<event>
 7    1  0.1139627E-011  0.5930195E+02  0.7816164E-02  0.1266605E+00
        -11   -1    0    0    0    0  0.00000000000E+00  0.00000000000E+00  0.45593999997E+02  0.45594000000E+02  0.51100000000E-03 0. -1.
         11   -1    0    0    0    0 -0.00000000000E+00 -0.00000000000E+00 -0.45593999997E+02  0.45594000000E+02  0.51100000000E-03 0.  1.
    9900012    2    1    2    0    0 -0.79994316234E+01  0.62186404458E+01  0.30233388553E+02  0.59301950092E+02  0.50000011060E+02 0.  0.
        -12    1    1    2    0    0  0.79994316234E+01 -0.62186404458E+01 -0.30233388553E+02  0.31886049908E+02  0.00000000000E+00 0.  1.
         11    1    3    3    0    0 -0.39872161116E+01  0.17836684351E+01  0.11696975616E+02  0.12485936258E+02  0.51100000000E-03 0. -1.
        -11    1    3    3    0    0 -0.86855438980E+00  0.19735041916E+02 -0.32388874765E+01  0.20017908445E+02  0.51100000000E-03 0.  1.
        -12    1    3    3    0    0 -0.31436611220E+01 -0.15300069905E+02  0.21775300414E+02  0.26798105390E+02  0.00000000000E+00 0.  1.
</event>
<event>
 7    1  0.1139627E-011  0.5930196E+02  0.7816164E-02  0.1266605E+00
        -11   -1    0    0    0    0  0.00000000000E+00  0.00000000000E+00  0.45593999997E+02  0.45594000000E+02  0.51100000000E-03 0.  1.
         11   -1    0    0    0    0 -0.00000000000E+00 -0.00000000000E+00 -0.45593999997E+02  0.45594000000E+02  0.51100000000E-03 0. -1.
    9900012    2    1    2    0    0  0.41872730329E+00 -0.29778966050E+02 -0.11391119489E+02  0.59301956740E+02  0.50000023184E+02 0.  0.
        -12    1    1    2    0    0 -0.41872730329E+00  0.29778966050E+02  0.11391119489E+02  0.31886043260E+02  0.00000000000E+00 0.  1.
         11    1    3    3    0    0  0.10673868028E+02 -0.23932725508E+01 -0.11424997703E+02  0.15817388689E+02  0.51100000000E-03 0. -1.
        -11    1    3    3    0    0 -0.19070667172E+02 -0.57753491712E+01 -0.21585879154E+01  0.20042567363E+02  0.51100000000E-03 0.  1.
        -12    1    3    3    0    0  0.88155264482E+01 -0.21610344328E+02  0.21924661290E+01  0.23442000688E+02  0.00000000000E+00 0.  1.
</event>
<event>
 7    1  0.1139627E-011  0.5930205E+02  0.7816164E-02  0.1266604E+00
        -11   -1    0    0    0    0  0.00000000000E+00  0.00000000000E+00  0.45593999997E+02  0.45594000000E+02  0.51100000000E-03 0.  1.
         11   -1    0    0    0    0 -0.00000000000E+00 -0.00000000000E+00 -0.45593999997E+02  0.45594000000E+02  0.51100000000E-03 0. -1.
    9900012    2    1    2    0    0  0.67640896780E+01  0.15204016258E+02 -0.27199243887E+02  0.59302048743E+02  0.50000190975E+02 0.  0.
        -12    1    1    2    0    0 -0.67640896780E+01 -0.15204016258E+02  0.27199243887E+02  0.31885951257E+02  0.00000000000E+00 0.  1.
         11    1    3    3    0    0  0.79043157258E+01  0.13669892152E+02 -0.41549811414E+02  0.44449195576E+02  0.51100000000E-03 0. -1.
        -11    1    3    3    0    0  0.10591859975E+01  0.10916013810E+01  0.45023960726E+01  0.47523719559E+01  0.51100000000E-03 0.  1.
         12    1    3    3    0    0 -0.21994120454E+01  0.44252272463E+00  0.98481714545E+01  0.10100481212E+02  0.00000000000E+00 0. -1.
</event>
<event>
 7    1  0.1139627E-011  0.5930192E+02  0.7816164E-02  0.1266605E+00
        -11   -1    0    0    0    0  0.00000000000E+00  0.00000000000E+00  0.45593999997E+02  0.45594000000E+02  0.51100000000E-03 0.  1.
         11   -1    0    0    0    0 -0.00000000000E+00 -0.00000000000E+00 -0.45593999997E+02  0.45594000000E+02  0.51100000000E-03 0. -1.
    9900012    2    1    2    0    0  0.24147605235E+02 -0.20683668407E+02  0.24085655165E+01  0.59301918942E+02  0.49999954250E+02 0.  0.
        -12    1    1    2    0    0 -0.24147605235E+02  0.20683668407E+02 -0.24085655165E+01  0.31886081058E+02  0.00000000000E+00 0.  1.
         11    1    3    3    0    0  0.34045081789E+02 -0.23068833048E+02  0.88393438610E+01  0.42063911520E+02  0.51100000000E-03 0. -1.
        -11    1    3    3    0    0 -0.50788924945E+01  0.29328507248E+01  0.30339624256E+01  0.66031576239E+01  0.51100000000E-03 0.  1.
         12    1    3    3    0    0 -0.48185840594E+01 -0.54768608407E+00 -0.94647407700E+01  0.10634849798E+02  0.00000000000E+00 0. -1.
</event>
<event>
 7    1  0.1215678E-011  0.5930192E+02  0.7816164E-02  0.1266605E+00
        -11   -1    0    0    0    0  0.00000000000E+00  0.00000000000E+00  0.45593999997E+02  0.45594000000E+02  0.51100000000E-03 0.  1.
         11   -1    0    0    0    0 -0.00000000000E+00 -0.00000000000E+00 -0.45593999997E+02  0.45594000000E+02  0.51100000000E-03 0. -1.
    9900012    2    1    2    0    0 -0.21822880968E+02 -0.22484756979E+02 -0.59092737296E+01  0.59301922377E+02  0.49999960515E+02 0.  0.
        -12    1    1    2    0    0  0.21822880968E+02  0.22484756979E+02  0.59092737296E+01  0.31886077623E+02  0.00000000000E+00 0.  1.
         11    1    3    3    0    0 -0.23426382269E+02 -0.18270724786E+02 -0.14131837536E+02  0.32898686947E+02  0.51100000000E-03 0. -1.
        -11    1    3    3    0    0  0.60501906461E+01  0.59771805335E+01 -0.44050938347E+01  0.95779092676E+01  0.51100000000E-03 0.  1.
         12    1    3    3    0    0 -0.44466893455E+01 -0.10191212726E+02  0.12627657642E+02  0.16825326163E+02  0.00000000000E+00 0. -1.
</event>
<event>
 7    1  0.1139627E-011  0.5930195E+02  0.7816164E-02  0.1266605E+00
        -11   -1    0    0    0    0  0.00000000000E+00  0.00000000000E+00  0.45593999997E+02  0.45594000000E+02  0.51100000000E-03 0. -1.
         11   -1    0    0    0    0 -0.00000000000E+00 -0.00000000000E+00 -0.45593999997E+02  0.45594000000E+02  0.51100000000E-03 0.  1.
    9900012    2    1    2    0    0 -0.13755898511E+02 -0.13256490988E+02  0.25529607602E+02  0.59301950362E+02  0.50000011553E+02 0.  0.
        -12    1    1    2    0    0  0.13755898511E+02  0.13256490988E+02 -0.25529607602E+02  0.31886049638E+02  0.00000000000E+00 0.  1.
         11    1    3    3    0    0  0.13272072930E+02 -0.36381656661E+01  0.14062701770E+02  0.19675968861E+02  0.51100000000E-03 0. -1.
        -11    1    3    3    0    0 -0.26643885869E+02  0.11999180817E+01  0.53839440048E+01  0.27208882941E+02  0.51100000000E-03 0.  1.
         12    1    3    3    0    0 -0.38408557243E+00 -0.10818243404E+02  0.60829618274E+01  0.12417098561E+02  0.00000000000E+00 0. -1.
</event>
<event>
 7    1  0.1139627E-011  0.5930194E+02  0.7816164E-02  0.1266605E+00
        -11   -1    0    0    0    0  0.00000000000E+00  0.00000000000E+00  0.45593999997E+02  0.45594000000E+02  0.51100000000E-03 0. -1.
         11   -1    0    0    0    0 -0.00000000000E+00 -0.00000000000E+00 -0.45593999997E+02  0.45594000000E+02  0.51100000000E-03 0.  1.
    9900012    2    1    2    0    0  0.11608918787E+02 -0.14714614579E+01  0.29661227325E+02  0.59301943476E+02  0.49999998994E+02 0.  0.
        -12    1    1    2    0    0 -0.11608918787E+02  0.14714614579E+01 -0.29661227325E+02  0.31886056524E+02  0.00000000000E+00 0.  1.
         11    1    3    3    0    0  0.10687707508E+01 -0.18142708038E+02  0.19188538221E+02  0.26429152941E+02  0.51100000000E-03 0. -1.
        -11    1    3    3    0    0  0.55334164572E+01  0.13915553560E+02 -0.54650360747E+01  0.15941391035E+02  0.51100000000E-03 0.  1.
        -12    1    3    3    0    0  0.50067315791E+01  0.27556930203E+01  0.15937725179E+02  0.16931399499E+02  0.00000000000E+00 0.  1.
</event>
<event>
 7    1  0.1139627E-011  0.5930180E+02  0.7816164E-02  0.1266605E+00
        -11   -1    0    0    0    0  0.00000000000E+00  0.00000000000E+00  0.45593999997E+02  0.45594000000E+02  0.51100000000E-03 0.  1.
         11   -1    0    0    0    0 -0.00000000000E+00 -0.00000000000E+00 -0.45593999997E+02  0.45594000000E+02  0.51100000000E-03 0. -1.
    9900012    2    1    2    0    0 -0.12977652645E+02 -0.22742852084E+02 -0.18195406477E+02  0.59301802266E+02  0.49999741459E+02 0.  0.
        -12    1    1    2    0    0  0.12977652645E+02  0.22742852084E+02  0.18195406477E+02  0.31886197734E+02  0.00000000000E+00 0.  1.
         11    1    3    3    0    0 -0.81091818939E+01 -0.98961608985E+01 -0.25586293098E+00  0.12796808103E+02  0.51100000000E-03 0. -1.
        -11    1    3    3    0    0  0.16931770519E+02  0.69359517688E+00 -0.98323733891E+01  0.19591873159E+02  0.51100000000E-03 0.  1.
        -12    1    3    3    0    0 -0.21800241270E+02 -0.13540286363E+02 -0.81071701565E+01  0.26913121004E+02  0.00000000000E+00 0.  1.
</event>
<event>
 7    1  0.1139627E-011  0.5930195E+02  0.7816164E-02  0.1266605E+00
        -11   -1    0    0    0    0  0.00000000000E+00  0.00000000000E+00  0.45593999997E+02  0.45594000000E+02  0.51100000000E-03 0. -1.
         11   -1    0    0    0    0 -0.00000000000E+00 -0.00000000000E+00 -0.45593999997E+02  0.45594000000E+02  0.51100000000E-03 0.  1.
    9900012    2    1    2    0    0 -0.28554619336E+02 -0.46271143750E+01  0.13414313012E+02  0.59301948716E+02  0.50000008551E+02 0.  0.
        -12    1    1    2    0    0  0.28554619336E+02  0.46271143750E+01 -0.13414313012E+02  0.31886051284E+02  0.00000000000E+00 0.  1.
         11    1    3    3    0    0 -0.22181552456E+02 -0.11453979588E+02  0.21506466804E+02  0.32950615053E+02  0.51100000000E-03 0. -1.
        -11    1    3    3    0    0  0.17912016443E+01  0.13383865222E+02 -0.67662200854E+00  0.13520135695E+02  0.51100000000E-03 0.  1.
        -12    1    3    3    0    0 -0.81642685250E+01 -0.65570000093E+01 -0.74155317833E+01  0.12831197968E+02  0.00000000000E+00 0.  1.
</event>
<event>
 7    1  0.1139627E-011  0.5930196E+02  0.7816164E-02  0.1266605E+00
        -11   -1    0    0    0    0  0.00000000000E+00  0.00000000000E+00  0.45593999997E+02  0.45594000000E+02  0.51100000000E-03 0.  1.
         11   -1    0    0    0    0 -0.00000000000E+00 -0.00000000000E+00 -0.45593999997E+02  0.45594000000E+02  0.51100000000E-03 0. -1.
    9900012    2    1    2    0    0 -0.19712164566E+01 -0.15505188580E+02 -0.27792496463E+02  0.59301961882E+02  0.50000032562E+02 0.  0.
        -12    1    1    2    0    0  0.19712164566E+01  0.15505188580E+02  0.27792496463E+02  0.31886038118E+02  0.00000000000E+00 0.  1.
         11    1    3    3    0    0  0.53337386798E+01 -0.25880322416E+02 -0.26972715766E+02  0.37759333320E+02  0.51100000000E-03 0. -1.
        -11    1    3    3    0    0 -0.41914298575E+01  0.10734551899E+02 -0.77834507646E+01  0.13906142340E+02  0.51100000000E-03 0.  1.
         12    1    3    3    0    0 -0.31135252789E+01 -0.35941806221E+00  0.69636700683E+01  0.76364862224E+01  0.00000000000E+00 0. -1.
</event>
<event>
 7    1  0.1139627E-011  0.5930199E+02  0.7816164E-02  0.1266605E+00
        -11   -1    0    0    0    0  0.00000000000E+00  0.00000000000E+00  0.45593999997E+02  0.45594000000E+02  0.51100000000E-03 0. -1.
         11   -1    0    0    0    0 -0.00000000000E+00 -0.00000000000E+00 -0.45593999997E+02  0.45594000000E+02  0.51100000000E-03 0.  1.
    9900012    2    1    2    0    0  0.15900205577E+02 -0.11992884446E+01  0.27612727870E+02  0.59301990990E+02  0.50000085647E+02 0.  0.
        -12    1    1    2    0    0 -0.15900205577E+02  0.11992884446E+01 -0.27612727870E+02  0.31886009010E+02  0.00000000000E+00 0.  1.
         11    1    3    3    0    0  0.29449479741E+02 -0.72108347295E+00  0.20739260903E+02  0.36026500822E+02  0.51100000000E-03 0. -1.
        -11    1    3    3    0    0 -0.86204657592E+01  0.43705991810E+01 -0.39426450029E+01  0.10438343594E+02  0.51100000000E-03 0.  1.
         12    1    3    3    0    0 -0.49288084052E+01 -0.48488041526E+01  0.10816111970E+02  0.12837146574E+02  0.00000000000E+00 0. -1.
</event>
<event>
 7    1  0.1139627E-011  0.5930199E+02  0.7816164E-02  0.1266605E+00
        -11   -1    0    0    0    0  0.00000000000E+00  0.00000000000E+00  0.45593999997E+02  0.45594000000E+02  0.51100000000E-03 0.  1.
         11   -1    0    0    0    0 -0.00000000000E+00 -0.00000000000E+00 -0.45593999997E+02  0.45594000000E+02  0.51100000000E-03 0. -1.
    9900012    2    1    2    0    0  0.10582887203E+01 -0.15079031220E+02 -0.28075260692E+02  0.59301993343E+02  0.50000089940E+02 0.  0.
        -12    1    1    2    0    0 -0.10582887203E+01  0.15079031220E+02  0.28075260692E+02  0.31886006657E+02  0.00000000000E+00 0.  1.
         11    1    3    3    0    0 -0.11635278392E+02  0.10013424499E+02 -0.85504748719E+01  0.17571539325E+02  0.51100000000E-03 0. -1.
        -11    1    3    3    0    0  0.15841355407E+02 -0.61356502972E+01 -0.13154515534E+02  0.21485716765E+02  0.51100000000E-03 0.  1.
         12    1    3    3    0    0 -0.31477882951E+01 -0.18956805422E+02 -0.63702702867E+01  0.20244737254E+02  0.00000000000E+00 0. -1.
</event>
<event>
 7    1  0.1139627E-011  0.5930195E+02  0.7816164E-02  0.1266605E+00
        -11   -1    0    0    0    0  0.00000000000E+00  0.00000000000E+00  0.45593999997E+02  0.45594000000E+02  0.51100000000E-03 0. -1.
         11   -1    0    0    0    0 -0.00000000000E+00 -0.00000000000E+00 -0.45593999997E+02  0.45594000000E+02  0.51100000000E-03 0.  1.
    9900012    2    1    2    0    0 -0.18698479777E+01  0.21827512396E+02  0.23168591342E+02  0.59301948918E+02  0.50000008918E+02 0.  0.
        -12    1    1    2    0    0  0.18698479777E+01 -0.21827512396E+02 -0.23168591342E+02  0.31886051082E+02  0.00000000000E+00 0.  1.
         11    1    3    3    0    0 -0.17970598187E+02  0.24155717301E+02  0.18791485648E+02  0.35490294597E+02  0.51100000000E-03 0. -1.
        -11    1    3    3    0    0  0.73719654283E+01 -0.91668987068E+01  0.48235819581E+01  0.12713962771E+02  0.51100000000E-03 0.  1.
         12    1    3    3    0    0  0.87287847808E+01  0.68386938020E+01 -0.44647626389E+00  0.11097691549E+02  0.00000000000E+00 0. -1.
</event>
<event>
 7    1  0.1139627E-011  0.5930196E+02  0.7816164E-02  0.1266605E+00
        -11   -1    0    0    0    0  0.00000000000E+00  0.00000000000E+00  0.45593999997E+02  0.45594000000E+02  0.51100000000E-03 0.  1.
         11   -1    0    0    0    0 -0.00000000000E+00 -0.00000000000E+00 -0.45593999997E+02  0.45594000000E+02  0.51100000000E-03 0. -1.
    9900012    2    1    2    0    0 -0.20827067491E+02  0.11125471259E+02 -0.21428404555E+02  0.59301962730E+02  0.50000034108E+02 0.  0.
        -12    1    1    2    0    0  0.20827067491E+02 -0.11125471259E+02  0.21428404555E+02  0.31886037270E+02  0.00000000000E+00 0.  1.
         11    1    3    3    0    0 -0.82951704956E+01  0.14580556664E+02 -0.43145175926E+00  0.16780603001E+02  0.51100000000E-03 0. -1.
        -11    1    3    3    0    0  0.15727106213E+01 -0.15897352489E+02 -0.25508807115E+01  0.16177336849E+02  0.51100000000E-03 0.  1.
         12    1    3    3    0    0 -0.14104607617E+02  0.12442267084E+02 -0.18446072084E+02  0.26344022881E+02  0.00000000000E+00 0. -1.
</event>
<event>
 7    1  0.1139627E-011  0.5930194E+02  0.7816164E-02  0.1266605E+00
        -11   -1    0    0    0    0  0.00000000000E+00  0.00000000000E+00  0.45593999997E+02  0.45594000000E+02  0.51100000000E-03 0. -1.
         11   -1    0    0    0    0 -0.00000000000E+00 -0.00000000000E+00 -0.45593999997E+02  0.45594000000E+02  0.51100000000E-03 0.  1.
    9900012    2    1    2    0    0  0.18115992221E+02  0.44928922468E+01  0.25852386431E+02  0.59301935033E+02  0.49999983595E+02 0.  0.
        -12    1    1    2    0    0 -0.18115992221E+02 -0.44928922468E+01 -0.25852386431E+02  0.31886064967E+02  0.00000000000E+00 0.  1.
         11    1    3    3    0    0  0.86626149478E+01 -0.11682537969E+02  0.18102998744E+02  0.23221566590E+02  0.51100000000E-03 0. -1.
        -11    1    3    3    0    0  0.75413780217E+01  0.23676413433E+02 -0.38502957234E+00  0.24851422164E+02  0.51100000000E-03 0.  1.
        -12    1    3    3    0    0  0.19119992519E+01 -0.75009832179E+01  0.81344172594E+01  0.11228946278E+02  0.00000000000E+00 0.  1.
</event>
<event>
 7    1  0.1139627E-011  0.5930195E+02  0.7816164E-02  0.1266605E+00
        -11   -1    0    0    0    0  0.00000000000E+00  0.00000000000E+00  0.45593999997E+02  0.45594000000E+02  0.51100000000E-03 0. -1.
         11   -1    0    0    0    0 -0.00000000000E+00 -0.00000000000E+00 -0.45593999997E+02  0.45594000000E+02  0.51100000000E-03 0.  1.
    9900012    2    1    2    0    0 -0.15216085579E+02 -0.13671976171E+02  0.24459515262E+02  0.59301951647E+02  0.50000013895E+02 0.  0.
        -12    1    1    2    0    0  0.15216085579E+02  0.13671976171E+02 -0.24459515262E+02  0.31886048353E+02  0.00000000000E+00 0.  1.
         11    1    3    3    0    0  0.35118448630E+01 -0.11253433516E+02  0.12044883589E+02  0.16853843513E+02  0.51100000000E-03 0. -1.
        -11    1    3    3    0    0 -0.68207908585E+01  0.11529268563E+02 -0.75190164230E+01  0.15361732642E+02  0.51100000000E-03 0.  1.
        -12    1    3    3    0    0 -0.11907139583E+02 -0.13947811218E+02  0.19933648096E+02  0.27086375491E+02  0.00000000000E+00 0.  1.
</event>
<event>
 7    1  0.1139627E-011  0.5930195E+02  0.7816164E-02  0.1266605E+00
        -11   -1    0    0    0    0  0.00000000000E+00  0.00000000000E+00  0.45593999997E+02  0.45594000000E+02  0.51100000000E-03 0. -1.
         11   -1    0    0    0    0 -0.00000000000E+00 -0.00000000000E+00 -0.45593999997E+02  0.45594000000E+02  0.51100000000E-03 0.  1.
    9900012    2    1    2    0    0 -0.19584335078E+02  0.26153979842E+00  0.25161590948E+02  0.59301949092E+02  0.50000009235E+02 0.  0.
        -12    1    1    2    0    0  0.19584335078E+02 -0.26153979842E+00 -0.25161590948E+02  0.31886050908E+02  0.00000000000E+00 0.  1.
         11    1    3    3    0    0  0.30913693436E+00 -0.10047630643E+02  0.10495382874E+02  0.14532842430E+02  0.51100000000E-03 0. -1.
        -11    1    3    3    0    0 -0.10035774039E+02  0.21360762134E+02 -0.45331573481E+00  0.23605177714E+02  0.51100000000E-03 0.  1.
        -12    1    3    3    0    0 -0.98576979731E+01 -0.11051591693E+02  0.15119523809E+02  0.21163928947E+02  0.00000000000E+00 0.  1.
</event>
<event>
 7    1  0.1139627E-011  0.5930190E+02  0.7816164E-02  0.1266605E+00
        -11   -1    0    0    0    0  0.00000000000E+00  0.00000000000E+00  0.45593999997E+02  0.45594000000E+02  0.51100000000E-03 0. -1.
         11   -1    0    0    0    0 -0.00000000000E+00 -0.00000000000E+00 -0.45593999997E+02  0.45594000000E+02  0.51100000000E-03 0.  1.
    9900012    2    1    2    0    0  0.71901614927E+01 -0.19278418737E+02 -0.24359138050E+02  0.59301898673E+02  0.49999917283E+02 0.  0.
        -12    1    1    2    0    0 -0.71901614927E+01  0.19278418737E+02  0.24359138050E+02  0.31886101327E+02  0.00000000000E+00 0.  1.
         11    1    3    3    0    0  0.22956488055E+02 -0.54229903772E+01 -0.10739086428E+01  0.23612760289E+02  0.51100000000E-03 0. -1.
        -11    1    3    3    0    0 -0.12634719756E+02 -0.15951192697E+02 -0.24388465751E+02  0.31762776228E+02  0.51100000000E-03 0.  1.
        -12    1    3    3    0    0 -0.31316068060E+01  0.20957643370E+01  0.11032363438E+01  0.39263621552E+01  0.00000000000E+00 0.  1.
</event>
<event>
 7    1  0.1139627E-011  0.5930169E+02  0.7816164E-02  0.1266606E+00
        -11   -1    0    0    0    0  0.00000000000E+00  0.00000000000E+00  0.45593999997E+02  0.45594000000E+02  0.51100000000E-03 0.  1.
         11   -1    0    0    0    0 -0.00000000000E+00 -0.00000000000E+00 -0.45593999997E+02  0.45594000000E+02  0.51100000000E-03 0. -1.
    9900012    2    1    2    0    0  0.87328446495E+01 -0.11007688777E+02 -0.28623501286E+02  0.59301692378E+02  0.49999541050E+02 0.  0.
        -12    1    1    2    0    0 -0.87328446495E+01  0.11007688777E+02  0.28623501286E+02  0.31886307622E+02  0.00000000000E+00 0.  1.
         11    1    3    3    0    0  0.18463492274E+02 -0.14360453161E+02 -0.19263361806E+01  0.23469851582E+02  0.51100000000E-03 0. -1.
        -11    1    3    3    0    0 -0.97349784640E+01  0.10192588505E+02 -0.86627606676E+01  0.16543944172E+02  0.51100000000E-03 0.  1.
         12    1    3    3    0    0  0.43308399256E-02 -0.68398241209E+01 -0.18034404438E+02  0.19287896624E+02  0.00000000000E+00 0. -1.
</event>
<event>
 7    1  0.1139627E-011  0.5930196E+02  0.7816164E-02  0.1266605E+00
        -11   -1    0    0    0    0  0.00000000000E+00  0.00000000000E+00  0.45593999997E+02  0.45594000000E+02  0.51100000000E-03 0.  1.
         11   -1    0    0    0    0 -0.00000000000E+00 -0.00000000000E+00 -0.45593999997E+02  0.45594000000E+02  0.51100000000E-03 0. -1.
    9900012    2    1    2    0    0 -0.17219715952E+02 -0.15470858140E+02 -0.21928366603E+02  0.59301963386E+02  0.50000035305E+02 0.  0.
        -12    1    1    2    0    0  0.17219715952E+02  0.15470858140E+02  0.21928366603E+02  0.31886036614E+02  0.00000000000E+00 0.  1.
         11    1    3    3    0    0 -0.21531968887E+02 -0.22653290433E+02 -0.24884272576E+02  0.39950272508E+02  0.51100000000E-03 0. -1.
        -11    1    3    3    0    0 -0.39061551980E+01  0.50887450298E+01 -0.46791773778E+01  0.79402818340E+01  0.51100000000E-03 0.  1.
         12    1    3    3    0    0  0.82184081332E+01  0.20936872637E+01  0.76350833500E+01  0.11411409044E+02  0.00000000000E+00 0. -1.
</event>
<event>
 7    1  0.1139627E-011  0.5930200E+02  0.7816164E-02  0.1266605E+00
        -11   -1    0    0    0    0  0.00000000000E+00  0.00000000000E+00  0.45593999997E+02  0.45594000000E+02  0.51100000000E-03 0.  1.
         11   -1    0    0    0    0 -0.00000000000E+00 -0.00000000000E+00 -0.45593999997E+02  0.45594000000E+02  0.51100000000E-03 0. -1.
    9900012    2    1    2    0    0  0.12700392550E+02 -0.25836668482E+02 -0.13707063615E+02  0.59301999904E+02  0.50000101905E+02 0.  0.
        -12    1    1    2    0    0 -0.12700392550E+02  0.25836668482E+02  0.13707063615E+02  0.31886000096E+02  0.00000000000E+00 0.  1.
         11    1    3    3    0    0  0.21842523026E+02 -0.11657475062E+02 -0.17607723348E+02  0.30381317594E+02  0.51100000000E-03 0. -1.
        -11    1    3    3    0    0 -0.14232736823E+02 -0.32198537322E+01 -0.31523667817E+01  0.14929021137E+02  0.51100000000E-03 0.  1.
        -12    1    3    3    0    0  0.50906063473E+01 -0.10959339687E+02  0.70530265146E+01  0.13991661173E+02  0.00000000000E+00 0.  1.
</event>
<event>
 7    1  0.1139627E-011  0.5930227E+02  0.7816164E-02  0.1266604E+00
        -11   -1    0    0    0    0  0.00000000000E+00  0.00000000000E+00  0.45593999997E+02  0.45594000000E+02  0.51100000000E-03 0.  1.
         11   -1    0    0    0    0 -0.00000000000E+00 -0.00000000000E+00 -0.45593999997E+02  0.45594000000E+02  0.51100000000E-03 0. -1.
    9900012    2    1    2    0    0  0.14479632175E+02 -0.28274669167E+02  0.27537900729E+01  0.59302266134E+02  0.50000587441E+02 0.  0.
        -12    1    1    2    0    0 -0.14479632175E+02  0.28274669167E+02 -0.27537900729E+01  0.31885733866E+02  0.00000000000E+00 0.  1.
         11    1    3    3    0    0 -0.64950358109E+01 -0.21229159299E+02  0.66329979860E+01  0.23170225663E+02  0.51100000000E-03 0. -1.
        -11    1    3    3    0    0  0.85701723555E+01  0.97664282011E+01  0.43127551503E+01  0.13690538019E+02  0.51100000000E-03 0.  1.
         12    1    3    3    0    0  0.12404495630E+02 -0.16811938069E+02 -0.81919630634E+01  0.22441502452E+02  0.00000000000E+00 0. -1.
</event>
<event>
 7    1  0.1139627E-011  0.5930195E+02  0.7816164E-02  0.1266605E+00
        -11   -1    0    0    0    0  0.00000000000E+00  0.00000000000E+00  0.45593999997E+02  0.45594000000E+02  0.51100000000E-03 0.  1.
         11   -1    0    0    0    0 -0.00000000000E+00 -0.00000000000E+00 -0.45593999997E+02  0.45594000000E+02  0.51100000000E-03 0. -1.
    9900012    2    1    2    0    0  0.19428557366E+02 -0.89969821324E+01 -0.23628497326E+02  0.59301946392E+02  0.50000004311E+02 0.  0.
        -12    1    1    2    0    0 -0.19428557366E+02  0.89969821324E+01  0.23628497326E+02  0.31886053608E+02  0.00000000000E+00 0.  1.
         11    1    3    3    0    0 -0.69164217603E+01 -0.16837028726E+02  0.31102009716E+01  0.18466070958E+02  0.51100000000E-03 0.  1.
        -11    1    3    3    0    0  0.19374375194E+02 -0.12265875456E+01 -0.17432517435E+02  0.26091446789E+02  0.51100000000E-03 0. -1.
        -12    1    3    3    0    0  0.69706039319E+01  0.90666341393E+01 -0.93061808628E+01  0.14744428644E+02  0.00000000000E+00 0.  1.
</event>
<event>
 7    1  0.1139627E-011  0.5930195E+02  0.7816164E-02  0.1266605E+00
        -11   -1    0    0    0    0  0.00000000000E+00  0.00000000000E+00  0.45593999997E+02  0.45594000000E+02  0.51100000000E-03 0.  1.
         11   -1    0    0    0    0 -0.00000000000E+00 -0.00000000000E+00 -0.45593999997E+02  0.45594000000E+02  0.51100000000E-03 0. -1.
    9900012    2    1    2    0    0 -0.23311643881E+02  0.85474180619E+01 -0.20005721774E+02  0.59301952901E+02  0.50000016182E+02 0.  0.
        -12    1    1    2    0    0  0.23311643881E+02 -0.85474180619E+01  0.20005721774E+02  0.31886047099E+02  0.00000000000E+00 0.  1.
         11    1    3    3    0    0 -0.14076276330E+02  0.33234709309E+01 -0.19289705764E+02  0.24109744152E+02  0.51100000000E-03 0. -1.
        -11    1    3    3    0    0 -0.68097070467E+01  0.13027732527E+02  0.12737679979E+02  0.19451026101E+02  0.51100000000E-03 0.  1.
        -12    1    3    3    0    0 -0.24256605036E+01 -0.78037853965E+01 -0.13453695989E+02  0.15741182648E+02  0.00000000000E+00 0.  1.
</event>
<event>
 7    1  0.1139627E-011  0.5930195E+02  0.7816164E-02  0.1266605E+00
        -11   -1    0    0    0    0  0.00000000000E+00  0.00000000000E+00  0.45593999997E+02  0.45594000000E+02  0.51100000000E-03 0. -1.
         11   -1    0    0    0    0 -0.00000000000E+00 -0.00000000000E+00 -0.45593999997E+02  0.45594000000E+02  0.51100000000E-03 0.  1.
    9900012    2    1    2    0    0  0.20142077504E+02  0.22466640976E+02  0.10308589295E+02  0.59301948878E+02  0.50000008845E+02 0.  0.
        -12    1    1    2    0    0 -0.20142077504E+02 -0.22466640976E+02 -0.10308589295E+02  0.31886051122E+02  0.00000000000E+00 0.  1.
         11    1    3    3    0    0  0.80086401770E+01 -0.68078110698E+01  0.13582860132E+02  0.17174943920E+02  0.51100000000E-03 0.  1.
        -11    1    3    3    0    0  0.19073406907E+02  0.25935598682E+02  0.28041988523E+01  0.32315842268E+02  0.51100000000E-03 0. -1.
         12    1    3    3    0    0 -0.69399695805E+01  0.33388533638E+01 -0.60784696884E+01  0.98111626894E+01  0.00000000000E+00 0. -1.
</event>
<event>
 7    1  0.1139627E-011  0.5930194E+02  0.7816164E-02  0.1266605E+00
        -11   -1    0    0    0    0  0.00000000000E+00  0.00000000000E+00  0.45593999997E+02  0.45594000000E+02  0.51100000000E-03 0. -1.
         11   -1    0    0    0    0 -0.00000000000E+00 -0.00000000000E+00 -0.45593999997E+02  0.45594000000E+02  0.51100000000E-03 0.  1.
    9900012    2    1    2    0    0  0.23929872295E+02  0.17054295668E+02  0.12378725259E+02  0.59301943050E+02  0.49999998217E+02 0.  0.
        -12    1    1    2    0    0 -0.23929872295E+02 -0.17054295668E+02 -0.12378725259E+02  0.31886056950E+02  0.00000000000E+00 0.  1.
         11    1    3    3    0    0  0.22448471527E+02  0.24364204356E+02  0.20385533368E+02  0.38898821303E+02  0.51100000000E-03 0. -1.
        -11    1    3    3    0    0  0.77485428458E+01 -0.93415332503E+01 -0.58307581854E+01  0.13464839434E+02  0.51100000000E-03 0.  1.
        -12    1    3    3    0    0 -0.62671420780E+01  0.20316245630E+01 -0.21760499242E+01  0.69382823136E+01  0.00000000000E+00 0.  1.
</event>
<event>
 7    1  0.1139627E-011  0.5930195E+02  0.7816164E-02  0.1266605E+00
        -11   -1    0    0    0    0  0.00000000000E+00  0.00000000000E+00  0.45593999997E+02  0.45594000000E+02  0.51100000000E-03 0. -1.
         11   -1    0    0    0    0 -0.00000000000E+00 -0.00000000000E+00 -0.45593999997E+02  0.45594000000E+02  0.51100000000E-03 0.  1.
    9900012    2    1    2    0    0 -0.17679889381E+02  0.23831058987E+02  0.11671443657E+02  0.59301945713E+02  0.50000003074E+02 0.  0.
        -12    1    1    2    0    0  0.17679889381E+02 -0.23831058987E+02 -0.11671443657E+02  0.31886054287E+02  0.00000000000E+00 0.  1.
         11    1    3    3    0    0  0.10129959043E+02 -0.10478190102E+01 -0.39939318859E+01  0.10939172138E+02  0.51100000000E-03 0. -1.
        -11    1    3    3    0    0 -0.10277885698E+02  0.25682890468E+02  0.59244776646E+01  0.28290373505E+02  0.51100000000E-03 0.  1.
         12    1    3    3    0    0 -0.17531962726E+02 -0.80401247135E+00  0.97408978785E+01  0.20072400070E+02  0.00000000000E+00 0. -1.
</event>
<event>
 7    1  0.1139627E-011  0.5930197E+02  0.7816164E-02  0.1266605E+00
        -11   -1    0    0    0    0  0.00000000000E+00  0.00000000000E+00  0.45593999997E+02  0.45594000000E+02  0.51100000000E-03 0. -1.
         11   -1    0    0    0    0 -0.00000000000E+00 -0.00000000000E+00 -0.45593999997E+02  0.45594000000E+02  0.51100000000E-03 0.  1.
    9900012    2    1    2    0    0  0.23174717499E+02 -0.16780953877E+02  0.14073057960E+02  0.59301970073E+02  0.50000047500E+02 0.  0.
        -12    1    1    2    0    0 -0.23174717499E+02  0.16780953877E+02 -0.14073057960E+02  0.31886029927E+02  0.00000000000E+00 0.  1.
         11    1    3    3    0    0  0.21905144610E+02  0.47113639630E+01  0.14234733243E+02  0.26545431651E+02  0.51100000000E-03 0. -1.
        -11    1    3    3    0    0 -0.82024277600E+01 -0.11666227481E+00 -0.38934239887E+01  0.90803183788E+01  0.51100000000E-03 0.  1.
         12    1    3    3    0    0  0.94720006498E+01 -0.21375655565E+02  0.37317487054E+01  0.23676220043E+02  0.00000000000E+00 0. -1.
</event>
<event>
 7    1  0.1139627E-011  0.5930194E+02  0.7816164E-02  0.1266605E+00
        -11   -1    0    0    0    0  0.00000000000E+00  0.00000000000E+00  0.45593999997E+02  0.45594000000E+02  0.51100000000E-03 0.  1.
         11   -1    0    0    0    0 -0.00000000000E+00 -0.00000000000E+00 -0.45593999997E+02  0.45594000000E+02  0.51100000000E-03 0. -1.
    9900012    2    1    2    0    0 -0.21024158340E+02  0.21951266547E+02  0.96357363590E+01  0.59301941101E+02  0.49999994663E+02 0.  0.
        -12    1    1    2    0    0  0.21024158340E+02 -0.21951266547E+02 -0.96357363590E+01  0.31886058899E+02  0.00000000000E+00 0.  1.
         11    1    3    3    0    0 -0.14193080659E+02 -0.14819524077E+01 -0.73158596690E+01  0.16036256561E+02  0.51100000000E-03 0. -1.
        -11    1    3    3    0    0 -0.40583282114E+01  0.12717403166E+02  0.25830354337E+02  0.29075927786E+02  0.51100000000E-03 0.  1.
         12    1    3    3    0    0 -0.27727494695E+01  0.10715815789E+02 -0.88787583092E+01  0.14189756755E+02  0.00000000000E+00 0. -1.
</event>
<event>
 7    1  0.1139627E-011  0.5930194E+02  0.7816164E-02  0.1266605E+00
        -11   -1    0    0    0    0  0.00000000000E+00  0.00000000000E+00  0.45593999997E+02  0.45594000000E+02  0.51100000000E-03 0. -1.
         11   -1    0    0    0    0 -0.00000000000E+00 -0.00000000000E+00 -0.45593999997E+02  0.45594000000E+02  0.51100000000E-03 0.  1.
    9900012    2    1    2    0    0  0.23828046624E+02 -0.15746234628E+02 -0.14177496799E+02  0.59301935233E+02  0.49999983960E+02 0.  0.
        -12    1    1    2    0    0 -0.23828046624E+02  0.15746234628E+02  0.14177496799E+02  0.31886064767E+02  0.00000000000E+00 0.  1.
         11    1    3    3    0    0  0.27702064079E+02 -0.14854905177E+02 -0.46254431480E+01  0.31772114922E+02  0.51100000000E-03 0. -1.
        -11    1    3    3    0    0  0.27050156939E+01  0.28469256617E+01  0.77263624386E+01  0.86671086541E+01  0.51100000000E-03 0.  1.
         12    1    3    3    0    0 -0.65790331490E+01 -0.37382551126E+01 -0.17278416089E+02  0.18862711656E+02  0.00000000000E+00 0. -1.
</event>
<event>
 7    1  0.1139627E-011  0.5930192E+02  0.7816164E-02  0.1266605E+00
        -11   -1    0    0    0    0  0.00000000000E+00  0.00000000000E+00  0.45593999997E+02  0.45594000000E+02  0.51100000000E-03 0. -1.
         11   -1    0    0    0    0 -0.00000000000E+00 -0.00000000000E+00 -0.45593999997E+02  0.45594000000E+02  0.51100000000E-03 0.  1.
    9900012    2    1    2    0    0 -0.15594687647E+02 -0.19847544309E+02  0.19483404807E+02  0.59301915876E+02  0.49999948657E+02 0.  0.
        -12    1    1    2    0    0  0.15594687647E+02  0.19847544309E+02 -0.19483404807E+02  0.31886084124E+02  0.00000000000E+00 0.  1.
         11    1    3    3    0    0 -0.59846015837E+01  0.53039826473E+01  0.25796398859E+01  0.84025133288E+01  0.51100000000E-03 0. -1.
        -11    1    3    3    0    0 -0.79118035396E+01 -0.29665815964E+02 -0.25957348859E+01  0.30812255872E+02  0.51100000000E-03 0.  1.
        -12    1    3    3    0    0 -0.16982825242E+01  0.45142890085E+01  0.19499499807E+02  0.20087146674E+02  0.00000000000E+00 0.  1.
</event>
<event>
 7    1  0.1139627E-011  0.5930194E+02  0.7816164E-02  0.1266605E+00
        -11   -1    0    0    0    0  0.00000000000E+00  0.00000000000E+00  0.45593999997E+02  0.45594000000E+02  0.51100000000E-03 0.  1.
         11   -1    0    0    0    0 -0.00000000000E+00 -0.00000000000E+00 -0.45593999997E+02  0.45594000000E+02  0.51100000000E-03 0. -1.
    9900012    2    1    2    0    0 -0.38828385560E+01 -0.28876354018E+02 -0.12953780684E+02  0.59301942065E+02  0.49999996420E+02 0.  0.
        -12    1    1    2    0    0  0.38828385560E+01  0.28876354018E+02  0.12953780684E+02  0.31886057935E+02  0.00000000000E+00 0.  1.
         11    1    3    3    0    0  0.11403060317E+02  0.47150923446E+01 -0.16304633569E+02  0.20447566028E+02  0.51100000000E-03 0. -1.
        -11    1    3    3    0    0 -0.61135375142E+01 -0.24857432015E+02 -0.54258705710E+00  0.25603938531E+02  0.51100000000E-03 0.  1.
        -12    1    3    3    0    0 -0.91723613589E+01 -0.87340143479E+01  0.38934399416E+01  0.13250437506E+02  0.00000000000E+00 0.  1.
</event>
<event>
 7    1  0.1139627E-011  0.5930193E+02  0.7816164E-02  0.1266605E+00
        -11   -1    0    0    0    0  0.00000000000E+00  0.00000000000E+00  0.45593999997E+02  0.45594000000E+02  0.51100000000E-03 0. -1.
         11   -1    0    0    0    0 -0.00000000000E+00 -0.00000000000E+00 -0.45593999997E+02  0.45594000000E+02  0.51100000000E-03 0.  1.
    9900012    2    1    2    0    0  0.15707179894E+02 -0.26763260044E+02 -0.73303184270E+01  0.59301934758E+02  0.49999983094E+02 0.  0.
        -12    1    1    2    0    0 -0.15707179894E+02  0.26763260044E+02  0.73303184270E+01  0.31886065242E+02  0.00000000000E+00 0.  1.
         11    1    3    3    0    0  0.13428268710E+02 -0.19627038241E+02  0.53433797282E+01  0.24373976652E+02  0.51100000000E-03 0. -1.
        -11    1    3    3    0    0 -0.11731874330E+02  0.39840550102E+01  0.97465661556E+00  0.12428174661E+02  0.51100000000E-03 0.  1.
         12    1    3    3    0    0  0.14010785514E+02 -0.11120276813E+02 -0.13648354771E+02  0.22499783445E+02  0.00000000000E+00 0. -1.
</event>
<event>
 7    1  0.1139627E-011  0.5930199E+02  0.7816164E-02  0.1266605E+00
        -11   -1    0    0    0    0  0.00000000000E+00  0.00000000000E+00  0.45593999997E+02  0.45594000000E+02  0.51100000000E-03 0. -1.
         11   -1    0    0    0    0 -0.00000000000E+00 -0.00000000000E+00 -0.45593999997E+02  0.45594000000E+02  0.51100000000E-03 0.  1.
    9900012    2    1    2    0    0 -0.11200205930E+02  0.29654431165E+02  0.34478350291E+01  0.59301992615E+02  0.50000088612E+02 0.  0.
        -12    1    1    2    0    0  0.11200205930E+02 -0.29654431165E+02 -0.34478350291E+01  0.31886007385E+02  0.00000000000E+00 0.  1.
         11    1    3    3    0    0 -0.12595598863E+02  0.19636386299E+02 -0.54712163942E+01  0.23961865259E+02  0.51100000000E-03 0. -1.
        -11    1    3    3    0    0  0.71742325600E+00 -0.38391525850E+01 -0.10654822448E+02  0.11348084876E+02  0.51100000000E-03 0.  1.
        -12    1    3    3    0    0  0.67796967714E+00  0.13857197451E+02  0.19573873871E+02  0.23992042481E+02  0.00000000000E+00 0.  1.
</event>
<event>
 7    1  0.1139627E-011  0.5930193E+02  0.7816164E-02  0.1266605E+00
        -11   -1    0    0    0    0  0.00000000000E+00  0.00000000000E+00  0.45593999997E+02  0.45594000000E+02  0.51100000000E-03 0.  1.
         11   -1    0    0    0    0 -0.00000000000E+00 -0.00000000000E+00 -0.45593999997E+02  0.45594000000E+02  0.51100000000E-03 0. -1.
    9900012    2    1    2    0    0 -0.13826691346E+01  0.11501530793E+02 -0.29707310180E+02  0.59301933095E+02  0.49999980062E+02 0.  0.
        -12    1    1    2    0    0  0.13826691346E+01 -0.11501530793E+02  0.29707310180E+02  0.31886066905E+02  0.00000000000E+00 0.  1.
         11    1    3    3    0    0 -0.43873291286E+01 -0.58897274250E+00 -0.30614274494E+02  0.30932658289E+02  0.51100000000E-03 0. -1.
        -11    1    3    3    0    0 -0.59532603467E+01  0.73267018649E+01  0.10699230061E+02  0.14268685753E+02  0.51100000000E-03 0.  1.
        -12    1    3    3    0    0  0.89579203407E+01  0.47638016701E+01 -0.97922657466E+01  0.14100589053E+02  0.00000000000E+00 0.  1.
</event>
<event>
 7    1  0.1139627E-011  0.5930194E+02  0.7816164E-02  0.1266605E+00
        -11   -1    0    0    0    0  0.00000000000E+00  0.00000000000E+00  0.45593999997E+02  0.45594000000E+02  0.51100000000E-03 0. -1.
         11   -1    0    0    0    0 -0.00000000000E+00 -0.00000000000E+00 -0.45593999997E+02  0.45594000000E+02  0.51100000000E-03 0.  1.
    9900012    2    1    2    0    0  0.13791393895E+02  0.12135216476E+02  0.26062516212E+02  0.59301940730E+02  0.49999993985E+02 0.  0.
        -12    1    1    2    0    0 -0.13791393895E+02 -0.12135216476E+02 -0.26062516212E+02  0.31886059270E+02  0.00000000000E+00 0.  1.
         11    1    3    3    0    0  0.94755150107E+01 -0.20126836970E+01  0.13683747219E+02  0.16765476987E+02  0.51100000000E-03 0. -1.
        -11    1    3    3    0    0 -0.72577147314E+01  0.14704290474E+01 -0.11166066939E+02  0.13398419155E+02  0.51100000000E-03 0.  1.
        -12    1    3    3    0    0  0.11573593616E+02  0.12677471125E+02  0.23544835932E+02  0.29138044588E+02  0.00000000000E+00 0.  1.
</event>
<event>
 7    1  0.1139627E-011  0.5930193E+02  0.7816164E-02  0.1266605E+00
        -11   -1    0    0    0    0  0.00000000000E+00  0.00000000000E+00  0.45593999997E+02  0.45594000000E+02  0.51100000000E-03 0. -1.
         11   -1    0    0    0    0 -0.00000000000E+00 -0.00000000000E+00 -0.45593999997E+02  0.45594000000E+02  0.51100000000E-03 0.  1.
    9900012    2    1    2    0    0  0.21732549167E+02  0.19209063351E+02  0.13244983584E+02  0.59301930969E+02  0.49999976184E+02 0.  0.
        -12    1    1    2    0    0 -0.21732549167E+02 -0.19209063351E+02 -0.13244983584E+02  0.31886069031E+02  0.00000000000E+00 0.  1.
         11    1    3    3    0    0 -0.99773058996E+01 -0.34357191476E+01  0.27856588326E+01  0.10913784608E+02  0.51100000000E-03 0. -1.
        -11    1    3    3    0    0  0.21585153187E+02  0.27631924815E+02  0.37628387568E+01  0.35264728311E+02  0.51100000000E-03 0.  1.
         12    1    3    3    0    0  0.10124701879E+02 -0.49871423167E+01  0.66964859945E+01  0.13123418050E+02  0.00000000000E+00 0. -1.
</event>
<event>
 7    1  0.1139627E-011  0.5930194E+02  0.7816164E-02  0.1266605E+00
        -11   -1    0    0    0    0  0.00000000000E+00  0.00000000000E+00  0.45593999997E+02  0.45594000000E+02  0.51100000000E-03 0. -1.
         11   -1    0    0    0    0 -0.00000000000E+00 -0.00000000000E+00 -0.45593999997E+02  0.45594000000E+02  0.51100000000E-03 0.  1.
    9900012    2    1    2    0    0  0.78909569251E+01  0.16864015920E+02  0.25885495957E+02  0.59301935096E+02  0.49999983710E+02 0.  0.
        -12    1    1    2    0    0 -0.78909569251E+01 -0.16864015920E+02 -0.25885495957E+02  0.31886064904E+02  0.00000000000E+00 0.  1.
         11    1    3    3    0    0  0.56739162568E+01  0.21859436411E+02  0.77395146822E+01  0.23873172677E+02  0.51100000000E-03 0.  1.
        -11    1    3    3    0    0  0.30758642143E+01 -0.67173671996E+01  0.26161917153E+02  0.27185103865E+02  0.51100000000E-03 0. -1.
        -12    1    3    3    0    0 -0.85882354602E+00  0.17219467090E+01 -0.80159358784E+01  0.82436585542E+01  0.00000000000E+00 0.  1.
</event>
<event>
 7    1  0.1139627E-011  0.5930195E+02  0.7816164E-02  0.1266605E+00
        -11   -1    0    0    0    0  0.00000000000E+00  0.00000000000E+00  0.45593999997E+02  0.45594000000E+02  0.51100000000E-03 0. -1.
         11   -1    0    0    0    0 -0.00000000000E+00 -0.00000000000E+00 -0.45593999997E+02  0.45594000000E+02  0.51100000000E-03 0.  1.
    9900012    2    1    2    0    0 -0.25500839535E+02 -0.66160090852E+01  0.17962613283E+02  0.59301954947E+02  0.50000019913E+02 0.  0.
        -12    1    1    2    0    0  0.25500839535E+02  0.66160090852E+01 -0.17962613283E+02  0.31886045053E+02  0.00000000000E+00 0.  1.
         11    1    3    3    0    0 -0.21027735518E+02  0.17368601381E+02 -0.17335294026E+01  0.27328357057E+02  0.51100000000E-03 0. -1.
        -11    1    3    3    0    0 -0.49704199544E+01 -0.14343328704E+02  0.93780234370E+01  0.17843303413E+02  0.51100000000E-03 0.  1.
         12    1    3    3    0    0  0.49731593825E+00 -0.96412817626E+01  0.10318119249E+02  0.14130294477E+02  0.00000000000E+00 0. -1.
</event>
<event>
 7    1  0.1139627E-011  0.5930202E+02  0.7816164E-02  0.1266605E+00
        -11   -1    0    0    0    0  0.00000000000E+00  0.00000000000E+00  0.45593999997E+02  0.45594000000E+02  0.51100000000E-03 0.  1.
         11   -1    0    0    0    0 -0.00000000000E+00 -0.00000000000E+00 -0.45593999997E+02  0.45594000000E+02  0.51100000000E-03 0. -1.
    9900012    2    1    2    0    0  0.26800618559E+02 -0.76017640414E+01 -0.15513087560E+02  0.59302017855E+02  0.50000134644E+02 0.  0.
        -12    1    1    2    0    0 -0.26800618559E+02  0.76017640414E+01  0.15513087560E+02  0.31885982145E+02  0.00000000000E+00 0.  1.
         11    1    3    3    0    0  0.33483416787E+02 -0.19658922942E+02 -0.20083192726E+02  0.43714380715E+02  0.51100000000E-03 0. -1.
        -11    1    3    3    0    0 -0.38802369353E+01  0.36656962117E+01 -0.54930033507E+00  0.53661250926E+01  0.51100000000E-03 0.  1.
         12    1    3    3    0    0 -0.28025612933E+01  0.83914626886E+01  0.51194055006E+01  0.10221512047E+02  0.00000000000E+00 0. -1.
</event>
<event>
 7    1  0.1139627E-011  0.5930193E+02  0.7816164E-02  0.1266605E+00
        -11   -1    0    0    0    0  0.00000000000E+00  0.00000000000E+00  0.45593999997E+02  0.45594000000E+02  0.51100000000E-03 0.  1.
         11   -1    0    0    0    0 -0.00000000000E+00 -0.00000000000E+00 -0.45593999997E+02  0.45594000000E+02  0.51100000000E-03 0. -1.
    9900012    2    1    2    0    0  0.29180194096E+02 -0.10555057172E+02 -0.73367735604E+01  0.59301933989E+02  0.49999981692E+02 0.  0.
        -12    1    1    2    0    0 -0.29180194096E+02  0.10555057172E+02  0.73367735604E+01  0.31886066011E+02  0.00000000000E+00 0.  1.
         11    1    3    3    0    0  0.10407847160E+02  0.53545816932E+00 -0.19783143211E+02  0.22360294128E+02  0.51100000000E-03 0.  1.
        -11    1    3    3    0    0  0.13857426638E+02 -0.19266670659E+02  0.37383510737E+01  0.24025156406E+02  0.51100000000E-03 0. -1.
        -12    1    3    3    0    0  0.49149202983E+01  0.81761553177E+01  0.87080185767E+01  0.12916483455E+02  0.00000000000E+00 0.  1.
</event>
<event>
 7    1  0.1139627E-011  0.5930193E+02  0.7816164E-02  0.1266605E+00
        -11   -1    0    0    0    0  0.00000000000E+00  0.00000000000E+00  0.45593999997E+02  0.45594000000E+02  0.51100000000E-03 0.  1.
         11   -1    0    0    0    0 -0.00000000000E+00 -0.00000000000E+00 -0.45593999997E+02  0.45594000000E+02  0.51100000000E-03 0. -1.
    9900012    2    1    2    0    0  0.22610263643E+02 -0.25377352646E+01 -0.22339590139E+02  0.59301930787E+02  0.49999975853E+02 0.  0.
        -12    1    1    2    0    0 -0.22610263643E+02  0.25377352646E+01  0.22339590139E+02  0.31886069213E+02  0.00000000000E+00 0.  1.
         11    1    3    3    0    0  0.18895294797E+02 -0.58834309128E+01 -0.22672737979E+02  0.30094849601E+02  0.51100000000E-03 0. -1.
        -11    1    3    3    0    0  0.17930226770E+01  0.16153248758E+02  0.25822910792E-01  0.16252478053E+02  0.51100000000E-03 0.  1.
         12    1    3    3    0    0  0.19219461684E+01 -0.12807553110E+02  0.30732492992E+00  0.12954603134E+02  0.00000000000E+00 0. -1.
</event>
<event>
 7    1  0.1139627E-011  0.5930197E+02  0.7816164E-02  0.1266605E+00
        -11   -1    0    0    0    0  0.00000000000E+00  0.00000000000E+00  0.45593999997E+02  0.45594000000E+02  0.51100000000E-03 0.  1.
         11   -1    0    0    0    0 -0.00000000000E+00 -0.00000000000E+00 -0.45593999997E+02  0.45594000000E+02  0.51100000000E-03 0. -1.
    9900012    2    1    2    0    0  0.15637313686E+02 -0.20498219348E+02 -0.18762102357E+02  0.59301967625E+02  0.50000043036E+02 0.  0.
        -12    1    1    2    0    0 -0.15637313686E+02  0.20498219348E+02  0.18762102357E+02  0.31886032375E+02  0.00000000000E+00 0.  1.
         11    1    3    3    0    0  0.10253470882E+02  0.68541958828E+01  0.41573053141E+01  0.13015254668E+02  0.51100000000E-03 0. -1.
        -11    1    3    3    0    0 -0.97790187720E+01 -0.19838497516E+02 -0.73929732600E+01  0.23320618468E+02  0.51100000000E-03 0.  1.
         12    1    3    3    0    0  0.15162861576E+02 -0.75139177151E+01 -0.15526434411E+02  0.22966094490E+02  0.00000000000E+00 0. -1.
</event>
<event>
 7    1  0.1139627E-011  0.5930212E+02  0.7816164E-02  0.1266604E+00
        -11   -1    0    0    0    0  0.00000000000E+00  0.00000000000E+00  0.45593999997E+02  0.45594000000E+02  0.51100000000E-03 0.  1.
         11   -1    0    0    0    0 -0.00000000000E+00 -0.00000000000E+00 -0.45593999997E+02  0.45594000000E+02  0.51100000000E-03 0. -1.
    9900012    2    1    2    0    0  0.17158246291E+02 -0.24096471212E+02  0.11902262135E+02  0.59302122490E+02  0.50000325471E+02 0.  0.
        -12    1    1    2    0    0 -0.17158246291E+02  0.24096471212E+02 -0.11902262135E+02  0.31885877510E+02  0.00000000000E+00 0.  1.
         11    1    3    3    0    0  0.15373991560E+02 -0.76955752691E+01  0.10768804855E+02  0.20286661960E+02  0.51100000000E-03 0. -1.
        -11    1    3    3    0    0 -0.17847452586E+00 -0.27446398459E+02  0.31153363460E+01  0.27623214193E+02  0.51100000000E-03 0.  1.
        -12    1    3    3    0    0  0.19627292569E+01  0.11045502516E+02 -0.19818790659E+01  0.11392246337E+02  0.00000000000E+00 0.  1.
</event>
<event>
 7    1  0.1139627E-011  0.5930194E+02  0.7816164E-02  0.1266605E+00
        -11   -1    0    0    0    0  0.00000000000E+00  0.00000000000E+00  0.45593999997E+02  0.45594000000E+02  0.51100000000E-03 0.  1.
         11   -1    0    0    0    0 -0.00000000000E+00 -0.00000000000E+00 -0.45593999997E+02  0.45594000000E+02  0.51100000000E-03 0. -1.
    9900012    2    1    2    0    0  0.91500955436E+01  0.47793683231E+01 -0.30168757495E+02  0.59301944446E+02  0.50000000762E+02 0.  0.
        -12    1    1    2    0    0 -0.91500955436E+01 -0.47793683231E+01  0.30168757495E+02  0.31886055554E+02  0.00000000000E+00 0.  1.
         11    1    3    3    0    0 -0.87214491577E+01 -0.97642809307E+01  0.23725537602E+00  0.13094317389E+02  0.51100000000E-03 0.  1.
        -11    1    3    3    0    0  0.22153009913E+02  0.18458927525E+02 -0.26863574967E+02  0.39409891066E+02  0.51100000000E-03 0. -1.
         12    1    3    3    0    0 -0.42814652117E+01 -0.39152782710E+01 -0.35424379045E+01  0.67977359911E+01  0.00000000000E+00 0. -1.
</event>
<event>
 7    1  0.1139627E-011  0.5930192E+02  0.7816164E-02  0.1266605E+00
        -11   -1    0    0    0    0  0.00000000000E+00  0.00000000000E+00  0.45593999997E+02  0.45594000000E+02  0.51100000000E-03 0. -1.
         11   -1    0    0    0    0 -0.00000000000E+00 -0.00000000000E+00 -0.45593999997E+02  0.45594000000E+02  0.51100000000E-03 0.  1.
    9900012    2    1    2    0    0  0.24668361330E+02 -0.17823692208E+02 -0.95136834389E+01  0.59301917970E+02  0.49999952477E+02 0.  0.
        -12    1    1    2    0    0 -0.24668361330E+02  0.17823692208E+02  0.95136834389E+01  0.31886082030E+02  0.00000000000E+00 0.  1.
         11    1    3    3    0    0  0.35781219221E+02 -0.60850498160E+01 -0.13839384731E+02  0.38843944833E+02  0.51100000000E-03 0. -1.
        -11    1    3    3    0    0 -0.89900786843E+01 -0.12772388524E+02  0.10232661684E+00  0.15619407619E+02  0.51100000000E-03 0.  1.
         12    1    3    3    0    0 -0.21227792068E+01  0.10337461319E+01  0.42233746755E+01  0.48385655184E+01  0.00000000000E+00 0. -1.
</event>
<event>
 7    1  0.1139627E-011  0.5930195E+02  0.7816164E-02  0.1266605E+00
        -11   -1    0    0    0    0  0.00000000000E+00  0.00000000000E+00  0.45593999997E+02  0.45594000000E+02  0.51100000000E-03 0.  1.
         11   -1    0    0    0    0 -0.00000000000E+00 -0.00000000000E+00 -0.45593999997E+02  0.45594000000E+02  0.51100000000E-03 0. -1.
    9900012    2    1    2    0    0  0.84503808140E+01  0.38846173043E+00 -0.30743462178E+02  0.59301948110E+02  0.50000007446E+02 0.  0.
        -12    1    1    2    0    0 -0.84503808140E+01 -0.38846173043E+00  0.30743462178E+02  0.31886051890E+02  0.00000000000E+00 0.  1.
         11    1    3    3    0    0  0.10352561579E+02  0.20445837071E+00 -0.42751141424E+02  0.43987241647E+02  0.51100000000E-03 0. -1.
        -11    1    3    3    0    0  0.68557155739E+00 -0.40641980614E+01  0.32737144541E+01  0.52635464119E+01  0.51100000000E-03 0.  1.
         12    1    3    3    0    0 -0.25877523219E+01  0.42482014211E+01  0.87339647914E+01  0.10051160051E+02  0.00000000000E+00 0. -1.
</event>
<event>
 7    1  0.1139627E-011  0.5930195E+02  0.7816164E-02  0.1266605E+00
        -11   -1    0    0    0    0  0.00000000000E+00  0.00000000000E+00  0.45593999997E+02  0.45594000000E+02  0.51100000000E-03 0.  1.
         11   -1    0    0    0    0 -0.00000000000E+00 -0.00000000000E+00 -0.45593999997E+02  0.45594000000E+02  0.51100000000E-03 0. -1.
    9900012    2    1    2    0    0  0.23347485473E+02 -0.39417568264E+01 -0.21355974929E+02  0.59301949916E+02  0.50000010739E+02 0.  0.
        -12    1    1    2    0    0 -0.23347485473E+02  0.39417568264E+01  0.21355974929E+02  0.31886050084E+02  0.00000000000E+00 0.  1.
         11    1    3    3    0    0  0.17178069383E+02 -0.23608198303E+02 -0.12450434623E+02  0.31740296429E+02  0.51100000000E-03 0. -1.
        -11    1    3    3    0    0 -0.30505092343E+01  0.11991698360E+02  0.39889329769E+00  0.12380046537E+02  0.51100000000E-03 0.  1.
        -12    1    3    3    0    0  0.92199253239E+01  0.76747431170E+01 -0.93044336039E+01  0.15181606950E+02  0.00000000000E+00 0.  1.
</event>
<event>
 7    1  0.1139627E-011  0.5930190E+02  0.7816164E-02  0.1266605E+00
        -11   -1    0    0    0    0  0.00000000000E+00  0.00000000000E+00  0.45593999997E+02  0.45594000000E+02  0.51100000000E-03 0.  1.
         11   -1    0    0    0    0 -0.00000000000E+00 -0.00000000000E+00 -0.45593999997E+02  0.45594000000E+02  0.51100000000E-03 0. -1.
    9900012    2    1    2    0    0  0.30579030717E+02  0.72400267992E+01 -0.54062882316E+01  0.59301904910E+02  0.49999928659E+02 0.  0.
        -12    1    1    2    0    0 -0.30579030717E+02 -0.72400267992E+01  0.54062882316E+01  0.31886095090E+02  0.00000000000E+00 0.  1.
         11    1    3    3    0    0  0.60219532085E+01  0.93785385090E+01  0.43465909016E+01  0.11963016247E+02  0.51100000000E-03 0. -1.
        -11    1    3    3    0    0  0.35279665564E+02 -0.20729744327E+00 -0.58281233601E+01  0.35758422738E+02  0.51100000000E-03 0.  1.
        -12    1    3    3    0    0 -0.10722588056E+02 -0.19312142665E+01 -0.39247557730E+01  0.11580465925E+02  0.00000000000E+00 0.  1.
</event>
<event>
 7    1  0.1139627E-011  0.5930191E+02  0.7816164E-02  0.1266605E+00
        -11   -1    0    0    0    0  0.00000000000E+00  0.00000000000E+00  0.45593999997E+02  0.45594000000E+02  0.51100000000E-03 0. -1.
         11   -1    0    0    0    0 -0.00000000000E+00 -0.00000000000E+00 -0.45593999997E+02  0.45594000000E+02  0.51100000000E-03 0.  1.
    9900012    2    1    2    0    0  0.36152936951E+01 -0.30520997070E+02 -0.84924055473E+01  0.59301912711E+02  0.49999942886E+02 0.  0.
        -12    1    1    2    0    0 -0.36152936951E+01  0.30520997070E+02  0.84924055473E+01  0.31886087289E+02  0.00000000000E+00 0.  1.
         11    1    3    3    0    0  0.92687859145E+01 -0.85519704762E+01 -0.90035566634E+00  0.12643465978E+02  0.51100000000E-03 0. -1.
        -11    1    3    3    0    0 -0.17268073753E+02 -0.11350547116E+02  0.10082731624E+02  0.22993102623E+02  0.51100000000E-03 0.  1.
        -12    1    3    3    0    0  0.11614581533E+02 -0.10618479478E+02 -0.17674781505E+02  0.23665344110E+02  0.00000000000E+00 0.  1.
</event>
<event>
 7    1  0.1139627E-011  0.5930195E+02  0.7816164E-02  0.1266605E+00
        -11   -1    0    0    0    0  0.00000000000E+00  0.00000000000E+00  0.45593999997E+02  0.45594000000E+02  0.51100000000E-03 0.  1.
         11   -1    0    0    0    0 -0.00000000000E+00 -0.00000000000E+00 -0.45593999997E+02  0.45594000000E+02  0.51100000000E-03 0. -1.
    9900012    2    1    2    0    0  0.11360600255E+02 -0.29682257598E+02  0.25730305109E+01  0.59301950695E+02  0.50000012160E+02 0.  0.
        -12    1    1    2    0    0 -0.11360600255E+02  0.29682257598E+02 -0.25730305109E+01  0.31886049305E+02  0.00000000000E+00 0.  1.
         11    1    3    3    0    0  0.25387101740E+02 -0.18352996498E+02 -0.35145204798E+01  0.31522837272E+02  0.51100000000E-03 0. -1.
        -11    1    3    3    0    0 -0.15393228553E+01 -0.73630730560E+01  0.11385958633E+02  0.13646406631E+02  0.51100000000E-03 0.  1.
         12    1    3    3    0    0 -0.12487178630E+02 -0.39661880436E+01 -0.52984076425E+01  0.14132706792E+02  0.00000000000E+00 0. -1.
</event>
<event>
 7    1  0.1139627E-011  0.5930189E+02  0.7816164E-02  0.1266605E+00
        -11   -1    0    0    0    0  0.00000000000E+00  0.00000000000E+00  0.45593999997E+02  0.45594000000E+02  0.51100000000E-03 0.  1.
         11   -1    0    0    0    0 -0.00000000000E+00 -0.00000000000E+00 -0.45593999997E+02  0.45594000000E+02  0.51100000000E-03 0. -1.
    9900012    2    1    2    0    0 -0.43035142521E+01  0.23617577812E+02 -0.20986036795E+02  0.59301890846E+02  0.49999903009E+02 0.  0.
        -12    1    1    2    0    0  0.43035142521E+01 -0.23617577812E+02  0.20986036795E+02  0.31886109154E+02  0.00000000000E+00 0.  1.
         11    1    3    3    0    0 -0.75500191726E+01  0.18356601679E+02 -0.36967189212E+02  0.41958797567E+02  0.51100000000E-03 0. -1.
        -11    1    3    3    0    0  0.11584321234E+01  0.40351600566E+01  0.85063519389E+01  0.94859108807E+01  0.51100000000E-03 0.  1.
         12    1    3    3    0    0  0.20880727971E+01  0.12258160758E+01  0.74748004783E+01  0.78571823988E+01  0.00000000000E+00 0. -1.
</event>
<event>
 7    1  0.1139627E-011  0.5930186E+02  0.7816164E-02  0.1266605E+00
        -11   -1    0    0    0    0  0.00000000000E+00  0.00000000000E+00  0.45593999997E+02  0.45594000000E+02  0.51100000000E-03 0.  1.
         11   -1    0    0    0    0 -0.00000000000E+00 -0.00000000000E+00 -0.45593999997E+02  0.45594000000E+02  0.51100000000E-03 0. -1.
    9900012    2    1    2    0    0 -0.15817000440E+02  0.22617309076E+02 -0.15968899548E+02  0.59301859978E+02  0.49999846713E+02 0.  0.
        -12    1    1    2    0    0  0.15817000440E+02 -0.22617309076E+02  0.15968899548E+02  0.31886140022E+02  0.00000000000E+00 0.  1.
         11    1    3    3    0    0  0.13634010569E+01  0.24891323285E+02  0.10676656903E+02  0.27118772837E+02  0.51100000000E-03 0. -1.
        -11    1    3    3    0    0 -0.96246805897E+01 -0.52333122696E+00 -0.18931957049E+02  0.21244466338E+02  0.51100000000E-03 0.  1.
         12    1    3    3    0    0 -0.75557209067E+01 -0.17506829826E+01 -0.77135994025E+01  0.10938620803E+02  0.00000000000E+00 0. -1.
</event>
<event>
 7    1  0.1139627E-011  0.5930198E+02  0.7816164E-02  0.1266605E+00
        -11   -1    0    0    0    0  0.00000000000E+00  0.00000000000E+00  0.45593999997E+02  0.45594000000E+02  0.51100000000E-03 0.  1.
         11   -1    0    0    0    0 -0.00000000000E+00 -0.00000000000E+00 -0.45593999997E+02  0.45594000000E+02  0.51100000000E-03 0. -1.
    9900012    2    1    2    0    0 -0.39743233856E+01  0.22618612341E+02 -0.22120612728E+02  0.59301978328E+02  0.50000062555E+02 0.  0.
        -12    1    1    2    0    0  0.39743233856E+01 -0.22618612341E+02  0.22120612728E+02  0.31886021672E+02  0.00000000000E+00 0.  1.
         11    1    3    3    0    0  0.61173445011E+01  0.23760275868E+02 -0.17205821784E+02  0.29966863643E+02  0.51100000000E-03 0. -1.
        -11    1    3    3    0    0 -0.79777411557E+01 -0.13503701394E+02 -0.58948444112E+01  0.16755402000E+02  0.51100000000E-03 0.  1.
         12    1    3    3    0    0 -0.21139267311E+01  0.12362037867E+02  0.98005346692E+00  0.12579712685E+02  0.00000000000E+00 0. -1.
</event>
<event>
 7    1  0.1139627E-011  0.5930213E+02  0.7816164E-02  0.1266604E+00
        -11   -1    0    0    0    0  0.00000000000E+00  0.00000000000E+00  0.45593999997E+02  0.45594000000E+02  0.51100000000E-03 0.  1.
         11   -1    0    0    0    0 -0.00000000000E+00 -0.00000000000E+00 -0.45593999997E+02  0.45594000000E+02  0.51100000000E-03 0. -1.
    9900012    2    1    2    0    0  0.91564708093E+01 -0.30070483093E+02  0.53510293615E+01  0.59302134380E+02  0.50000347155E+02 0.  0.
        -12    1    1    2    0    0 -0.91564708093E+01  0.30070483093E+02 -0.53510293615E+01  0.31885865620E+02  0.00000000000E+00 0.  1.
         11    1    3    3    0    0  0.58509624011E+00 -0.61707324095E+00 -0.75680618408E+01  0.76156862647E+01  0.51100000000E-03 0. -1.
        -11    1    3    3    0    0  0.13405512418E+02 -0.28512776707E+02  0.23969585498E+02  0.39588220822E+02  0.51100000000E-03 0.  1.
        -12    1    3    3    0    0 -0.48341378485E+01 -0.94063314535E+00 -0.11050494295E+02  0.12098227293E+02  0.00000000000E+00 0.  1.
</event>
<event>
 7    1  0.1139627E-011  0.5930195E+02  0.7816164E-02  0.1266605E+00
        -11   -1    0    0    0    0  0.00000000000E+00  0.00000000000E+00  0.45593999997E+02  0.45594000000E+02  0.51100000000E-03 0.  1.
         11   -1    0    0    0    0 -0.00000000000E+00 -0.00000000000E+00 -0.45593999997E+02  0.45594000000E+02  0.51100000000E-03 0. -1.
    9900012    2    1    2    0    0 -0.15557219432E+02 -0.45976411142E+01 -0.27450949116E+02  0.59301953088E+02  0.50000016524E+02 0.  0.
        -12    1    1    2    0    0  0.15557219432E+02  0.45976411142E+01  0.27450949116E+02  0.31886046912E+02  0.00000000000E+00 0.  1.
         11    1    3    3    0    0 -0.13920741293E+02  0.13159798484E+02  0.12371726933E+01  0.19196299925E+02  0.51100000000E-03 0. -1.
        -11    1    3    3    0    0  0.96195194992E+01 -0.45076680867E+01 -0.10202887929E+02  0.14729329561E+02  0.51100000000E-03 0.  1.
         12    1    3    3    0    0 -0.11255997638E+02 -0.13249771511E+02 -0.18485233880E+02  0.25376323602E+02  0.00000000000E+00 0. -1.
</event>
<event>
 7    1  0.1139627E-011  0.5930193E+02  0.7816164E-02  0.1266605E+00
        -11   -1    0    0    0    0  0.00000000000E+00  0.00000000000E+00  0.45593999997E+02  0.45594000000E+02  0.51100000000E-03 0. -1.
         11   -1    0    0    0    0 -0.00000000000E+00 -0.00000000000E+00 -0.45593999997E+02  0.45594000000E+02  0.51100000000E-03 0.  1.
    9900012    2    1    2    0    0  0.24894861791E+02  0.17433320725E+01  0.19847618796E+02  0.59301932162E+02  0.49999978359E+02 0.  0.
        -12    1    1    2    0    0 -0.24894861791E+02 -0.17433320725E+01 -0.19847618796E+02  0.31886067838E+02  0.00000000000E+00 0.  1.
         11    1    3    3    0    0  0.17449498592E+02  0.81199396437E+01  0.21235761253E+02  0.28659657660E+02  0.51100000000E-03 0. -1.
        -11    1    3    3    0    0  0.13282880926E+02 -0.53484468848E+01 -0.11870763486E+02  0.18599888058E+02  0.51100000000E-03 0.  1.
        -12    1    3    3    0    0 -0.58375177272E+01 -0.10281606864E+01  0.10482621029E+02  0.12042386443E+02  0.00000000000E+00 0.  1.
</event>
<event>
 7    1  0.1139627E-011  0.5930195E+02  0.7816164E-02  0.1266605E+00
        -11   -1    0    0    0    0  0.00000000000E+00  0.00000000000E+00  0.45593999997E+02  0.45594000000E+02  0.51100000000E-03 0.  1.
         11   -1    0    0    0    0 -0.00000000000E+00 -0.00000000000E+00 -0.45593999997E+02  0.45594000000E+02  0.51100000000E-03 0. -1.
    9900012    2    1    2    0    0 -0.11266271870E+02  0.18857996919E+02 -0.23112059267E+02  0.59301949552E+02  0.50000010074E+02 0.  0.
        -12    1    1    2    0    0  0.11266271870E+02 -0.18857996919E+02  0.23112059267E+02  0.31886050448E+02  0.00000000000E+00 0.  1.
         11    1    3    3    0    0  0.49980960338E+01  0.23267700646E+01 -0.23043714866E+02  0.23694041825E+02  0.51100000000E-03 0. -1.
        -11    1    3    3    0    0 -0.79220831449E+01 -0.10795337525E+01  0.10689578442E+02  0.13348853209E+02  0.51100000000E-03 0.  1.
         12    1    3    3    0    0 -0.83422847588E+01  0.17610760607E+02 -0.10757922843E+02  0.22259054518E+02  0.00000000000E+00 0. -1.
</event>
<event>
 7    1  0.1139627E-011  0.5930194E+02  0.7816164E-02  0.1266605E+00
        -11   -1    0    0    0    0  0.00000000000E+00  0.00000000000E+00  0.45593999997E+02  0.45594000000E+02  0.51100000000E-03 0.  1.
         11   -1    0    0    0    0 -0.00000000000E+00 -0.00000000000E+00 -0.45593999997E+02  0.45594000000E+02  0.51100000000E-03 0. -1.
    9900012    2    1    2    0    0 -0.37760230679E+01  0.25765896424E+02 -0.18400565377E+02  0.59301943879E+02  0.49999999729E+02 0.  0.
        -12    1    1    2    0    0  0.37760230679E+01 -0.25765896424E+02  0.18400565377E+02  0.31886056121E+02  0.00000000000E+00 0.  1.
         11    1    3    3    0    0  0.73469425659E+01  0.16758426991E+02 -0.55840543819E+01  0.19131233726E+02  0.51100000000E-03 0. -1.
        -11    1    3    3    0    0  0.78538055120E+01 -0.89515264705E+01 -0.48198961157E+01  0.12846925157E+02  0.51100000000E-03 0.  1.
        -12    1    3    3    0    0 -0.18976771146E+02  0.17958995904E+02 -0.79966148791E+01  0.27323784996E+02  0.00000000000E+00 0.  1.
</event>
<event>
 7    1  0.1139627E-011  0.5930194E+02  0.7816164E-02  0.1266605E+00
        -11   -1    0    0    0    0  0.00000000000E+00  0.00000000000E+00  0.45593999997E+02  0.45594000000E+02  0.51100000000E-03 0.  1.
         11   -1    0    0    0    0 -0.00000000000E+00 -0.00000000000E+00 -0.45593999997E+02  0.45594000000E+02  0.51100000000E-03 0. -1.
    9900012    2    1    2    0    0 -0.22736300717E+02  0.19930277145E+02 -0.10127471250E+02  0.59301937351E+02  0.49999987822E+02 0.  0.
        -12    1    1    2    0    0  0.22736300717E+02 -0.19930277145E+02  0.10127471250E+02  0.31886062649E+02  0.00000000000E+00 0.  1.
         11    1    3    3    0    0  0.11142037625E+02  0.65709453680E+01 -0.13287068215E+02  0.18543691851E+02  0.51100000000E-03 0. -1.
        -11    1    3    3    0    0 -0.14819797260E+02 -0.34542585909E+01  0.14424137691E+01  0.15285249458E+02  0.51100000000E-03 0.  1.
         12    1    3    3    0    0 -0.19058541082E+02  0.16813590368E+02  0.17171831961E+01  0.25472996042E+02  0.00000000000E+00 0. -1.
</event>
<event>
 7    1  0.1139627E-011  0.5930195E+02  0.7816164E-02  0.1266605E+00
        -11   -1    0    0    0    0  0.00000000000E+00  0.00000000000E+00  0.45593999997E+02  0.45594000000E+02  0.51100000000E-03 0. -1.
         11   -1    0    0    0    0 -0.00000000000E+00 -0.00000000000E+00 -0.45593999997E+02  0.45594000000E+02  0.51100000000E-03 0.  1.
    9900012    2    1    2    0    0 -0.17515606903E+02  0.63325840742E+01 -0.25880921291E+02  0.59301949867E+02  0.50000010649E+02 0.  0.
        -12    1    1    2    0    0  0.17515606903E+02 -0.63325840742E+01  0.25880921291E+02  0.31886050133E+02  0.00000000000E+00 0.  1.
         11    1    3    3    0    0  0.11216556560E+01  0.14195104568E+02 -0.42700490963E+01  0.14865813958E+02  0.51100000000E-03 0. -1.
        -11    1    3    3    0    0 -0.96564811160E+01 -0.19898036656E+02 -0.63159876804E+01  0.23001547577E+02  0.51100000000E-03 0.  1.
        -12    1    3    3    0    0 -0.89807814426E+01  0.12035516163E+02 -0.15294884515E+02  0.21434588331E+02  0.00000000000E+00 0.  1.
</event>
<event>
 7    1  0.1139627E-011  0.5930194E+02  0.7816164E-02  0.1266605E+00
        -11   -1    0    0    0    0  0.00000000000E+00  0.00000000000E+00  0.45593999997E+02  0.45594000000E+02  0.51100000000E-03 0.  1.
         11   -1    0    0    0    0 -0.00000000000E+00 -0.00000000000E+00 -0.45593999997E+02  0.45594000000E+02  0.51100000000E-03 0. -1.
    9900012    2    1    2    0    0  0.53444429157E+01 -0.30973372491E+02  0.53673295249E+01  0.59301935650E+02  0.49999984721E+02 0.  0.
        -12    1    1    2    0    0 -0.53444429157E+01  0.30973372491E+02 -0.53673295249E+01  0.31886064350E+02  0.00000000000E+00 0.  1.
         11    1    3    3    0    0 -0.10066408636E+02 -0.31914726214E+02  0.88410256256E+01  0.34612802061E+02  0.51100000000E-03 0. -1.
        -11    1    3    3    0    0  0.84950582469E+01 -0.81502138076E+01  0.21332865852E+01  0.11964234687E+02  0.51100000000E-03 0.  1.
         12    1    3    3    0    0  0.69157933053E+01  0.90915675311E+01 -0.56069826860E+01  0.12724898902E+02  0.00000000000E+00 0. -1.
</event>
<event>
 7    1  0.1139627E-011  0.5930193E+02  0.7816164E-02  0.1266605E+00
        -11   -1    0    0    0    0  0.00000000000E+00  0.00000000000E+00  0.45593999997E+02  0.45594000000E+02  0.51100000000E-03 0. -1.
         11   -1    0    0    0    0 -0.00000000000E+00 -0.00000000000E+00 -0.45593999997E+02  0.45594000000E+02  0.51100000000E-03 0.  1.
    9900012    2    1    2    0    0 -0.33246940389E+01 -0.13031229062E+02  0.28911159365E+02  0.59301926910E+02  0.49999968781E+02 0.  0.
        -12    1    1    2    0    0  0.33246940389E+01  0.13031229062E+02 -0.28911159365E+02  0.31886073090E+02  0.00000000000E+00 0.  1.
         11    1    3    3    0    0 -0.91572581324E+01  0.54147675692E+01  0.12357599957E+02  0.16305991576E+02  0.51100000000E-03 0.  1.
        -11    1    3    3    0    0 -0.27459902205E+01 -0.20052588274E+02 -0.40312883763E+01  0.20637297425E+02  0.51100000000E-03 0. -1.
        -12    1    3    3    0    0  0.85785543141E+01  0.16065916427E+01  0.20584847784E+02  0.22358637908E+02  0.00000000000E+00 0.  1.
</event>
<event>
 7    1  0.1139627E-011  0.5930193E+02  0.7816164E-02  0.1266605E+00
        -11   -1    0    0    0    0  0.00000000000E+00  0.00000000000E+00  0.45593999997E+02  0.45594000000E+02  0.51100000000E-03 0.  1.
         11   -1    0    0    0    0 -0.00000000000E+00 -0.00000000000E+00 -0.45593999997E+02  0.45594000000E+02  0.51100000000E-03 0. -1.
    9900012    2    1    2    0    0  0.23959791626E+00 -0.81758058442E+01 -0.30819153905E+02  0.59301930067E+02  0.49999974539E+02 0.  0.
        -12    1    1    2    0    0 -0.23959791626E+00  0.81758058442E+01  0.30819153905E+02  0.31886069933E+02  0.00000000000E+00 0.  1.
         11    1    3    3    0    0 -0.14988854698E+02  0.84272142475E+01 -0.23270475255E+02  0.28934386532E+02  0.51100000000E-03 0.  1.
        -11    1    3    3    0    0  0.19507415808E+02 -0.13601940215E+02 -0.80744026362E+01  0.25114697436E+02  0.51100000000E-03 0. -1.
         12    1    3    3    0    0 -0.42789631932E+01 -0.30010798770E+01  0.52572398628E+00  0.52528460996E+01  0.00000000000E+00 0. -1.
</event>
<event>
 7    1  0.1139627E-011  0.5930196E+02  0.7816164E-02  0.1266605E+00
        -11   -1    0    0    0    0  0.00000000000E+00  0.00000000000E+00  0.45593999997E+02  0.45594000000E+02  0.51100000000E-03 0.  1.
         11   -1    0    0    0    0 -0.00000000000E+00 -0.00000000000E+00 -0.45593999997E+02  0.45594000000E+02  0.51100000000E-03 0. -1.
    9900012    2    1    2    0    0  0.21943630628E+02  0.28271072336E+00 -0.23132593508E+02  0.59301957082E+02  0.50000023809E+02 0.  0.
        -12    1    1    2    0    0 -0.21943630628E+02 -0.28271072336E+00  0.23132593508E+02  0.31886042918E+02  0.00000000000E+00 0.  1.
         11    1    3    3    0    0  0.24362152675E+02 -0.85726476205E+01 -0.22888623265E+02  0.34509329832E+02  0.51100000000E-03 0. -1.
        -11    1    3    3    0    0  0.77795410595E+00  0.15493268484E+02  0.43488621592E+01  0.16110840551E+02  0.51100000000E-03 0.  1.
         12    1    3    3    0    0 -0.31964761526E+01 -0.66379101404E+01 -0.45928324025E+01  0.86817867000E+01  0.00000000000E+00 0. -1.
</event>
<event>
 7    1  0.1139627E-011  0.5930194E+02  0.7816164E-02  0.1266605E+00
        -11   -1    0    0    0    0  0.00000000000E+00  0.00000000000E+00  0.45593999997E+02  0.45594000000E+02  0.51100000000E-03 0.  1.
         11   -1    0    0    0    0 -0.00000000000E+00 -0.00000000000E+00 -0.45593999997E+02  0.45594000000E+02  0.51100000000E-03 0. -1.
    9900012    2    1    2    0    0 -0.31076895425E+02 -0.63117071928E-01 -0.71374532368E+01  0.59301942675E+02  0.49999997533E+02 0.  0.
        -12    1    1    2    0    0  0.31076895425E+02  0.63117071928E-01  0.71374532368E+01  0.31886057325E+02  0.00000000000E+00 0.  1.
         11    1    3    3    0    0 -0.20253191197E+02 -0.52045888388E+01 -0.31864468575E+01  0.21152610772E+02  0.51100000000E-03 0. -1.
        -11    1    3    3    0    0  0.12356999049E+02 -0.18172522347E+01 -0.60072679798E+01  0.13859476903E+02  0.51100000000E-03 0.  1.
        -12    1    3    3    0    0 -0.23180703277E+02  0.69587240015E+01  0.20562616005E+01  0.24289855000E+02  0.00000000000E+00 0.  1.
</event>
<event>
 7    1  0.1139627E-011  0.5930195E+02  0.7816164E-02  0.1266605E+00
        -11   -1    0    0    0    0  0.00000000000E+00  0.00000000000E+00  0.45593999997E+02  0.45594000000E+02  0.51100000000E-03 0.  1.
         11   -1    0    0    0    0 -0.00000000000E+00 -0.00000000000E+00 -0.45593999997E+02  0.45594000000E+02  0.51100000000E-03 0. -1.
    9900012    2    1    2    0    0  0.22381532976E+02 -0.68014598309E+01 -0.21668582578E+02  0.59301947483E+02  0.50000006302E+02 0.  0.
        -12    1    1    2    0    0 -0.22381532976E+02  0.68014598309E+01  0.21668582578E+02  0.31886052517E+02  0.00000000000E+00 0.  1.
         11    1    3    3    0    0  0.95617157090E+01 -0.23224791822E+02 -0.15955316300E+02  0.29755494971E+02  0.51100000000E-03 0. -1.
        -11    1    3    3    0    0  0.69626065536E+01  0.75908052801E+01  0.74021389889E+01  0.12684237332E+02  0.51100000000E-03 0.  1.
         12    1    3    3    0    0  0.58572107130E+01  0.88325267114E+01 -0.13115405267E+02  0.16862215180E+02  0.00000000000E+00 0. -1.
</event>
<event>
 7    1  0.1139627E-011  0.5930191E+02  0.7816164E-02  0.1266605E+00
        -11   -1    0    0    0    0  0.00000000000E+00  0.00000000000E+00  0.45593999997E+02  0.45594000000E+02  0.51100000000E-03 0.  1.
         11   -1    0    0    0    0 -0.00000000000E+00 -0.00000000000E+00 -0.45593999997E+02  0.45594000000E+02  0.51100000000E-03 0. -1.
    9900012    2    1    2    0    0  0.15466995182E+02 -0.27039485947E+02  0.68088715118E+01  0.59301914140E+02  0.49999945492E+02 0.  0.
        -12    1    1    2    0    0 -0.15466995182E+02  0.27039485947E+02 -0.68088715118E+01  0.31886085860E+02  0.00000000000E+00 0.  1.
         11    1    3    3    0    0  0.27213642876E+02 -0.14154059814E+02  0.21166654602E+01  0.30747358272E+02  0.51100000000E-03 0. -1.
        -11    1    3    3    0    0 -0.94496444477E+01 -0.16511584768E+02  0.10188378451E+02  0.21580807850E+02  0.51100000000E-03 0.  1.
        -12    1    3    3    0    0 -0.22970032468E+01  0.36261586355E+01 -0.54961723993E+01  0.69737480172E+01  0.00000000000E+00 0.  1.
</event>
<event>
 7    1  0.1139627E-011  0.5930193E+02  0.7816164E-02  0.1266605E+00
        -11   -1    0    0    0    0  0.00000000000E+00  0.00000000000E+00  0.45593999997E+02  0.45594000000E+02  0.51100000000E-03 0. -1.
         11   -1    0    0    0    0 -0.00000000000E+00 -0.00000000000E+00 -0.45593999997E+02  0.45594000000E+02  0.51100000000E-03 0.  1.
    9900012    2    1    2    0    0  0.25302228745E+02 -0.17045268402E+02  0.92724054621E+01  0.59301930042E+02  0.49999974493E+02 0.  0.
        -12    1    1    2    0    0 -0.25302228745E+02  0.17045268402E+02 -0.92724054621E+01  0.31886069958E+02  0.00000000000E+00 0.  1.
         11    1    3    3    0    0  0.11627469226E+02  0.25346048212E+01  0.14079778387E+02  0.18435357927E+02  0.51100000000E-03 0. -1.
        -11    1    3    3    0    0 -0.12832108122E+01 -0.23362865975E+02 -0.86848032392E+01  0.24957883406E+02  0.51100000000E-03 0.  1.
        -12    1    3    3    0    0  0.14957970331E+02  0.37829927519E+01  0.38774303143E+01  0.15908688709E+02  0.00000000000E+00 0.  1.
</event>
<event>
 7    1  0.1139627E-011  0.5930210E+02  0.7816164E-02  0.1266604E+00
        -11   -1    0    0    0    0  0.00000000000E+00  0.00000000000E+00  0.45593999997E+02  0.45594000000E+02  0.51100000000E-03 0. -1.
         11   -1    0    0    0    0 -0.00000000000E+00 -0.00000000000E+00 -0.45593999997E+02  0.45594000000E+02  0.51100000000E-03 0.  1.
    9900012    2    1    2    0    0  0.57105766862E+00 -0.26391559392E+02 -0.17884905622E+02  0.59302104009E+02  0.50000291767E+02 0.  0.
        -12    1    1    2    0    0 -0.57105766862E+00  0.26391559392E+02  0.17884905622E+02  0.31885895991E+02  0.00000000000E+00 0.  1.
         11    1    3    3    0    0 -0.19413292351E+02 -0.84035776144E+01  0.52667627171E+00  0.21160657475E+02  0.51100000000E-03 0. -1.
        -11    1    3    3    0    0  0.19332957229E+01 -0.39771738837E+01 -0.14243211151E+02  0.14913906551E+02  0.51100000000E-03 0.  1.
         12    1    3    3    0    0  0.18051054296E+02 -0.14010807894E+02 -0.41683707431E+01  0.23227539984E+02  0.00000000000E+00 0. -1.
</event>
<event>
 7    1  0.1139627E-011  0.5930194E+02  0.7816164E-02  0.1266605E+00
        -11   -1    0    0    0    0  0.00000000000E+00  0.00000000000E+00  0.45593999997E+02  0.45594000000E+02  0.51100000000E-03 0.  1.
         11   -1    0    0    0    0 -0.00000000000E+00 -0.00000000000E+00 -0.45593999997E+02  0.45594000000E+02  0.51100000000E-03 0. -1.
    9900012    2    1    2    0    0 -0.19471709568E+02 -0.13593651613E+02 -0.21278762512E+02  0.59301943930E+02  0.49999999822E+02 0.  0.
        -12    1    1    2    0    0  0.19471709568E+02  0.13593651613E+02  0.21278762512E+02  0.31886056070E+02  0.00000000000E+00 0.  1.
         11    1    3    3    0    0 -0.12172722688E+02 -0.14576742050E+02 -0.71178636959E+01  0.20281039675E+02  0.51100000000E-03 0. -1.
        -11    1    3    3    0    0  0.83211422031E+01 -0.34918193452E+00  0.82159866701E+01  0.11698964604E+02  0.51100000000E-03 0.  1.
        -12    1    3    3    0    0 -0.15620129083E+02  0.13322723716E+01 -0.22376885486E+02  0.27321939651E+02  0.00000000000E+00 0.  1.
</event>
<event>
 7    1  0.1139627E-011  0.5930191E+02  0.7816164E-02  0.1266605E+00
        -11   -1    0    0    0    0  0.00000000000E+00  0.00000000000E+00  0.45593999997E+02  0.45594000000E+02  0.51100000000E-03 0. -1.
         11   -1    0    0    0    0 -0.00000000000E+00 -0.00000000000E+00 -0.45593999997E+02  0.45594000000E+02  0.51100000000E-03 0.  1.
    9900012    2    1    2    0    0 -0.81529049937E+01 -0.68300818320E+01  0.30059985138E+02  0.59301912373E+02  0.49999942269E+02 0.  0.
        -12    1    1    2    0    0  0.81529049937E+01  0.68300818320E+01 -0.30059985138E+02  0.31886087627E+02  0.00000000000E+00 0.  1.
         11    1    3    3    0    0 -0.14509339565E+02 -0.19094100776E+02  0.28011368452E+02  0.36874684838E+02  0.51100000000E-03 0. -1.
        -11    1    3    3    0    0 -0.48666368711E+01  0.90789206458E+01 -0.10557430971E+01  0.10354976981E+02  0.51100000000E-03 0.  1.
         12    1    3    3    0    0  0.11223071443E+02  0.31850982982E+01  0.31043597831E+01  0.12072250554E+02  0.00000000000E+00 0. -1.
</event>
<event>
 7    1  0.1139627E-011  0.5930187E+02  0.7816164E-02  0.1266605E+00
        -11   -1    0    0    0    0  0.00000000000E+00  0.00000000000E+00  0.45593999997E+02  0.45594000000E+02  0.51100000000E-03 0. -1.
         11   -1    0    0    0    0 -0.00000000000E+00 -0.00000000000E+00 -0.45593999997E+02  0.45594000000E+02  0.51100000000E-03 0.  1.
    9900012    2    1    2    0    0  0.31641158800E+02 -0.32740091555E+01 -0.22007831098E+01  0.59301866455E+02  0.49999858525E+02 0.  0.
        -12    1    1    2    0    0 -0.31641158800E+02  0.32740091555E+01  0.22007831098E+01  0.31886133545E+02  0.00000000000E+00 0.  1.
         11    1    3    3    0    0  0.10620536647E+02 -0.69994684550E+01  0.18212588100E+02  0.22214561055E+02  0.51100000000E-03 0. -1.
        -11    1    3    3    0    0 -0.15940142788E+01  0.68773371775E+01 -0.93476280807E+01  0.11713957451E+02  0.51100000000E-03 0.  1.
         12    1    3    3    0    0  0.22614636432E+02 -0.31518778779E+01 -0.11065743129E+02  0.25373347948E+02  0.00000000000E+00 0. -1.
</event>
<event>
 7    1  0.1473187E-011  0.5930195E+02  0.7816164E-02  0.1266605E+00
        -11   -1    0    0    0    0  0.00000000000E+00  0.00000000000E+00  0.45593999997E+02  0.45594000000E+02  0.51100000000E-03 0. -1.
         11   -1    0    0    0    0 -0.00000000000E+00 -0.00000000000E+00 -0.45593999997E+02  0.45594000000E+02  0.51100000000E-03 0.  1.
    9900012    2    1    2    0    0 -0.10690652418E+02 -0.17682568865E+02  0.24284913679E+02  0.59301947827E+02  0.50000006930E+02 0.  0.
        -12    1    1    2    0    0  0.10690652418E+02  0.17682568865E+02 -0.24284913679E+02  0.31886052173E+02  0.00000000000E+00 0.  1.
         11    1    3    3    0    0 -0.18099089265E+02 -0.14367303442E+02  0.24655925572E+02  0.33792175225E+02  0.51100000000E-03 0. -1.
        -11    1    3    3    0    0 -0.20643329552E+01  0.48054174327E+01 -0.89512227803E+01  0.10367154710E+02  0.51100000000E-03 0.  1.
         12    1    3    3    0    0  0.94727698019E+01 -0.81206828556E+01  0.85802108872E+01  0.15142617892E+02  0.00000000000E+00 0. -1.
</event>
<event>
 7    1  0.1139627E-011  0.5930195E+02  0.7816164E-02  0.1266605E+00
        -11   -1    0    0    0    0  0.00000000000E+00  0.00000000000E+00  0.45593999997E+02  0.45594000000E+02  0.51100000000E-03 0. -1.
         11   -1    0    0    0    0 -0.00000000000E+00 -0.00000000000E+00 -0.45593999997E+02  0.45594000000E+02  0.51100000000E-03 0.  1.
    9900012    2    1    2    0    0 -0.24762628953E+02 -0.25033705749E+01  0.19931525641E+02  0.59301947073E+02  0.50000005554E+02 0.  0.
        -12    1    1    2    0    0  0.24762628953E+02  0.25033705749E+01 -0.19931525641E+02  0.31886052927E+02  0.00000000000E+00 0.  1.
         11    1    3    3    0    0 -0.69660954908E+01 -0.25777729613E+01  0.29572136608E+01  0.79947803424E+01  0.51100000000E-03 0. -1.
        -11    1    3    3    0    0  0.15301003319E+02 -0.23974009271E+00  0.47545923743E+01  0.16024491468E+02  0.51100000000E-03 0.  1.
        -12    1    3    3    0    0 -0.33097536781E+02  0.31414247910E+00  0.12219719606E+02  0.35282675263E+02  0.00000000000E+00 0.  1.
</event>
<event>
 7    1  0.1139627E-011  0.5930183E+02  0.7816164E-02  0.1266605E+00
        -11   -1    0    0    0    0  0.00000000000E+00  0.00000000000E+00  0.45593999997E+02  0.45594000000E+02  0.51100000000E-03 0.  1.
         11   -1    0    0    0    0 -0.00000000000E+00 -0.00000000000E+00 -0.45593999997E+02  0.45594000000E+02  0.51100000000E-03 0. -1.
    9900012    2    1    2    0    0  0.31821146014E+02 -0.14980458116E+01  0.13778913215E+01  0.59301826517E+02  0.49999785688E+02 0.  0.
        -12    1    1    2    0    0 -0.31821146014E+02  0.14980458116E+01 -0.13778913215E+01  0.31886173483E+02  0.00000000000E+00 0.  1.
         11    1    3    3    0    0  0.99392514648E+01  0.45537685465E+01 -0.89574875678E+01  0.14133722491E+02  0.51100000000E-03 0. -1.
        -11    1    3    3    0    0 -0.10043314172E+02 -0.32396813975E+01 -0.21561772800E+01  0.10770923630E+02  0.51100000000E-03 0.  1.
        -12    1    3    3    0    0  0.31925208721E+02 -0.28121329606E+01  0.12491556169E+02  0.34397180396E+02  0.00000000000E+00 0.  1.
</event>
<event>
 7    1  0.1139627E-011  0.5930165E+02  0.7816164E-02  0.1266606E+00
        -11   -1    0    0    0    0  0.00000000000E+00  0.00000000000E+00  0.45593999997E+02  0.45594000000E+02  0.51100000000E-03 0.  1.
         11   -1    0    0    0    0 -0.00000000000E+00 -0.00000000000E+00 -0.45593999997E+02  0.45594000000E+02  0.51100000000E-03 0. -1.
    9900012    2    1    2    0    0  0.23433265753E+02 -0.29952381590E+01 -0.21416116841E+02  0.59301647809E+02  0.49999459766E+02 0.  0.
        -12    1    1    2    0    0 -0.23433265753E+02  0.29952381590E+01  0.21416116841E+02  0.31886352191E+02  0.00000000000E+00 0.  1.
         11    1    3    3    0    0  0.12915049615E+02 -0.12964807185E+02 -0.74178904878E+01  0.19746134595E+02  0.51100000000E-03 0. -1.
        -11    1    3    3    0    0  0.20331736088E+02  0.15621116107E+02 -0.89531164035E+01  0.27158001664E+02  0.51100000000E-03 0.  1.
         12    1    3    3    0    0 -0.98135199502E+01 -0.56515470817E+01 -0.50451099499E+01  0.12397511550E+02  0.00000000000E+00 0. -1.
</event>
<event>
 7    1  0.1139627E-011  0.5930200E+02  0.7816164E-02  0.1266605E+00
        -11   -1    0    0    0    0  0.00000000000E+00  0.00000000000E+00  0.45593999997E+02  0.45594000000E+02  0.51100000000E-03 0. -1.
         11   -1    0    0    0    0 -0.00000000000E+00 -0.00000000000E+00 -0.45593999997E+02  0.45594000000E+02  0.51100000000E-03 0.  1.
    9900012    2    1    2    0    0  0.30188009743E+02 -0.61367488489E+01 -0.82305128084E+01  0.59302000568E+02  0.50000103116E+02 0.  0.
        -12    1    1    2    0    0 -0.30188009743E+02  0.61367488489E+01  0.82305128084E+01  0.31885999432E+02  0.00000000000E+00 0.  1.
         11    1    3    3    0    0  0.22241343223E+02  0.19359909938E+02 -0.12271657585E+01  0.29512529496E+02  0.51100000000E-03 0. -1.
        -11    1    3    3    0    0  0.13305925896E+01 -0.13521093922E+02  0.15183339274E+01  0.13670983712E+02  0.51100000000E-03 0.  1.
         12    1    3    3    0    0  0.66160739306E+01 -0.11975564865E+02 -0.85216809773E+01  0.16118487360E+02  0.00000000000E+00 0. -1.
</event>
<event>
 7    1  0.1139627E-011  0.5930194E+02  0.7816164E-02  0.1266605E+00
        -11   -1    0    0    0    0  0.00000000000E+00  0.00000000000E+00  0.45593999997E+02  0.45594000000E+02  0.51100000000E-03 0. -1.
         11   -1    0    0    0    0 -0.00000000000E+00 -0.00000000000E+00 -0.45593999997E+02  0.45594000000E+02  0.51100000000E-03 0.  1.
    9900012    2    1    2    0    0  0.27423829117E+02 -0.11297257145E+02  0.11705814865E+02  0.59301944677E+02  0.50000001184E+02 0.  0.
        -12    1    1    2    0    0 -0.27423829117E+02  0.11297257145E+02 -0.11705814865E+02  0.31886055323E+02  0.00000000000E+00 0.  1.
         11    1    3    3    0    0 -0.61717209414E+01  0.69474009365E+01  0.78795222963E+01  0.12183734691E+02  0.51100000000E-03 0. -1.
        -11    1    3    3    0    0  0.24807358774E+02  0.43788476746E+00  0.79706120566E+01  0.26060073853E+02  0.51100000000E-03 0.  1.
         12    1    3    3    0    0  0.87881912845E+01 -0.18682542849E+02 -0.41443194883E+01  0.21058136133E+02  0.00000000000E+00 0. -1.
</event>
<event>
 7    1  0.1139627E-011  0.5930194E+02  0.7816164E-02  0.1266605E+00
        -11   -1    0    0    0    0  0.00000000000E+00  0.00000000000E+00  0.45593999997E+02  0.45594000000E+02  0.51100000000E-03 0.  1.
         11   -1    0    0    0    0 -0.00000000000E+00 -0.00000000000E+00 -0.45593999997E+02  0.45594000000E+02  0.51100000000E-03 0. -1.
    9900012    2    1    2    0    0 -0.36352613533E+01 -0.11175296835E+02 -0.29641501728E+02  0.59301937071E+02  0.49999987312E+02 0.  0.
        -12    1    1    2    0    0  0.36352613533E+01  0.11175296835E+02  0.29641501728E+02  0.31886062929E+02  0.00000000000E+00 0.  1.
         11    1    3    3    0    0 -0.95917544865E+01 -0.45781233395E+01 -0.40411131786E+02  0.41785410611E+02  0.51100000000E-03 0. -1.
        -11    1    3    3    0    0 -0.24790801149E+01 -0.33536231351E+01  0.11688722687E+01  0.43311533095E+01  0.51100000000E-03 0.  1.
         12    1    3    3    0    0  0.84355732481E+01 -0.32435503602E+01  0.96007577901E+01  0.13185373150E+02  0.00000000000E+00 0. -1.
</event>
<event>
 7    1  0.1139627E-011  0.5930191E+02  0.7816164E-02  0.1266605E+00
        -11   -1    0    0    0    0  0.00000000000E+00  0.00000000000E+00  0.45593999997E+02  0.45594000000E+02  0.51100000000E-03 0. -1.
         11   -1    0    0    0    0 -0.00000000000E+00 -0.00000000000E+00 -0.45593999997E+02  0.45594000000E+02  0.51100000000E-03 0.  1.
    9900012    2    1    2    0    0  0.14975915994E+01  0.58232398962E+01  0.31314055752E+02  0.59301905992E+02  0.49999930632E+02 0.  0.
        -12    1    1    2    0    0 -0.14975915994E+01 -0.58232398962E+01 -0.31314055752E+02  0.31886094008E+02  0.00000000000E+00 0.  1.
         11    1    3    3    0    0 -0.17319165587E+02  0.12155098743E+02  0.45503808647E+01  0.21642686718E+02  0.51100000000E-03 0. -1.
        -11    1    3    3    0    0  0.85056739652E+01 -0.33951138815E+01  0.36383813722E+00  0.91654605079E+01  0.51100000000E-03 0.  1.
         12    1    3    3    0    0  0.10311083222E+02 -0.29367449657E+01  0.26399836750E+02  0.28493758766E+02  0.00000000000E+00 0. -1.
</event>
<event>
 7    1  0.1139627E-011  0.5930198E+02  0.7816164E-02  0.1266605E+00
        -11   -1    0    0    0    0  0.00000000000E+00  0.00000000000E+00  0.45593999997E+02  0.45594000000E+02  0.51100000000E-03 0.  1.
         11   -1    0    0    0    0 -0.00000000000E+00 -0.00000000000E+00 -0.45593999997E+02  0.45594000000E+02  0.51100000000E-03 0. -1.
    9900012    2    1    2    0    0  0.47856117333E+01  0.21736410281E+01 -0.31449823442E+02  0.59301981285E+02  0.50000067947E+02 0.  0.
        -12    1    1    2    0    0 -0.47856117333E+01 -0.21736410281E+01  0.31449823442E+02  0.31886018715E+02  0.00000000000E+00 0.  1.
         11    1    3    3    0    0 -0.11634994513E+02  0.10953188338E+02 -0.32237573766E+02  0.35980641944E+02  0.51100000000E-03 0. -1.
        -11    1    3    3    0    0  0.79582104019E+01  0.31891492652E+01  0.12022111263E+01  0.86573146928E+01  0.51100000000E-03 0.  1.
         12    1    3    3    0    0  0.84623958445E+01 -0.11968696575E+02 -0.41446080221E+00  0.14664024648E+02  0.00000000000E+00 0. -1.
</event>
<event>
 7    1  0.1139627E-011  0.5930194E+02  0.7816164E-02  0.1266605E+00
        -11   -1    0    0    0    0  0.00000000000E+00  0.00000000000E+00  0.45593999997E+02  0.45594000000E+02  0.51100000000E-03 0.  1.
         11   -1    0    0    0    0 -0.00000000000E+00 -0.00000000000E+00 -0.45593999997E+02  0.45594000000E+02  0.51100000000E-03 0. -1.
    9900012    2    1    2    0    0 -0.88296302350E+01  0.11845052698E+02 -0.28256912381E+02  0.59301941278E+02  0.49999994986E+02 0.  0.
        -12    1    1    2    0    0  0.88296302350E+01 -0.11845052698E+02  0.28256912381E+02  0.31886058722E+02  0.00000000000E+00 0.  1.
         11    1    3    3    0    0 -0.12979785259E+02 -0.11975670010E+02 -0.16900145303E+02  0.24443944222E+02  0.51100000000E-03 0.  1.
        -11    1    3    3    0    0 -0.69758219504E+01  0.17191039339E+02 -0.15586437552E+01  0.18617822001E+02  0.51100000000E-03 0. -1.
        -12    1    3    3    0    0  0.11125976975E+02  0.66296833694E+01 -0.97981233221E+01  0.16240175056E+02  0.00000000000E+00 0.  1.
</event>
<event>
 7    1  0.1139627E-011  0.5930196E+02  0.7816164E-02  0.1266605E+00
        -11   -1    0    0    0    0  0.00000000000E+00  0.00000000000E+00  0.45593999997E+02  0.45594000000E+02  0.51100000000E-03 0. -1.
         11   -1    0    0    0    0 -0.00000000000E+00 -0.00000000000E+00 -0.45593999997E+02  0.45594000000E+02  0.51100000000E-03 0.  1.
    9900012    2    1    2    0    0 -0.28586096965E+02  0.10609963243E+02  0.93264867951E+01  0.59301958921E+02  0.50000027162E+02 0.  0.
        -12    1    1    2    0    0  0.28586096965E+02 -0.10609963243E+02 -0.93264867951E+01  0.31886041079E+02  0.00000000000E+00 0.  1.
         11    1    3    3    0    0 -0.16813880784E+02  0.81489067456E+01  0.30918127743E+01  0.18938600124E+02  0.51100000000E-03 0. -1.
        -11    1    3    3    0    0  0.20172382240E+01  0.17711671007E+02  0.83680709933E+01  0.19692565915E+02  0.51100000000E-03 0.  1.
        -12    1    3    3    0    0 -0.13789454406E+02 -0.15250614510E+02 -0.21333969725E+01  0.20670792882E+02  0.00000000000E+00 0.  1.
</event>
<event>
 7    1  0.1139627E-011  0.5930194E+02  0.7816164E-02  0.1266605E+00
        -11   -1    0    0    0    0  0.00000000000E+00  0.00000000000E+00  0.45593999997E+02  0.45594000000E+02  0.51100000000E-03 0.  1.
         11   -1    0    0    0    0 -0.00000000000E+00 -0.00000000000E+00 -0.45593999997E+02  0.45594000000E+02  0.51100000000E-03 0. -1.
    9900012    2    1    2    0    0  0.10244752984E+00 -0.29065860216E+02 -0.13110523224E+02  0.59301944352E+02  0.50000000591E+02 0.  0.
        -12    1    1    2    0    0 -0.10244752984E+00  0.29065860216E+02  0.13110523224E+02  0.31886055648E+02  0.00000000000E+00 0.  1.
         11    1    3    3    0    0  0.22964288240E+00  0.21823657758E+01  0.12318511229E+01  0.25165281009E+01  0.51100000000E-03 0. -1.
        -11    1    3    3    0    0 -0.30431414044E+01 -0.41645618390E+02 -0.41942920036E+01  0.41966776459E+02  0.51100000000E-03 0.  1.
        -12    1    3    3    0    0  0.29159460519E+01  0.10397392398E+02 -0.10148082343E+02  0.14818639792E+02  0.00000000000E+00 0.  1.
</event>
<event>
 7    1  0.1139627E-011  0.5930193E+02  0.7816164E-02  0.1266605E+00
        -11   -1    0    0    0    0  0.00000000000E+00  0.00000000000E+00  0.45593999997E+02  0.45594000000E+02  0.51100000000E-03 0.  1.
         11   -1    0    0    0    0 -0.00000000000E+00 -0.00000000000E+00 -0.45593999997E+02  0.45594000000E+02  0.51100000000E-03 0. -1.
    9900012    2    1    2    0    0  0.26061387106E+02  0.47171002280E+01 -0.17755964147E+02  0.59301934152E+02  0.49999981990E+02 0.  0.
        -12    1    1    2    0    0 -0.26061387106E+02 -0.47171002280E+01  0.17755964147E+02  0.31886065848E+02  0.00000000000E+00 0.  1.
         11    1    3    3    0    0  0.93273929452E+01  0.14455240621E+02 -0.64281548206E+01  0.18365059630E+02  0.51100000000E-03 0. -1.
        -11    1    3    3    0    0  0.62429227330E+01 -0.16606282645E+02 -0.19191863495E+02  0.26135614250E+02  0.51100000000E-03 0.  1.
        -12    1    3    3    0    0  0.10491071428E+02  0.68681422527E+01  0.78640541678E+01  0.14801260273E+02  0.00000000000E+00 0.  1.
</event>
<event>
 7    1  0.1139627E-011  0.5930194E+02  0.7816164E-02  0.1266605E+00
        -11   -1    0    0    0    0  0.00000000000E+00  0.00000000000E+00  0.45593999997E+02  0.45594000000E+02  0.51100000000E-03 0.  1.
         11   -1    0    0    0    0 -0.00000000000E+00 -0.00000000000E+00 -0.45593999997E+02  0.45594000000E+02  0.51100000000E-03 0. -1.
    9900012    2    1    2    0    0  0.26719952059E+01  0.48823384393E+01 -0.31396561305E+02  0.59301939585E+02  0.49999991898E+02 0.  0.
        -12    1    1    2    0    0 -0.26719952059E+01 -0.48823384393E+01  0.31396561305E+02  0.31886060415E+02  0.00000000000E+00 0.  1.
         11    1    3    3    0    0  0.17154051031E+02 -0.62890846940E+01 -0.23190951920E+01  0.18417172851E+02  0.51100000000E-03 0. -1.
        -11    1    3    3    0    0 -0.14675337670E+02  0.91365873987E+01 -0.68998954357E+01  0.18613202903E+02  0.51100000000E-03 0.  1.
        -12    1    3    3    0    0  0.19328184506E+00  0.20348357346E+01 -0.22177570677E+02  0.22271563831E+02  0.00000000000E+00 0.  1.
</event>
<event>
 7    1  0.1139627E-011  0.5930192E+02  0.7816164E-02  0.1266605E+00
        -11   -1    0    0    0    0  0.00000000000E+00  0.00000000000E+00  0.45593999997E+02  0.45594000000E+02  0.51100000000E-03 0. -1.
         11   -1    0    0    0    0 -0.00000000000E+00 -0.00000000000E+00 -0.45593999997E+02  0.45594000000E+02  0.51100000000E-03 0.  1.
    9900012    2    1    2    0    0 -0.24092405246E+02 -0.22069886322E+01  0.20770354246E+02  0.59301915184E+02  0.49999947397E+02 0.  0.
        -12    1    1    2    0    0  0.24092405246E+02  0.22069886322E+01 -0.20770354246E+02  0.31886084816E+02  0.00000000000E+00 0.  1.
         11    1    3    3    0    0 -0.24045262991E+01 -0.18505425285E+01  0.16053319669E+02  0.16337543482E+02  0.51100000000E-03 0. -1.
        -11    1    3    3    0    0 -0.29382315445E+02 -0.83188948094E+01 -0.89561957280E+00  0.30550394538E+02  0.51100000000E-03 0.  1.
        -12    1    3    3    0    0  0.76944364985E+01  0.79624487057E+01  0.56126541505E+01  0.12413977164E+02  0.00000000000E+00 0.  1.
</event>
<event>
 7    1  0.1139627E-011  0.5930196E+02  0.7816164E-02  0.1266605E+00
        -11   -1    0    0    0    0  0.00000000000E+00  0.00000000000E+00  0.45593999997E+02  0.45594000000E+02  0.51100000000E-03 0. -1.
         11   -1    0    0    0    0 -0.00000000000E+00 -0.00000000000E+00 -0.45593999997E+02  0.45594000000E+02  0.51100000000E-03 0.  1.
    9900012    2    1    2    0    0 -0.19372862543E+02  0.18255292394E+02  0.17554369162E+02  0.59301962614E+02  0.50000033897E+02 0.  0.
        -12    1    1    2    0    0  0.19372862543E+02 -0.18255292394E+02 -0.17554369162E+02  0.31886037386E+02  0.00000000000E+00 0.  1.
         11    1    3    3    0    0 -0.41502661419E+00 -0.10474567652E+02  0.17146223004E+02  0.20096810149E+02  0.51100000000E-03 0. -1.
        -11    1    3    3    0    0 -0.13629869419E+02  0.21864552092E+02 -0.81351872089E+01  0.27018757368E+02  0.51100000000E-03 0.  1.
         12    1    3    3    0    0 -0.53279665096E+01  0.68653079550E+01  0.85433333669E+01  0.12186395097E+02  0.00000000000E+00 0. -1.
</event>
<event>
 7    1  0.1139627E-011  0.5930194E+02  0.7816164E-02  0.1266605E+00
        -11   -1    0    0    0    0  0.00000000000E+00  0.00000000000E+00  0.45593999997E+02  0.45594000000E+02  0.51100000000E-03 0. -1.
         11   -1    0    0    0    0 -0.00000000000E+00 -0.00000000000E+00 -0.45593999997E+02  0.45594000000E+02  0.51100000000E-03 0.  1.
    9900012    2    1    2    0    0  0.85392341826E+01  0.30134344053E+02  0.59769096105E+01  0.59301942538E+02  0.49999997284E+02 0.  0.
        -12    1    1    2    0    0 -0.85392341826E+01 -0.30134344053E+02 -0.59769096105E+01  0.31886057462E+02  0.00000000000E+00 0.  1.
         11    1    3    3    0    0  0.50330184224E+01 -0.81133456011E+01 -0.87649253953E+01  0.12960770376E+02  0.51100000000E-03 0. -1.
        -11    1    3    3    0    0 -0.88945089042E+01  0.15099612533E+02  0.77776977551E+01  0.19172980204E+02  0.51100000000E-03 0.  1.
         12    1    3    3    0    0  0.12400724665E+02  0.23148077122E+02  0.69641372507E+01  0.27168191958E+02  0.00000000000E+00 0. -1.
</event>
<event>
 7    1  0.1139627E-011  0.5930191E+02  0.7816164E-02  0.1266605E+00
        -11   -1    0    0    0    0  0.00000000000E+00  0.00000000000E+00  0.45593999997E+02  0.45594000000E+02  0.51100000000E-03 0.  1.
         11   -1    0    0    0    0 -0.00000000000E+00 -0.00000000000E+00 -0.45593999997E+02  0.45594000000E+02  0.51100000000E-03 0. -1.
    9900012    2    1    2    0    0  0.35638166793E+01  0.27317686897E+02 -0.16055090257E+02  0.59301910087E+02  0.49999938101E+02 0.  0.
        -12    1    1    2    0    0 -0.35638166793E+01 -0.27317686897E+02  0.16055090257E+02  0.31886089913E+02  0.00000000000E+00 0.  1.
         11    1    3    3    0    0  0.15502029672E+02  0.82633328432E+01 -0.63314150996E+01  0.18673039684E+02  0.51100000000E-03 0. -1.
        -11    1    3    3    0    0 -0.13201905282E+02  0.18669042931E+02 -0.19933291076E+02  0.30334131938E+02  0.51100000000E-03 0.  1.
        -12    1    3    3    0    0  0.12636922894E+01  0.38531112297E+00  0.10209615918E+02  0.10294738465E+02  0.00000000000E+00 0.  1.
</event>
<event>
 7    1  0.1139627E-011  0.5930191E+02  0.7816164E-02  0.1266605E+00
        -11   -1    0    0    0    0  0.00000000000E+00  0.00000000000E+00  0.45593999997E+02  0.45594000000E+02  0.51100000000E-03 0. -1.
         11   -1    0    0    0    0 -0.00000000000E+00 -0.00000000000E+00 -0.45593999997E+02  0.45594000000E+02  0.51100000000E-03 0.  1.
    9900012    2    1    2    0    0 -0.19695327715E+02 -0.22205023570E+02 -0.11651335591E+02  0.59301911708E+02  0.49999941056E+02 0.  0.
        -12    1    1    2    0    0  0.19695327715E+02  0.22205023570E+02  0.11651335591E+02  0.31886088292E+02  0.00000000000E+00 0.  1.
         11    1    3    3    0    0  0.80068418908E+01 -0.58226624212E+01  0.86830462187E+01  0.13168454983E+02  0.51100000000E-03 0. -1.
        -11    1    3    3    0    0 -0.97788938732E+01 -0.28670246702E+01 -0.21355558930E+02  0.23662343360E+02  0.51100000000E-03 0.  1.
        -12    1    3    3    0    0 -0.17923275733E+02 -0.13515336478E+02  0.10211771202E+01  0.22471113364E+02  0.00000000000E+00 0.  1.
</event>
<event>
 7    1  0.1139627E-011  0.5930194E+02  0.7816164E-02  0.1266605E+00
        -11   -1    0    0    0    0  0.00000000000E+00  0.00000000000E+00  0.45593999997E+02  0.45594000000E+02  0.51100000000E-03 0.  1.
         11   -1    0    0    0    0 -0.00000000000E+00 -0.00000000000E+00 -0.45593999997E+02  0.45594000000E+02  0.51100000000E-03 0. -1.
    9900012    2    1    2    0    0  0.24255242428E+02  0.89070527212E+01  0.18683371175E+02  0.59301941418E+02  0.49999995240E+02 0.  0.
        -12    1    1    2    0    0 -0.24255242428E+02 -0.89070527212E+01 -0.18683371175E+02  0.31886058582E+02  0.00000000000E+00 0.  1.
         11    1    3    3    0    0  0.31384349191E+02 -0.24678891634E+01  0.94167158434E+01  0.32859433784E+02  0.51100000000E-03 0. -1.
        -11    1    3    3    0    0 -0.26780086643E+01  0.15144006661E+02  0.12459993304E+02  0.19793031642E+02  0.51100000000E-03 0.  1.
         12    1    3    3    0    0 -0.44510980985E+01 -0.37690647768E+01 -0.31933379719E+01  0.66494759927E+01  0.00000000000E+00 0. -1.
</event>
<event>
 7    1  0.1139627E-011  0.5930195E+02  0.7816164E-02  0.1266605E+00
        -11   -1    0    0    0    0  0.00000000000E+00  0.00000000000E+00  0.45593999997E+02  0.45594000000E+02  0.51100000000E-03 0. -1.
         11   -1    0    0    0    0 -0.00000000000E+00 -0.00000000000E+00 -0.45593999997E+02  0.45594000000E+02  0.51100000000E-03 0.  1.
    9900012    2    1    2    0    0  0.15382652342E+02  0.24323042622E+02  0.13728950649E+02  0.59301945346E+02  0.50000002405E+02 0.  0.
        -12    1    1    2    0    0 -0.15382652342E+02 -0.24323042622E+02 -0.13728950649E+02  0.31886054654E+02  0.00000000000E+00 0.  1.
         11    1    3    3    0    0  0.18861930449E+02  0.33913684812E+01  0.27594757210E+02  0.33596791903E+02  0.51100000000E-03 0. -1.
        -11    1    3    3    0    0 -0.44281031524E+01  0.16116496521E+02 -0.11209054237E+02  0.20124424335E+02  0.51100000000E-03 0.  1.
         12    1    3    3    0    0  0.94882504513E+00  0.48151776197E+01 -0.26567523237E+01  0.55807291087E+01  0.00000000000E+00 0. -1.
</event>
<event>
 7    1  0.1139627E-011  0.5930194E+02  0.7816164E-02  0.1266605E+00
        -11   -1    0    0    0    0  0.00000000000E+00  0.00000000000E+00  0.45593999997E+02  0.45594000000E+02  0.51100000000E-03 0.  1.
         11   -1    0    0    0    0 -0.00000000000E+00 -0.00000000000E+00 -0.45593999997E+02  0.45594000000E+02  0.51100000000E-03 0. -1.
    9900012    2    1    2    0    0  0.80812588840E+01 -0.29315195488E+02 -0.95933989519E+01  0.59301941368E+02  0.49999995149E+02 0.  0.
        -12    1    1    2    0    0 -0.80812588840E+01  0.29315195488E+02  0.95933989519E+01  0.31886058632E+02  0.00000000000E+00 0.  1.
         11    1    3    3    0    0  0.73434114003E+00  0.54696502930E+01 -0.16366346202E+02  0.17271757858E+02  0.51100000000E-03 0. -1.
        -11    1    3    3    0    0 -0.19732305940E+01 -0.25474456458E+02 -0.28597976332E+01  0.25710309480E+02  0.51100000000E-03 0.  1.
         12    1    3    3    0    0  0.93201483379E+01 -0.93103893225E+01  0.96327448830E+01  0.16319874030E+02  0.00000000000E+00 0. -1.
</event>
<event>
 7    1  0.1139627E-011  0.5930196E+02  0.7816164E-02  0.1266605E+00
        -11   -1    0    0    0    0  0.00000000000E+00  0.00000000000E+00  0.45593999997E+02  0.45594000000E+02  0.51100000000E-03 0. -1.
         11   -1    0    0    0    0 -0.00000000000E+00 -0.00000000000E+00 -0.45593999997E+02  0.45594000000E+02  0.51100000000E-03 0.  1.
    9900012    2    1    2    0    0 -0.19641429949E+01  0.30988934284E+02  0.72489741751E+01  0.59301960228E+02  0.50000029546E+02 0.  0.
        -12    1    1    2    0    0  0.19641429949E+01 -0.30988934284E+02 -0.72489741751E+01  0.31886039772E+02  0.00000000000E+00 0.  1.
         11    1    3    3    0    0  0.42542965271E+01 -0.23987804168E+01  0.10593135954E+01  0.49975325895E+01  0.51100000000E-03 0. -1.
        -11    1    3    3    0    0 -0.18136912314E+02  0.26450257209E+02  0.17440539514E+02  0.36506658482E+02  0.51100000000E-03 0.  1.
        -12    1    3    3    0    0  0.11918472792E+02  0.69374574915E+01 -0.11250878935E+02  0.17797769156E+02  0.00000000000E+00 0.  1.
</event>
<event>
 7    1  0.1139627E-011  0.5930191E+02  0.7816164E-02  0.1266605E+00
        -11   -1    0    0    0    0  0.00000000000E+00  0.00000000000E+00  0.45593999997E+02  0.45594000000E+02  0.51100000000E-03 0.  1.
         11   -1    0    0    0    0 -0.00000000000E+00 -0.00000000000E+00 -0.45593999997E+02  0.45594000000E+02  0.51100000000E-03 0. -1.
    9900012    2    1    2    0    0 -0.17647827596E+02 -0.20969814197E+02 -0.16295507482E+02  0.59301913843E+02  0.49999944951E+02 0.  0.
        -12    1    1    2    0    0  0.17647827596E+02  0.20969814197E+02  0.16295507482E+02  0.31886086157E+02  0.00000000000E+00 0.  1.
         11    1    3    3    0    0 -0.21532461095E+02 -0.18901838236E+02 -0.56428006827E+01  0.29202184324E+02  0.51100000000E-03 0. -1.
        -11    1    3    3    0    0  0.44091396273E+01  0.11739275751E+02 -0.10381853484E+02  0.16279864540E+02  0.51100000000E-03 0.  1.
        -12    1    3    3    0    0 -0.52450612767E+00 -0.13807251712E+02 -0.27085331589E+00  0.13819864979E+02  0.00000000000E+00 0.  1.
</event>
<event>
 7    1  0.1139627E-011  0.5930218E+02  0.7816164E-02  0.1266604E+00
        -11   -1    0    0    0    0  0.00000000000E+00  0.00000000000E+00  0.45593999997E+02  0.45594000000E+02  0.51100000000E-03 0.  1.
         11   -1    0    0    0    0 -0.00000000000E+00 -0.00000000000E+00 -0.45593999997E+02  0.45594000000E+02  0.51100000000E-03 0. -1.
    9900012    2    1    2    0    0 -0.26572003869E+02  0.12062018146E+02 -0.12850742852E+02  0.59302183981E+02  0.50000437615E+02 0.  0.
        -12    1    1    2    0    0  0.26572003869E+02 -0.12062018146E+02  0.12850742852E+02  0.31885816019E+02  0.00000000000E+00 0.  1.
         11    1    3    3    0    0 -0.30269701844E+02  0.12416540560E+02 -0.44571979842E+01  0.33019569097E+02  0.51100000000E-03 0. -1.
        -11    1    3    3    0    0  0.90954610049E+01 -0.10206745910E+02 -0.44894886271E+01  0.14389599763E+02  0.51100000000E-03 0.  1.
         12    1    3    3    0    0 -0.53977630304E+01  0.98522234951E+01 -0.39040562403E+01  0.11893015121E+02  0.00000000000E+00 0. -1.
</event>
<event>
 7    1  0.1139627E-011  0.5930191E+02  0.7816164E-02  0.1266605E+00
        -11   -1    0    0    0    0  0.00000000000E+00  0.00000000000E+00  0.45593999997E+02  0.45594000000E+02  0.51100000000E-03 0. -1.
         11   -1    0    0    0    0 -0.00000000000E+00 -0.00000000000E+00 -0.45593999997E+02  0.45594000000E+02  0.51100000000E-03 0.  1.
    9900012    2    1    2    0    0 -0.27133280384E+02  0.10408500418E+02  0.13121383762E+02  0.59301913738E+02  0.49999944758E+02 0.  0.
        -12    1    1    2    0    0  0.27133280384E+02 -0.10408500418E+02 -0.13121383762E+02  0.31886086262E+02  0.00000000000E+00 0.  1.
         11    1    3    3    0    0 -0.10062070256E+02  0.28402175152E+01  0.29050203906E+02  0.30874365429E+02  0.51100000000E-03 0. -1.
        -11    1    3    3    0    0  0.21584122336E+01  0.29632320972E+01 -0.15564555521E+01  0.39827179135E+01  0.51100000000E-03 0.  1.
         12    1    3    3    0    0 -0.19229622361E+02  0.46050508052E+01 -0.14372364593E+02  0.24444830395E+02  0.00000000000E+00 0. -1.
</event>
<event>
 7    1  0.1139627E-011  0.5930193E+02  0.7816164E-02  0.1266605E+00
        -11   -1    0    0    0    0  0.00000000000E+00  0.00000000000E+00  0.45593999997E+02  0.45594000000E+02  0.51100000000E-03 0. -1.
         11   -1    0    0    0    0 -0.00000000000E+00 -0.00000000000E+00 -0.45593999997E+02  0.45594000000E+02  0.51100000000E-03 0.  1.
    9900012    2    1    2    0    0 -0.15157671053E+02  0.27952313764E+02 -0.23737452853E+01  0.59301929323E+02  0.49999973183E+02 0.  0.
        -12    1    1    2    0    0  0.15157671053E+02 -0.27952313764E+02  0.23737452853E+01  0.31886070677E+02  0.00000000000E+00 0.  1.
         11    1    3    3    0    0  0.47326195955E+01  0.29161369162E+01 -0.84975209328E+01  0.10154280133E+02  0.51100000000E-03 0.  1.
        -11    1    3    3    0    0 -0.28734624374E+02  0.98607313650E+01 -0.47823957282E+00  0.30383241669E+02  0.51100000000E-03 0. -1.
        -12    1    3    3    0    0  0.88443337256E+01  0.15175445483E+02  0.66020152203E+01  0.18764407521E+02  0.00000000000E+00 0.  1.
</event>
<event>
 7    1  0.1139627E-011  0.5930194E+02  0.7816164E-02  0.1266605E+00
        -11   -1    0    0    0    0  0.00000000000E+00  0.00000000000E+00  0.45593999997E+02  0.45594000000E+02  0.51100000000E-03 0.  1.
         11   -1    0    0    0    0 -0.00000000000E+00 -0.00000000000E+00 -0.45593999997E+02  0.45594000000E+02  0.51100000000E-03 0. -1.
    9900012    2    1    2    0    0 -0.10280534337E+02 -0.28280652643E+02  0.10546839820E+02  0.59301944579E+02  0.50000001005E+02 0.  0.
        -12    1    1    2    0    0  0.10280534337E+02  0.28280652643E+02 -0.10546839820E+02  0.31886055421E+02  0.00000000000E+00 0.  1.
         11    1    3    3    0    0 -0.35331906490E+00 -0.13344534258E+02 -0.96707277021E+01  0.16484065138E+02  0.51100000000E-03 0. -1.
        -11    1    3    3    0    0  0.37787121098E+01 -0.17733781701E+02  0.22228270324E+02  0.28685565717E+02  0.51100000000E-03 0.  1.
         12    1    3    3    0    0 -0.13705927382E+02  0.27976633168E+01 -0.20107028026E+01  0.14132313724E+02  0.00000000000E+00 0. -1.
</event>
<event>
 7    1  0.1139627E-011  0.5930195E+02  0.7816164E-02  0.1266605E+00
        -11   -1    0    0    0    0  0.00000000000E+00  0.00000000000E+00  0.45593999997E+02  0.45594000000E+02  0.51100000000E-03 0.  1.
         11   -1    0    0    0    0 -0.00000000000E+00 -0.00000000000E+00 -0.45593999997E+02  0.45594000000E+02  0.51100000000E-03 0. -1.
    9900012    2    1    2    0    0  0.31179644014E+02  0.27978875269E+00  0.66687031228E+01  0.59301951578E+02  0.50000013771E+02 0.  0.
        -12    1    1    2    0    0 -0.31179644014E+02 -0.27978875269E+00 -0.66687031228E+01  0.31886048422E+02  0.00000000000E+00 0.  1.
         11    1    3    3    0    0  0.13808644045E+02  0.92127197346E+01  0.11826375437E+02  0.20381756831E+02  0.51100000000E-03 0. -1.
        -11    1    3    3    0    0  0.22442467099E+02 -0.16680594143E+02  0.68519633221E+00  0.27970985766E+02  0.51100000000E-03 0.  1.
         12    1    3    3    0    0 -0.50714671293E+01  0.77476631612E+01 -0.58428686465E+01  0.10949208982E+02  0.00000000000E+00 0. -1.
</event>
<event>
 7    1  0.1139627E-011  0.5930196E+02  0.7816164E-02  0.1266605E+00
        -11   -1    0    0    0    0  0.00000000000E+00  0.00000000000E+00  0.45593999997E+02  0.45594000000E+02  0.51100000000E-03 0. -1.
         11   -1    0    0    0    0 -0.00000000000E+00 -0.00000000000E+00 -0.45593999997E+02  0.45594000000E+02  0.51100000000E-03 0.  1.
    9900012    2    1    2    0    0  0.19833531955E+02 -0.17484299589E+02  0.17822725697E+02  0.59301964291E+02  0.50000036956E+02 0.  0.
        -12    1    1    2    0    0 -0.19833531955E+02  0.17484299589E+02 -0.17822725697E+02  0.31886035709E+02  0.00000000000E+00 0.  1.
         11    1    3    3    0    0  0.82652981735E+01 -0.89735206340E+01  0.70013733568E+01  0.14066216819E+02  0.51100000000E-03 0. -1.
        -11    1    3    3    0    0  0.17188707639E+02  0.11827964296E+02  0.12057614639E+02  0.24098516152E+02  0.51100000000E-03 0.  1.
        -12    1    3    3    0    0 -0.56204738574E+01 -0.20338743251E+02 -0.12362622986E+01  0.21137231320E+02  0.00000000000E+00 0.  1.
</event>
<event>
 7    1  0.1139627E-011  0.5930195E+02  0.7816164E-02  0.1266605E+00
        -11   -1    0    0    0    0  0.00000000000E+00  0.00000000000E+00  0.45593999997E+02  0.45594000000E+02  0.51100000000E-03 0.  1.
         11   -1    0    0    0    0 -0.00000000000E+00 -0.00000000000E+00 -0.45593999997E+02  0.45594000000E+02  0.51100000000E-03 0. -1.
    9900012    2    1    2    0    0  0.21559559165E+02  0.37987103807E+00 -0.23489601306E+02  0.59301948772E+02  0.50000008653E+02 0.  0.
        -12    1    1    2    0    0 -0.21559559165E+02 -0.37987103807E+00  0.23489601306E+02  0.31886051228E+02  0.00000000000E+00 0.  1.
         11    1    3    3    0    0  0.41524419965E+00 -0.83725156223E+01 -0.28488221973E+02  0.29695963312E+02  0.51100000000E-03 0. -1.
        -11    1    3    3    0    0  0.10353850136E+02  0.13637701745E+02  0.11907995457E+01  0.17164123203E+02  0.51100000000E-03 0.  1.
         12    1    3    3    0    0  0.10790464830E+02 -0.48853150843E+01  0.38078211218E+01  0.12441862257E+02  0.00000000000E+00 0. -1.
</event>
<event>
 7    1  0.1139627E-011  0.5930196E+02  0.7816164E-02  0.1266605E+00
        -11   -1    0    0    0    0  0.00000000000E+00  0.00000000000E+00  0.45593999997E+02  0.45594000000E+02  0.51100000000E-03 0.  1.
         11   -1    0    0    0    0 -0.00000000000E+00 -0.00000000000E+00 -0.45593999997E+02  0.45594000000E+02  0.51100000000E-03 0. -1.
    9900012    2    1    2    0    0 -0.74951805582E+01 -0.19024952291E+02 -0.24466162239E+02  0.59301958603E+02  0.50000026582E+02 0.  0.
        -12    1    1    2    0    0  0.74951805582E+01  0.19024952291E+02  0.24466162239E+02  0.31886041397E+02  0.00000000000E+00 0.  1.
         11    1    3    3    0    0  0.48696878695E+01  0.33298523943E+01 -0.23484112057E+02  0.24213741889E+02  0.51100000000E-03 0. -1.
        -11    1    3    3    0    0 -0.18625541000E+02 -0.12495014063E+02 -0.45306443583E+01  0.22881496728E+02  0.51100000000E-03 0.  1.
        -12    1    3    3    0    0  0.62606725721E+01 -0.98597906227E+01  0.35485941765E+01  0.12206719986E+02  0.00000000000E+00 0.  1.
</event>
<event>
 7    1  0.1139627E-011  0.5930198E+02  0.7816164E-02  0.1266605E+00
        -11   -1    0    0    0    0  0.00000000000E+00  0.00000000000E+00  0.45593999997E+02  0.45594000000E+02  0.51100000000E-03 0.  1.
         11   -1    0    0    0    0 -0.00000000000E+00 -0.00000000000E+00 -0.45593999997E+02  0.45594000000E+02  0.51100000000E-03 0. -1.
    9900012    2    1    2    0    0 -0.54584856649E+01 -0.11746105989E+02 -0.29136782071E+02  0.59301982043E+02  0.50000069331E+02 0.  0.
        -12    1    1    2    0    0  0.54584856649E+01  0.11746105989E+02  0.29136782071E+02  0.31886017957E+02  0.00000000000E+00 0.  1.
         11    1    3    3    0    0  0.67324808085E+01  0.77876962804E+01 -0.15654251549E+02  0.18735797368E+02  0.51100000000E-03 0. -1.
        -11    1    3    3    0    0 -0.11947422519E+02 -0.17016366098E+02 -0.22832164797E+02  0.30880501447E+02  0.51100000000E-03 0.  1.
        -12    1    3    3    0    0 -0.24354395397E+00 -0.25174361711E+01  0.93496342744E+01  0.96856832282E+01  0.00000000000E+00 0.  1.
</event>
<event>
 7    1  0.1139627E-011  0.5930194E+02  0.7816164E-02  0.1266605E+00
        -11   -1    0    0    0    0  0.00000000000E+00  0.00000000000E+00  0.45593999997E+02  0.45594000000E+02  0.51100000000E-03 0. -1.
         11   -1    0    0    0    0 -0.00000000000E+00 -0.00000000000E+00 -0.45593999997E+02  0.45594000000E+02  0.51100000000E-03 0.  1.
    9900012    2    1    2    0    0 -0.19146172086E+02 -0.23723865463E+02 -0.93446682027E+01  0.59301944711E+02  0.50000001247E+02 0.  0.
        -12    1    1    2    0    0  0.19146172086E+02  0.23723865463E+02  0.93446682027E+01  0.31886055289E+02  0.00000000000E+00 0.  1.
         11    1    3    3    0    0 -0.11396189008E+02 -0.31851091155E+02 -0.15611072523E+02  0.37256821083E+02  0.51100000000E-03 0. -1.
        -11    1    3    3    0    0 -0.82691584365E+01  0.13404306100E+02  0.55263912137E+01  0.16691177412E+02  0.51100000000E-03 0.  1.
        -12    1    3    3    0    0  0.51917535822E+00 -0.52770804085E+01  0.74001310667E+00  0.53539462164E+01  0.00000000000E+00 0.  1.
</event>
<event>
 7    1  0.1139627E-011  0.5930194E+02  0.7816164E-02  0.1266605E+00
        -11   -1    0    0    0    0  0.00000000000E+00  0.00000000000E+00  0.45593999997E+02  0.45594000000E+02  0.51100000000E-03 0.  1.
         11   -1    0    0    0    0 -0.00000000000E+00 -0.00000000000E+00 -0.45593999997E+02  0.45594000000E+02  0.51100000000E-03 0. -1.
    9900012    2    1    2    0    0 -0.28650009791E+02  0.29824726247E+01 -0.13674899812E+02  0.59301935821E+02  0.49999985033E+02 0.  0.
        -12    1    1    2    0    0  0.28650009791E+02 -0.29824726247E+01  0.13674899812E+02  0.31886064179E+02  0.00000000000E+00 0.  1.
         11    1    3    3    0    0 -0.19708109622E+02  0.18315366948E+02  0.55940522550E+01  0.27480095928E+02  0.51100000000E-03 0. -1.
        -11    1    3    3    0    0  0.19709932725E+01 -0.10508953374E+01 -0.12368722855E+02  0.12568790746E+02  0.51100000000E-03 0.  1.
         12    1    3    3    0    0 -0.10912893442E+02 -0.14281998986E+02 -0.69002292118E+01  0.19253049147E+02  0.00000000000E+00 0. -1.
</event>
<event>
 7    1  0.1139627E-011  0.5930195E+02  0.7816164E-02  0.1266605E+00
        -11   -1    0    0    0    0  0.00000000000E+00  0.00000000000E+00  0.45593999997E+02  0.45594000000E+02  0.51100000000E-03 0.  1.
         11   -1    0    0    0    0 -0.00000000000E+00 -0.00000000000E+00 -0.45593999997E+02  0.45594000000E+02  0.51100000000E-03 0. -1.
    9900012    2    1    2    0    0  0.17009064970E+02 -0.87909942938E+01 -0.25497653173E+02  0.59301949929E+02  0.50000010762E+02 0.  0.
        -12    1    1    2    0    0 -0.17009064970E+02  0.87909942938E+01  0.25497653173E+02  0.31886050071E+02  0.00000000000E+00 0.  1.
         11    1    3    3    0    0  0.51043444611E+01  0.69391037096E+01 -0.80721153080E+01  0.11805275875E+02  0.51100000000E-03 0. -1.
        -11    1    3    3    0    0  0.21768763892E+00 -0.24730821570E+02 -0.86745236345E-01  0.24731931757E+02  0.51100000000E-03 0.  1.
        -12    1    3    3    0    0  0.11687032870E+02  0.90007235668E+01 -0.17338792628E+02  0.22764742297E+02  0.00000000000E+00 0.  1.
</event>
<event>
 7    1  0.1139627E-011  0.5930194E+02  0.7816164E-02  0.1266605E+00
        -11   -1    0    0    0    0  0.00000000000E+00  0.00000000000E+00  0.45593999997E+02  0.45594000000E+02  0.51100000000E-03 0.  1.
         11   -1    0    0    0    0 -0.00000000000E+00 -0.00000000000E+00 -0.45593999997E+02  0.45594000000E+02  0.51100000000E-03 0. -1.
    9900012    2    1    2    0    0 -0.21029312049E+02  0.51904804673E+01 -0.23399735120E+02  0.59301942602E+02  0.49999997400E+02 0.  0.
        -12    1    1    2    0    0  0.21029312049E+02 -0.51904804673E+01  0.23399735120E+02  0.31886057398E+02  0.00000000000E+00 0.  1.
         11    1    3    3    0    0  0.28441495035E+01  0.17049816058E+01 -0.13511559715E+02  0.13912526545E+02  0.51100000000E-03 0. -1.
        -11    1    3    3    0    0 -0.31521019230E+02  0.10926077154E+02 -0.53190323164E+01  0.33782331482E+02  0.51100000000E-03 0.  1.
        -12    1    3    3    0    0  0.76475576781E+01 -0.74405782930E+01 -0.45691430886E+01  0.11607084575E+02  0.00000000000E+00 0.  1.
</event>
<event>
 7    1  0.1317219E-011  0.5930197E+02  0.7816164E-02  0.1266605E+00
        -11   -1    0    0    0    0  0.00000000000E+00  0.00000000000E+00  0.45593999997E+02  0.45594000000E+02  0.51100000000E-03 0. -1.
         11   -1    0    0    0    0 -0.00000000000E+00 -0.00000000000E+00 -0.45593999997E+02  0.45594000000E+02  0.51100000000E-03 0.  1.
    9900012    2    1    2    0    0 -0.78048771060E+01 -0.19466724799E+02  0.24017691715E+02  0.59301968632E+02  0.50000044873E+02 0.  0.
        -12    1    1    2    0    0  0.78048771060E+01  0.19466724799E+02 -0.24017691715E+02  0.31886031368E+02  0.00000000000E+00 0.  1.
         11    1    3    3    0    0 -0.61628943946E+01  0.18982653500E+00  0.28399869797E+02  0.29061484928E+02  0.51100000000E-03 0. -1.
        -11    1    3    3    0    0 -0.19109902160E+01 -0.18901759497E+01 -0.10966693490E+02  0.11291280490E+02  0.51100000000E-03 0.  1.
         12    1    3    3    0    0  0.26900750455E+00 -0.17766375384E+02  0.65845154085E+01  0.18949203215E+02  0.00000000000E+00 0. -1.
</event>
<event>
 7    1  0.1139627E-011  0.5930199E+02  0.7816164E-02  0.1266605E+00
        -11   -1    0    0    0    0  0.00000000000E+00  0.00000000000E+00  0.45593999997E+02  0.45594000000E+02  0.51100000000E-03 0.  1.
         11   -1    0    0    0    0 -0.00000000000E+00 -0.00000000000E+00 -0.45593999997E+02  0.45594000000E+02  0.51100000000E-03 0. -1.
    9900012    2    1    2    0    0 -0.31263607895E+02 -0.62327626569E+01  0.67594035676E+00  0.59301993597E+02  0.50000090403E+02 0.  0.
        -12    1    1    2    0    0  0.31263607895E+02  0.62327626569E+01 -0.67594035676E+00  0.31886006403E+02  0.00000000000E+00 0.  1.
         11    1    3    3    0    0 -0.36547965868E+02  0.21871483397E+01 -0.55302266085E+01  0.37028648821E+02  0.51100000000E-03 0. -1.
        -11    1    3    3    0    0  0.61433372838E+01 -0.12569039632E+02  0.94964823520E+01  0.16908711589E+02  0.51100000000E-03 0.  1.
         12    1    3    3    0    0 -0.85897931124E+00  0.41491286357E+01 -0.32903153866E+01  0.53646331875E+01  0.00000000000E+00 0. -1.
</event>
<event>
 7    1  0.1139627E-011  0.5930208E+02  0.7816164E-02  0.1266604E+00
        -11   -1    0    0    0    0  0.00000000000E+00  0.00000000000E+00  0.45593999997E+02  0.45594000000E+02  0.51100000000E-03 0.  1.
         11   -1    0    0    0    0 -0.00000000000E+00 -0.00000000000E+00 -0.45593999997E+02  0.45594000000E+02  0.51100000000E-03 0. -1.
    9900012    2    1    2    0    0 -0.11007553967E+02  0.28456617855E+02 -0.92610403458E+01  0.59302075011E+02  0.50000238882E+02 0.  0.
        -12    1    1    2    0    0  0.11007553967E+02 -0.28456617855E+02  0.92610403458E+01  0.31885924989E+02  0.00000000000E+00 0.  1.
         11    1    3    3    0    0 -0.50266458125E+01  0.23926066962E+02 -0.84744966062E+01  0.25875489201E+02  0.51100000000E-03 0. -1.
        -11    1    3    3    0    0 -0.13699449612E+02 -0.96119396033E+01  0.26741712710E+01  0.16947433282E+02  0.51100000000E-03 0.  1.
        -12    1    3    3    0    0  0.77185414571E+01  0.14142490497E+02 -0.34607150106E+01  0.16479152529E+02  0.00000000000E+00 0.  1.
</event>
<event>
 7    1  0.1139627E-011  0.5930195E+02  0.7816164E-02  0.1266605E+00
        -11   -1    0    0    0    0  0.00000000000E+00  0.00000000000E+00  0.45593999997E+02  0.45594000000E+02  0.51100000000E-03 0. -1.
         11   -1    0    0    0    0 -0.00000000000E+00 -0.00000000000E+00 -0.45593999997E+02  0.45594000000E+02  0.51100000000E-03 0.  1.
    9900012    2    1    2    0    0  0.49965269318E+01  0.30343296579E+02  0.84284816543E+01  0.59301949263E+02  0.50000009547E+02 0.  0.
        -12    1    1    2    0    0 -0.49965269318E+01 -0.30343296579E+02 -0.84284816543E+01  0.31886050737E+02  0.00000000000E+00 0.  1.
         11    1    3    3    0    0 -0.13643555919E+02  0.59491613927E+01  0.15272816590E+02  0.21325995082E+02  0.51100000000E-03 0. -1.
        -11    1    3    3    0    0  0.22668603125E+02  0.16216254216E+02 -0.74169520963E+01  0.28841699796E+02  0.51100000000E-03 0.  1.
        -12    1    3    3    0    0 -0.40285202741E+01  0.81778809696E+01  0.57261716053E+00  0.91342543846E+01  0.00000000000E+00 0.  1.
</event>
<event>
 7    1  0.1139627E-011  0.5930191E+02  0.7816164E-02  0.1266605E+00
        -11   -1    0    0    0    0  0.00000000000E+00  0.00000000000E+00  0.45593999997E+02  0.45594000000E+02  0.51100000000E-03 0. -1.
         11   -1    0    0    0    0 -0.00000000000E+00 -0.00000000000E+00 -0.45593999997E+02  0.45594000000E+02  0.51100000000E-03 0.  1.
    9900012    2    1    2    0    0  0.23824462154E+02 -0.15469103214E+02  0.14485321442E+02  0.59301910738E+02  0.49999939287E+02 0.  0.
        -12    1    1    2    0    0 -0.23824462154E+02  0.15469103214E+02 -0.14485321442E+02  0.31886089262E+02  0.00000000000E+00 0.  1.
         11    1    3    3    0    0  0.38253442841E+00 -0.16792610314E+02 -0.11077207836E+02  0.20120701465E+02  0.51100000000E-03 0. -1.
        -11    1    3    3    0    0  0.42382642238E+01  0.82533024398E+01  0.80485875867E+01  0.12282493525E+02  0.51100000000E-03 0.  1.
         12    1    3    3    0    0  0.19203663502E+02 -0.69297953395E+01  0.17513941691E+02  0.26898715748E+02  0.00000000000E+00 0. -1.
</event>
<event>
 7    1  0.1139627E-011  0.5930194E+02  0.7816164E-02  0.1266605E+00
        -11   -1    0    0    0    0  0.00000000000E+00  0.00000000000E+00  0.45593999997E+02  0.45594000000E+02  0.51100000000E-03 0. -1.
         11   -1    0    0    0    0 -0.00000000000E+00 -0.00000000000E+00 -0.45593999997E+02  0.45594000000E+02  0.51100000000E-03 0.  1.
    9900012    2    1    2    0    0  0.15771468554E+02  0.26812418659E+02  0.70054249936E+01  0.59301937308E+02  0.49999987744E+02 0.  0.
        -12    1    1    2    0    0 -0.15771468554E+02 -0.26812418659E+02 -0.70054249936E+01  0.31886062692E+02  0.00000000000E+00 0.  1.
         11    1    3    3    0    0  0.15171419745E+02 -0.32394903546E+01  0.16585138295E+02  0.22709757536E+02  0.51100000000E-03 0. -1.
        -11    1    3    3    0    0  0.45960614017E+01  0.90571828474E+01 -0.11248657198E+02  0.15155481865E+02  0.51100000000E-03 0.  1.
         12    1    3    3    0    0 -0.39960125925E+01  0.20994726166E+02  0.16689438966E+01  0.21436697907E+02  0.00000000000E+00 0. -1.
</event>
<event>
 7    1  0.1139627E-011  0.5930191E+02  0.7816164E-02  0.1266605E+00
        -11   -1    0    0    0    0  0.00000000000E+00  0.00000000000E+00  0.45593999997E+02  0.45594000000E+02  0.51100000000E-03 0. -1.
         11   -1    0    0    0    0 -0.00000000000E+00 -0.00000000000E+00 -0.45593999997E+02  0.45594000000E+02  0.51100000000E-03 0.  1.
    9900012    2    1    2    0    0 -0.38475233913E+01  0.83902969099E+01  0.30520846539E+02  0.59301912251E+02  0.49999942047E+02 0.  0.
        -12    1    1    2    0    0  0.38475233913E+01 -0.83902969099E+01 -0.30520846539E+02  0.31886087749E+02  0.00000000000E+00 0.  1.
         11    1    3    3    0    0 -0.83953811589E+00  0.80889173661E+01  0.27962070512E+02  0.29120659264E+02  0.51100000000E-03 0. -1.
        -11    1    3    3    0    0 -0.14939699078E+02 -0.29105927844E+00 -0.53305732268E+01  0.15864877410E+02  0.51100000000E-03 0.  1.
        -12    1    3    3    0    0  0.11931713802E+02  0.59243882223E+00  0.78893492536E+01  0.14316375577E+02  0.00000000000E+00 0.  1.
</event>
<event>
 7    1  0.1139627E-011  0.5930195E+02  0.7816164E-02  0.1266605E+00
        -11   -1    0    0    0    0  0.00000000000E+00  0.00000000000E+00  0.45593999997E+02  0.45594000000E+02  0.51100000000E-03 0. -1.
         11   -1    0    0    0    0 -0.00000000000E+00 -0.00000000000E+00 -0.45593999997E+02  0.45594000000E+02  0.51100000000E-03 0.  1.
    9900012    2    1    2    0    0  0.37735065820E+01 -0.22780394983E+02  0.21989422662E+02  0.59301945736E+02  0.50000003116E+02 0.  0.
        -12    1    1    2    0    0 -0.37735065820E+01  0.22780394983E+02 -0.21989422662E+02  0.31886054264E+02  0.00000000000E+00 0.  1.
         11    1    3    3    0    0  0.17725516149E+02 -0.30976809483E+02  0.10471552456E+02  0.37194220782E+02  0.51100000000E-03 0. -1.
        -11    1    3    3    0    0 -0.10880437752E+02  0.98700205916E+01  0.66797172005E+01  0.16137529374E+02  0.51100000000E-03 0.  1.
         12    1    3    3    0    0 -0.30715718149E+01 -0.16736060917E+01  0.48381530060E+01  0.59701955809E+01  0.00000000000E+00 0. -1.
</event>
<event>
 7    1  0.1139627E-011  0.5930195E+02  0.7816164E-02  0.1266605E+00
        -11   -1    0    0    0    0  0.00000000000E+00  0.00000000000E+00  0.45593999997E+02  0.45594000000E+02  0.51100000000E-03 0.  1.
         11   -1    0    0    0    0 -0.00000000000E+00 -0.00000000000E+00 -0.45593999997E+02  0.45594000000E+02  0.51100000000E-03 0. -1.
    9900012    2    1    2    0    0  0.70796409457E+01  0.18672373522E+02 -0.24858428175E+02  0.59301948187E+02  0.50000007585E+02 0.  0.
        -12    1    1    2    0    0 -0.70796409457E+01 -0.18672373522E+02  0.24858428175E+02  0.31886051813E+02  0.00000000000E+00 0.  1.
         11    1    3    3    0    0 -0.29776989931E+01 -0.63255583074E+01 -0.19675214063E+02  0.20880455643E+02  0.51100000000E-03 0.  1.
        -11    1    3    3    0    0  0.22162625278E+01  0.23291513259E+01  0.96822056026E+01  0.10202052298E+02  0.51100000000E-03 0. -1.
         12    1    3    3    0    0  0.78410774109E+01  0.22668780504E+02 -0.14865419715E+02  0.28219440246E+02  0.00000000000E+00 0. -1.
</event>
<event>
 7    1  0.1139627E-011  0.5930192E+02  0.7816164E-02  0.1266605E+00
        -11   -1    0    0    0    0  0.00000000000E+00  0.00000000000E+00  0.45593999997E+02  0.45594000000E+02  0.51100000000E-03 0.  1.
         11   -1    0    0    0    0 -0.00000000000E+00 -0.00000000000E+00 -0.45593999997E+02  0.45594000000E+02  0.51100000000E-03 0. -1.
    9900012    2    1    2    0    0  0.58703719857E+01 -0.28524850639E+02 -0.12984372638E+02  0.59301916765E+02  0.49999950280E+02 0.  0.
        -12    1    1    2    0    0 -0.58703719857E+01  0.28524850639E+02  0.12984372638E+02  0.31886083235E+02  0.00000000000E+00 0.  1.
         11    1    3    3    0    0  0.14939338016E+02  0.56902162565E+01 -0.77854369526E+01  0.17781321948E+02  0.51100000000E-03 0. -1.
        -11    1    3    3    0    0 -0.47229308632E+01 -0.26497085236E+02 -0.12841937620E+02  0.29821417874E+02  0.51100000000E-03 0.  1.
        -12    1    3    3    0    0 -0.43460351674E+01 -0.77179816598E+01  0.76430019345E+01  0.11699176943E+02  0.00000000000E+00 0.  1.
</event>
<event>
 7    1  0.1139627E-011  0.5930194E+02  0.7816164E-02  0.1266605E+00
        -11   -1    0    0    0    0  0.00000000000E+00  0.00000000000E+00  0.45593999997E+02  0.45594000000E+02  0.51100000000E-03 0.  1.
         11   -1    0    0    0    0 -0.00000000000E+00 -0.00000000000E+00 -0.45593999997E+02  0.45594000000E+02  0.51100000000E-03 0. -1.
    9900012    2    1    2    0    0  0.89030752293E+01  0.27910835525E+02 -0.12587355954E+02  0.59301936929E+02  0.49999987053E+02 0.  0.
        -12    1    1    2    0    0 -0.89030752293E+01 -0.27910835525E+02  0.12587355954E+02  0.31886063071E+02  0.00000000000E+00 0.  1.
         11    1    3    3    0    0  0.77277846368E+01  0.14898830593E+02  0.86066475339E+01  0.18861818323E+02  0.51100000000E-03 0.  1.
        -11    1    3    3    0    0 -0.14467545902E+02  0.27719377838E+01 -0.14251484635E+02  0.20496300595E+02  0.51100000000E-03 0. -1.
         12    1    3    3    0    0  0.15642836495E+02  0.10240067149E+02 -0.69425188534E+01  0.19943818011E+02  0.00000000000E+00 0. -1.
</event>
<event>
 7    1  0.1139627E-011  0.5930197E+02  0.7816164E-02  0.1266605E+00
        -11   -1    0    0    0    0  0.00000000000E+00  0.00000000000E+00  0.45593999997E+02  0.45594000000E+02  0.51100000000E-03 0.  1.
         11   -1    0    0    0    0 -0.00000000000E+00 -0.00000000000E+00 -0.45593999997E+02  0.45594000000E+02  0.51100000000E-03 0. -1.
    9900012    2    1    2    0    0  0.11069510132E+02  0.71158948361E+01 -0.29043914829E+02  0.59301968536E+02  0.50000044698E+02 0.  0.
        -12    1    1    2    0    0 -0.11069510132E+02 -0.71158948361E+01  0.29043914829E+02  0.31886031464E+02  0.00000000000E+00 0.  1.
         11    1    3    3    0    0 -0.90519140616E+01  0.13936407618E+02 -0.26870649868E+02  0.31594183485E+02  0.51100000000E-03 0. -1.
        -11    1    3    3    0    0  0.17407809472E+02 -0.45673234344E+01 -0.89263309941E+01  0.20089093042E+02  0.51100000000E-03 0.  1.
         12    1    3    3    0    0  0.27136147212E+01 -0.22531893471E+01  0.67530660330E+01  0.76186920095E+01  0.00000000000E+00 0. -1.
</event>
<event>
 7    1  0.1139627E-011  0.5930202E+02  0.7816164E-02  0.1266605E+00
        -11   -1    0    0    0    0  0.00000000000E+00  0.00000000000E+00  0.45593999997E+02  0.45594000000E+02  0.51100000000E-03 0.  1.
         11   -1    0    0    0    0 -0.00000000000E+00 -0.00000000000E+00 -0.45593999997E+02  0.45594000000E+02  0.51100000000E-03 0. -1.
    9900012    2    1    2    0    0  0.21604463870E+02  0.13764249624E+02 -0.18987058091E+02  0.59302018727E+02  0.50000136233E+02 0.  0.
        -12    1    1    2    0    0 -0.21604463870E+02 -0.13764249624E+02  0.18987058091E+02  0.31885981273E+02  0.00000000000E+00 0.  1.
         11    1    3    3    0    0  0.11108636998E+02 -0.18194830246E+01 -0.15393984680E+02  0.19070582031E+02  0.51100000000E-03 0. -1.
        -11    1    3    3    0    0 -0.78481947449E+01  0.19529838282E+02  0.38245007057E+00  0.21051247288E+02  0.51100000000E-03 0.  1.
         12    1    3    3    0    0  0.18344021617E+02 -0.39461056332E+01 -0.39755234814E+01  0.19180189407E+02  0.00000000000E+00 0. -1.
</event>
<event>
 7    1  0.1139627E-011  0.5930195E+02  0.7816164E-02  0.1266605E+00
        -11   -1    0    0    0    0  0.00000000000E+00  0.00000000000E+00  0.45593999997E+02  0.45594000000E+02  0.51100000000E-03 0. -1.
         11   -1    0    0    0    0 -0.00000000000E+00 -0.00000000000E+00 -0.45593999997E+02  0.45594000000E+02  0.51100000000E-03 0.  1.
    9900012    2    1    2    0    0 -0.25871338350E+02 -0.50123654481E+01  0.17951880935E+02  0.59301953138E+02  0.50000016614E+02 0.  0.
        -12    1    1    2    0    0  0.25871338350E+02  0.50123654481E+01 -0.17951880935E+02  0.31886046862E+02  0.00000000000E+00 0.  1.
         11    1    3    3    0    0 -0.33323821316E+00 -0.11094414691E+02 -0.50859272707E+01  0.12209166290E+02  0.51100000000E-03 0.  1.
        -11    1    3    3    0    0 -0.25448940427E+02  0.30670403318E+01  0.30027250680E+02  0.39480262017E+02  0.51100000000E-03 0. -1.
         12    1    3    3    0    0 -0.89159709587E-01  0.30150089111E+01 -0.69894424745E+01  0.76125248303E+01  0.00000000000E+00 0. -1.
</event>
<event>
 7    1  0.1139627E-011  0.5930193E+02  0.7816164E-02  0.1266605E+00
        -11   -1    0    0    0    0  0.00000000000E+00  0.00000000000E+00  0.45593999997E+02  0.45594000000E+02  0.51100000000E-03 0.  1.
         11   -1    0    0    0    0 -0.00000000000E+00 -0.00000000000E+00 -0.45593999997E+02  0.45594000000E+02  0.51100000000E-03 0. -1.
    9900012    2    1    2    0    0  0.98208736465E+01 -0.29770794836E+02 -0.58285360373E+01  0.59301927543E+02  0.49999969937E+02 0.  0.
        -12    1    1    2    0    0 -0.98208736465E+01  0.29770794836E+02  0.58285360373E+01  0.31886072457E+02  0.00000000000E+00 0.  1.
         11    1    3    3    0    0  0.77420829939E+01 -0.75878047251E+01 -0.22922793154E+02  0.25356834894E+02  0.51100000000E-03 0. -1.
        -11    1    3    3    0    0 -0.50151399802E+01 -0.21134470076E+02  0.10198140007E+02  0.23996239586E+02  0.51100000000E-03 0.  1.
         12    1    3    3    0    0  0.70939306327E+01 -0.10485200352E+01  0.68961171090E+01  0.99488530629E+01  0.00000000000E+00 0. -1.
</event>
<event>
 7    1  0.1139627E-011  0.5930187E+02  0.7816164E-02  0.1266605E+00
        -11   -1    0    0    0    0  0.00000000000E+00  0.00000000000E+00  0.45593999997E+02  0.45594000000E+02  0.51100000000E-03 0. -1.
         11   -1    0    0    0    0 -0.00000000000E+00 -0.00000000000E+00 -0.45593999997E+02  0.45594000000E+02  0.51100000000E-03 0.  1.
    9900012    2    1    2    0    0  0.24558270528E+02 -0.19402509993E+02  0.60958386064E+01  0.59301869886E+02  0.49999864782E+02 0.  0.
        -12    1    1    2    0    0 -0.24558270528E+02  0.19402509993E+02 -0.60958386064E+01  0.31886130114E+02  0.00000000000E+00 0.  1.
         11    1    3    3    0    0  0.16045526141E+01 -0.30060337174E+02  0.98019586250E+01  0.31658756344E+02  0.51100000000E-03 0. -1.
        -11    1    3    3    0    0  0.11999022752E+02  0.41570642466E+01 -0.69802328299E+01  0.14490734308E+02  0.51100000000E-03 0.  1.
         12    1    3    3    0    0  0.10954695162E+02  0.65007629341E+01  0.32741128113E+01  0.13152379234E+02  0.00000000000E+00 0. -1.
</event>
<event>
 7    1  0.1139627E-011  0.5930196E+02  0.7816164E-02  0.1266605E+00
        -11   -1    0    0    0    0  0.00000000000E+00  0.00000000000E+00  0.45593999997E+02  0.45594000000E+02  0.51100000000E-03 0. -1.
         11   -1    0    0    0    0 -0.00000000000E+00 -0.00000000000E+00 -0.45593999997E+02  0.45594000000E+02  0.51100000000E-03 0.  1.
    9900012    2    1    2    0    0 -0.14258669085E+02  0.99180294101E+00  0.28503095719E+02  0.59301956302E+02  0.50000022386E+02 0.  0.
        -12    1    1    2    0    0  0.14258669085E+02 -0.99180294101E+00 -0.28503095719E+02  0.31886043698E+02  0.00000000000E+00 0.  1.
         11    1    3    3    0    0 -0.12251458716E+02  0.12961666275E+02  0.16037717531E+02  0.23985650234E+02  0.51100000000E-03 0. -1.
        -11    1    3    3    0    0 -0.19583320221E+01 -0.41617805575E+01 -0.10283201374E+02  0.11264977252E+02  0.51100000000E-03 0.  1.
        -12    1    3    3    0    0 -0.48878346887E-01 -0.78080827765E+01  0.22748579562E+02  0.24051328817E+02  0.00000000000E+00 0.  1.
</event>
<event>
 7    1  0.1139627E-011  0.5930195E+02  0.7816164E-02  0.1266605E+00
        -11   -1    0    0    0    0  0.00000000000E+00  0.00000000000E+00  0.45593999997E+02  0.45594000000E+02  0.51100000000E-03 0.  1.
         11   -1    0    0    0    0 -0.00000000000E+00 -0.00000000000E+00 -0.45593999997E+02  0.45594000000E+02  0.51100000000E-03 0. -1.
    9900012    2    1    2    0    0  0.13749660655E+02 -0.14300541575E+01 -0.28733641821E+02  0.59301946695E+02  0.50000004865E+02 0.  0.
        -12    1    1    2    0    0 -0.13749660655E+02  0.14300541575E+01  0.28733641821E+02  0.31886053305E+02  0.00000000000E+00 0.  1.
         11    1    3    3    0    0  0.64368394364E+01 -0.80850436602E+01 -0.21332196339E+02  0.23703658659E+02  0.51100000000E-03 0. -1.
        -11    1    3    3    0    0  0.18031683465E+01  0.20024189071E+02 -0.21740437882E+01  0.20222414067E+02  0.51100000000E-03 0.  1.
        -12    1    3    3    0    0  0.55096528725E+01 -0.13369199568E+02 -0.52274016947E+01  0.15375873970E+02  0.00000000000E+00 0.  1.
</event>
<event>
 7    1  0.1139627E-011  0.5930195E+02  0.7816164E-02  0.1266605E+00
        -11   -1    0    0    0    0  0.00000000000E+00  0.00000000000E+00  0.45593999997E+02  0.45594000000E+02  0.51100000000E-03 0. -1.
         11   -1    0    0    0    0 -0.00000000000E+00 -0.00000000000E+00 -0.45593999997E+02  0.45594000000E+02  0.51100000000E-03 0.  1.
    9900012    2    1    2    0    0 -0.11284351091E+02 -0.24817863757E+02  0.16536533837E+02  0.59301954583E+02  0.50000019250E+02 0.  0.
        -12    1    1    2    0    0  0.11284351091E+02  0.24817863757E+02 -0.16536533837E+02  0.31886045417E+02  0.00000000000E+00 0.  1.
         11    1    3    3    0    0  0.47748138291E+01  0.30052073252E+01 -0.32567351947E+01  0.65143259482E+01  0.51100000000E-03 0.  1.
        -11    1    3    3    0    0 -0.21704926393E+02 -0.19317110825E+02 -0.15824086153E+01  0.29099117128E+02  0.51100000000E-03 0. -1.
        -12    1    3    3    0    0  0.56457614731E+01 -0.85059602573E+01  0.21375677647E+02  0.23688511506E+02  0.00000000000E+00 0.  1.
</event>
<event>
 7    1  0.1139627E-011  0.5930195E+02  0.7816164E-02  0.1266605E+00
        -11   -1    0    0    0    0  0.00000000000E+00  0.00000000000E+00  0.45593999997E+02  0.45594000000E+02  0.51100000000E-03 0.  1.
         11   -1    0    0    0    0 -0.00000000000E+00 -0.00000000000E+00 -0.45593999997E+02  0.45594000000E+02  0.51100000000E-03 0. -1.
    9900012    2    1    2    0    0 -0.15182249172E+02 -0.25922784460E+02 -0.10687788844E+02  0.59301948591E+02  0.50000008321E+02 0.  0.
        -12    1    1    2    0    0  0.15182249172E+02  0.25922784460E+02  0.10687788844E+02  0.31886051409E+02  0.00000000000E+00 0.  1.
         11    1    3    3    0    0  0.10553409176E+02 -0.15760940289E+02 -0.75192969621E+01  0.20403958221E+02  0.51100000000E-03 0. -1.
        -11    1    3    3    0    0 -0.17822428937E+02 -0.13584398147E+02  0.88613185180E+01  0.24097672343E+02  0.51100000000E-03 0.  1.
        -12    1    3    3    0    0 -0.79132294112E+01  0.34225539755E+01 -0.12029810400E+02  0.14800318026E+02  0.00000000000E+00 0.  1.
</event>
<event>
 7    1  0.1139627E-011  0.5930194E+02  0.7816164E-02  0.1266605E+00
        -11   -1    0    0    0    0  0.00000000000E+00  0.00000000000E+00  0.45593999997E+02  0.45594000000E+02  0.51100000000E-03 0.  1.
         11   -1    0    0    0    0 -0.00000000000E+00 -0.00000000000E+00 -0.45593999997E+02  0.45594000000E+02  0.51100000000E-03 0. -1.
    9900012    2    1    2    0    0  0.14794716523E+02 -0.25401807157E+02 -0.12352550718E+02  0.59301937949E+02  0.49999988915E+02 0.  0.
        -12    1    1    2    0    0 -0.14794716523E+02  0.25401807157E+02  0.12352550718E+02  0.31886062051E+02  0.00000000000E+00 0.  1.
         11    1    3    3    0    0  0.17471289358E+00 -0.53442025462E+01 -0.22835525000E+02  0.23453192272E+02  0.51100000000E-03 0. -1.
        -11    1    3    3    0    0  0.34194194118E+01  0.94532878150E+00  0.11489357644E+02  0.12024617039E+02  0.51100000000E-03 0.  1.
         12    1    3    3    0    0  0.11200584217E+02 -0.21002933393E+02 -0.10063833620E+01  0.23824128638E+02  0.00000000000E+00 0. -1.
</event>
<event>
 7    1  0.1139627E-011  0.5930195E+02  0.7816164E-02  0.1266605E+00
        -11   -1    0    0    0    0  0.00000000000E+00  0.00000000000E+00  0.45593999997E+02  0.45594000000E+02  0.51100000000E-03 0.  1.
         11   -1    0    0    0    0 -0.00000000000E+00 -0.00000000000E+00 -0.45593999997E+02  0.45594000000E+02  0.51100000000E-03 0. -1.
    9900012    2    1    2    0    0 -0.24039319940E+02  0.20125281712E+02 -0.58141676904E+01  0.59301946417E+02  0.50000004357E+02 0.  0.
        -12    1    1    2    0    0  0.24039319940E+02 -0.20125281712E+02  0.58141676904E+01  0.31886053583E+02  0.00000000000E+00 0.  1.
         11    1    3    3    0    0 -0.20956727686E+02  0.42980527023E+01 -0.24770696023E+02  0.32729880446E+02  0.51100000000E-03 0. -1.
        -11    1    3    3    0    0 -0.64257990211E+01  0.10030280149E+02  0.11595228057E+02  0.16623679703E+02  0.51100000000E-03 0.  1.
         12    1    3    3    0    0  0.33432067665E+01  0.57969488611E+01  0.73613002754E+01  0.99483862674E+01  0.00000000000E+00 0. -1.
</event>
<event>
 7    1  0.1139627E-011  0.5930196E+02  0.7816164E-02  0.1266605E+00
        -11   -1    0    0    0    0  0.00000000000E+00  0.00000000000E+00  0.45593999997E+02  0.45594000000E+02  0.51100000000E-03 0.  1.
         11   -1    0    0    0    0 -0.00000000000E+00 -0.00000000000E+00 -0.45593999997E+02  0.45594000000E+02  0.51100000000E-03 0. -1.
    9900012    2    1    2    0    0 -0.30355700230E+02  0.41847380718E+01  0.88169600580E+01  0.59301963027E+02  0.50000034650E+02 0.  0.
        -12    1    1    2    0    0  0.30355700230E+02 -0.41847380718E+01 -0.88169600580E+01  0.31886036973E+02  0.00000000000E+00 0.  1.
         11    1    3    3    0    0  0.56585366872E+01  0.92814864620E+01 -0.24850156058E+01  0.11150799577E+02  0.51100000000E-03 0. -1.
        -11    1    3    3    0    0 -0.41099272337E+01 -0.10190899726E+02  0.11412272023E+02  0.15842534269E+02  0.51100000000E-03 0.  1.
         12    1    3    3    0    0 -0.31904309684E+02  0.50941513359E+01 -0.11029635912E+00  0.32308629180E+02  0.00000000000E+00 0. -1.
</event>
<event>
 7    1  0.1139627E-011  0.5930196E+02  0.7816164E-02  0.1266605E+00
        -11   -1    0    0    0    0  0.00000000000E+00  0.00000000000E+00  0.45593999997E+02  0.45594000000E+02  0.51100000000E-03 0.  1.
         11   -1    0    0    0    0 -0.00000000000E+00 -0.00000000000E+00 -0.45593999997E+02  0.45594000000E+02  0.51100000000E-03 0. -1.
    9900012    2    1    2    0    0  0.17076250235E+02 -0.19600068877E+02 -0.18465055690E+02  0.59301963813E+02  0.50000036084E+02 0.  0.
        -12    1    1    2    0    0 -0.17076250235E+02  0.19600068877E+02  0.18465055690E+02  0.31886036187E+02  0.00000000000E+00 0.  1.
         11    1    3    3    0    0 -0.76925822787E+01 -0.20764035223E+02  0.28009981207E+00  0.22144964146E+02  0.51100000000E-03 0. -1.
        -11    1    3    3    0    0  0.83855983760E+00  0.48333832504E+01 -0.10486446781E+02  0.11577147429E+02  0.51100000000E-03 0.  1.
         12    1    3    3    0    0  0.23930272677E+02 -0.36694169039E+01 -0.82587087208E+01  0.25579852238E+02  0.00000000000E+00 0. -1.
</event>
<event>
 7    1  0.1139627E-011  0.5930193E+02  0.7816164E-02  0.1266605E+00
        -11   -1    0    0    0    0  0.00000000000E+00  0.00000000000E+00  0.45593999997E+02  0.45594000000E+02  0.51100000000E-03 0.  1.
         11   -1    0    0    0    0 -0.00000000000E+00 -0.00000000000E+00 -0.45593999997E+02  0.45594000000E+02  0.51100000000E-03 0. -1.
    9900012    2    1    2    0    0 -0.26353565219E+02 -0.62717744361E+01 -0.16818906739E+02  0.59301934419E+02  0.49999982476E+02 0.  0.
        -12    1    1    2    0    0  0.26353565219E+02  0.62717744361E+01  0.16818906739E+02  0.31886065581E+02  0.00000000000E+00 0.  1.
         11    1    3    3    0    0  0.76610417856E+01  0.49240215613E+01 -0.58092452702E+01  0.10802077599E+02  0.51100000000E-03 0. -1.
        -11    1    3    3    0    0 -0.29666559522E+02 -0.37584026577E+01  0.50005472223E+01  0.30318901979E+02  0.51100000000E-03 0.  1.
        -12    1    3    3    0    0 -0.43480474825E+01 -0.74373933396E+01 -0.16010208691E+02  0.18180954841E+02  0.00000000000E+00 0.  1.
</event>
<event>
 7    1  0.1139627E-011  0.5930196E+02  0.7816164E-02  0.1266605E+00
        -11   -1    0    0    0    0  0.00000000000E+00  0.00000000000E+00  0.45593999997E+02  0.45594000000E+02  0.51100000000E-03 0. -1.
         11   -1    0    0    0    0 -0.00000000000E+00 -0.00000000000E+00 -0.45593999997E+02  0.45594000000E+02  0.51100000000E-03 0.  1.
    9900012    2    1    2    0    0 -0.26426712070E+02 -0.13963872542E+02  0.11106703410E+02  0.59301957476E+02  0.50000024526E+02 0.  0.
        -12    1    1    2    0    0  0.26426712070E+02  0.13963872542E+02 -0.11106703410E+02  0.31886042524E+02  0.00000000000E+00 0.  1.
         11    1    3    3    0    0 -0.21792408134E+01 -0.17958217834E+02 -0.11742353652E+02  0.21566862263E+02  0.51100000000E-03 0. -1.
        -11    1    3    3    0    0 -0.77588536926E+01  0.98383854132E+01  0.99553279621E+01  0.16003193221E+02  0.51100000000E-03 0.  1.
         12    1    3    3    0    0 -0.16488617564E+02 -0.58440401212E+01  0.12893729100E+02  0.21731901993E+02  0.00000000000E+00 0. -1.
</event>
<event>
 7    1  0.1139627E-011  0.5930192E+02  0.7816164E-02  0.1266605E+00
        -11   -1    0    0    0    0  0.00000000000E+00  0.00000000000E+00  0.45593999997E+02  0.45594000000E+02  0.51100000000E-03 0.  1.
         11   -1    0    0    0    0 -0.00000000000E+00 -0.00000000000E+00 -0.45593999997E+02  0.45594000000E+02  0.51100000000E-03 0. -1.
    9900012    2    1    2    0    0  0.22788403757E+02 -0.21683650123E+02 -0.52182571569E+01  0.59301917829E+02  0.49999952220E+02 0.  0.
        -12    1    1    2    0    0 -0.22788403757E+02  0.21683650123E+02  0.52182571569E+01  0.31886082171E+02  0.00000000000E+00 0.  1.
         11    1    3    3    0    0 -0.95089709690E+01 -0.11789610287E+02  0.27369635861E+01  0.15391764341E+02  0.51100000000E-03 0. -1.
        -11    1    3    3    0    0  0.11778588867E+02 -0.42226581780E+01 -0.16723971289E+02  0.20886771261E+02  0.51100000000E-03 0.  1.
        -12    1    3    3    0    0  0.20518785859E+02 -0.56713816579E+01  0.87687505457E+01  0.23023382227E+02  0.00000000000E+00 0.  1.
</event>
<event>
 7    1  0.1139627E-011  0.5930194E+02  0.7816164E-02  0.1266605E+00
        -11   -1    0    0    0    0  0.00000000000E+00  0.00000000000E+00  0.45593999997E+02  0.45594000000E+02  0.51100000000E-03 0.  1.
         11   -1    0    0    0    0 -0.00000000000E+00 -0.00000000000E+00 -0.45593999997E+02  0.45594000000E+02  0.51100000000E-03 0. -1.
    9900012    2    1    2    0    0 -0.19556741256E+02 -0.23089208683E+02 -0.10056982284E+02  0.59301943818E+02  0.49999999618E+02 0.  0.
        -12    1    1    2    0    0  0.19556741256E+02  0.23089208683E+02  0.10056982284E+02  0.31886056182E+02  0.00000000000E+00 0.  1.
         11    1    3    3    0    0  0.22125473707E+01  0.40772956720E+01  0.10731694597E+02  0.11691406034E+02  0.51100000000E-03 0. -1.
        -11    1    3    3    0    0 -0.77746467863E+01 -0.11603071974E+02  0.46016876552E+01  0.14705507180E+02  0.51100000000E-03 0.  1.
         12    1    3    3    0    0 -0.13994641840E+02 -0.15563432381E+02 -0.25390364537E+02  0.32905030604E+02  0.00000000000E+00 0. -1.
</event>
<event>
 7    1  0.1139627E-011  0.5930195E+02  0.7816164E-02  0.1266605E+00
        -11   -1    0    0    0    0  0.00000000000E+00  0.00000000000E+00  0.45593999997E+02  0.45594000000E+02  0.51100000000E-03 0.  1.
         11   -1    0    0    0    0 -0.00000000000E+00 -0.00000000000E+00 -0.45593999997E+02  0.45594000000E+02  0.51100000000E-03 0. -1.
    9900012    2    1    2    0    0 -0.11565071495E+02 -0.26036009045E+01 -0.29600511101E+02  0.59301954874E+02  0.50000019781E+02 0.  0.
        -12    1    1    2    0    0  0.11565071495E+02  0.26036009045E+01  0.29600511101E+02  0.31886045126E+02  0.00000000000E+00 0.  1.
         11    1    3    3    0    0 -0.18763893618E+02  0.11272039707E+02 -0.14290931586E+02  0.26141409846E+02  0.51100000000E-03 0. -1.
        -11    1    3    3    0    0  0.10423798383E+02 -0.42419586695E+01  0.34976295842E+01  0.11784871618E+02  0.51100000000E-03 0.  1.
         12    1    3    3    0    0 -0.32249762595E+01 -0.96336819421E+01 -0.18807209099E+02  0.21375673410E+02  0.00000000000E+00 0. -1.
</event>
<event>
 7    1  0.1139627E-011  0.5930197E+02  0.7816164E-02  0.1266605E+00
        -11   -1    0    0    0    0  0.00000000000E+00  0.00000000000E+00  0.45593999997E+02  0.45594000000E+02  0.51100000000E-03 0. -1.
         11   -1    0    0    0    0 -0.00000000000E+00 -0.00000000000E+00 -0.45593999997E+02  0.45594000000E+02  0.51100000000E-03 0.  1.
    9900012    2    1    2    0    0 -0.23122975571E+02 -0.16932479367E+02  0.13976329526E+02  0.59301974161E+02  0.50000054956E+02 0.  0.
        -12    1    1    2    0    0  0.23122975571E+02  0.16932479367E+02 -0.13976329526E+02  0.31886025839E+02  0.00000000000E+00 0.  1.
         11    1    3    3    0    0  0.24109414953E+01 -0.19559368227E+02  0.13944296526E+02  0.24141767338E+02  0.51100000000E-03 0. -1.
        -11    1    3    3    0    0 -0.26807334703E+02  0.81948184358E+01  0.38426128920E+01  0.28294061518E+02  0.51100000000E-03 0.  1.
         12    1    3    3    0    0  0.12734176367E+01 -0.55679295752E+01 -0.38105798924E+01  0.68661453049E+01  0.00000000000E+00 0. -1.
</event>
<event>
 7    1  0.1139627E-011  0.5930195E+02  0.7816164E-02  0.1266605E+00
        -11   -1    0    0    0    0  0.00000000000E+00  0.00000000000E+00  0.45593999997E+02  0.45594000000E+02  0.51100000000E-03 0.  1.
         11   -1    0    0    0    0 -0.00000000000E+00 -0.00000000000E+00 -0.45593999997E+02  0.45594000000E+02  0.51100000000E-03 0. -1.
    9900012    2    1    2    0    0 -0.26433721715E+02  0.15276286461E+02  0.91985579074E+01  0.59301952278E+02  0.50000015047E+02 0.  0.
        -12    1    1    2    0    0  0.26433721715E+02 -0.15276286461E+02 -0.91985579074E+01  0.31886047722E+02  0.00000000000E+00 0.  1.
         11    1    3    3    0    0 -0.60223456267E+01 -0.69949081568E+01 -0.70815843198E+01  0.11633839594E+02  0.51100000000E-03 0. -1.
        -11    1    3    3    0    0  0.36613038282E+01  0.15250161286E+02  0.16261794396E+02  0.22592443918E+02  0.51100000000E-03 0.  1.
         12    1    3    3    0    0 -0.24072679916E+02  0.70210333322E+01  0.18347831286E-01  0.25075668766E+02  0.00000000000E+00 0. -1.
</event>
<event>
 7    1  0.1139627E-011  0.5930192E+02  0.7816164E-02  0.1266605E+00
        -11   -1    0    0    0    0  0.00000000000E+00  0.00000000000E+00  0.45593999997E+02  0.45594000000E+02  0.51100000000E-03 0. -1.
         11   -1    0    0    0    0 -0.00000000000E+00 -0.00000000000E+00 -0.45593999997E+02  0.45594000000E+02  0.51100000000E-03 0.  1.
    9900012    2    1    2    0    0 -0.54769596555E+01 -0.21764406243E+02  0.22650286293E+02  0.59301922547E+02  0.49999960825E+02 0.  0.
        -12    1    1    2    0    0  0.54769596555E+01  0.21764406243E+02 -0.22650286293E+02  0.31886077453E+02  0.00000000000E+00 0.  1.
         11    1    3    3    0    0  0.17740136445E+02 -0.29569662411E+00  0.93649532560E+01  0.20062458157E+02  0.51100000000E-03 0. -1.
        -11    1    3    3    0    0 -0.92728532698E+01 -0.82892190715E+01 -0.43525460112E+01  0.13177314507E+02  0.51100000000E-03 0.  1.
         12    1    3    3    0    0 -0.13944242830E+02 -0.13179490548E+02  0.17637879048E+02  0.26062149883E+02  0.00000000000E+00 0. -1.
</event>
<event>
 7    1  0.1139627E-011  0.5930195E+02  0.7816164E-02  0.1266605E+00
        -11   -1    0    0    0    0  0.00000000000E+00  0.00000000000E+00  0.45593999997E+02  0.45594000000E+02  0.51100000000E-03 0.  1.
         11   -1    0    0    0    0 -0.00000000000E+00 -0.00000000000E+00 -0.45593999997E+02  0.45594000000E+02  0.51100000000E-03 0. -1.
    9900012    2    1    2    0    0  0.24634026410E+02  0.61680608289E+01 -0.19283159189E+02  0.59301945683E+02  0.50000003020E+02 0.  0.
        -12    1    1    2    0    0 -0.24634026410E+02 -0.61680608289E+01  0.19283159189E+02  0.31886054317E+02  0.00000000000E+00 0.  1.
         11    1    3    3    0    0  0.25112333925E+02 -0.99453675537E+01 -0.11521384543E+02  0.29364637798E+02  0.51100000000E-03 0. -1.
        -11    1    3    3    0    0 -0.11622410979E+02  0.36612242687E+01 -0.27603349423E+01  0.12494176618E+02  0.51100000000E-03 0.  1.
        -12    1    3    3    0    0  0.11144103464E+02  0.12452204114E+02 -0.50014397043E+01  0.17443131268E+02  0.00000000000E+00 0.  1.
</event>
<event>
 7    1  0.1139627E-011  0.5930196E+02  0.7816164E-02  0.1266605E+00
        -11   -1    0    0    0    0  0.00000000000E+00  0.00000000000E+00  0.45593999997E+02  0.45594000000E+02  0.51100000000E-03 0.  1.
         11   -1    0    0    0    0 -0.00000000000E+00 -0.00000000000E+00 -0.45593999997E+02  0.45594000000E+02  0.51100000000E-03 0. -1.
    9900012    2    1    2    0    0  0.15439616519E+02 -0.73086792080E+01 -0.26924359098E+02  0.59301958181E+02  0.50000025812E+02 0.  0.
        -12    1    1    2    0    0 -0.15439616519E+02  0.73086792080E+01  0.26924359098E+02  0.31886041819E+02  0.00000000000E+00 0.  1.
         11    1    3    3    0    0  0.20127159152E+02 -0.66759048181E+00 -0.33882534488E+02  0.39415407599E+02  0.51100000000E-03 0. -1.
        -11    1    3    3    0    0  0.56511399254E+01 -0.59858190673E+01  0.24510801189E+01  0.85891330397E+01  0.51100000000E-03 0.  1.
         12    1    3    3    0    0 -0.10338682558E+02 -0.65526965882E+00  0.45070952710E+01  0.11297417543E+02  0.00000000000E+00 0. -1.
</event>
<event>
 7    1  0.1139627E-011  0.5930195E+02  0.7816164E-02  0.1266605E+00
        -11   -1    0    0    0    0  0.00000000000E+00  0.00000000000E+00  0.45593999997E+02  0.45594000000E+02  0.51100000000E-03 0. -1.
         11   -1    0    0    0    0 -0.00000000000E+00 -0.00000000000E+00 -0.45593999997E+02  0.45594000000E+02  0.51100000000E-03 0.  1.
    9900012    2    1    2    0    0 -0.27279304770E+02  0.38452853238E+01  0.16055327673E+02  0.59301949216E+02  0.50000009461E+02 0.  0.
        -12    1    1    2    0    0  0.27279304770E+02 -0.38452853238E+01 -0.16055327673E+02  0.31886050784E+02  0.00000000000E+00 0.  1.
         11    1    3    3    0    0 -0.11044764585E+02 -0.17868111299E+01  0.19467656180E+02  0.22453711412E+02  0.51100000000E-03 0. -1.
        -11    1    3    3    0    0 -0.86095022204E+01 -0.17846406167E+01 -0.17269589432E+02  0.19379039967E+02  0.51100000000E-03 0.  1.
        -12    1    3    3    0    0 -0.76250379644E+01  0.74167370705E+01  0.13857260925E+02  0.17469197837E+02  0.00000000000E+00 0.  1.
</event>
<event>
 7    1  0.1139627E-011  0.5930201E+02  0.7816164E-02  0.1266605E+00
        -11   -1    0    0    0    0  0.00000000000E+00  0.00000000000E+00  0.45593999997E+02  0.45594000000E+02  0.51100000000E-03 0.  1.
         11   -1    0    0    0    0 -0.00000000000E+00 -0.00000000000E+00 -0.45593999997E+02  0.45594000000E+02  0.51100000000E-03 0. -1.
    9900012    2    1    2    0    0  0.12889684840E+02  0.23070829011E+02  0.17841223443E+02  0.59302009652E+02  0.50000119683E+02 0.  0.
        -12    1    1    2    0    0 -0.12889684840E+02 -0.23070829011E+02 -0.17841223443E+02  0.31885990348E+02  0.00000000000E+00 0.  1.
         11    1    3    3    0    0 -0.54875586988E+01  0.46549174059E+01 -0.13919585362E+02  0.15669601573E+02  0.51100000000E-03 0. -1.
        -11    1    3    3    0    0 -0.16355063957E+01  0.53112680846E+01  0.92122672065E+01  0.10758732136E+02  0.51100000000E-03 0.  1.
         12    1    3    3    0    0  0.20012749935E+02  0.13104643520E+02  0.22548541599E+02  0.32873675943E+02  0.00000000000E+00 0. -1.
</event>
<event>
 7    1  0.1139627E-011  0.5930194E+02  0.7816164E-02  0.1266605E+00
        -11   -1    0    0    0    0  0.00000000000E+00  0.00000000000E+00  0.45593999997E+02  0.45594000000E+02  0.51100000000E-03 0.  1.
         11   -1    0    0    0    0 -0.00000000000E+00 -0.00000000000E+00 -0.45593999997E+02  0.45594000000E+02  0.51100000000E-03 0. -1.
    9900012    2    1    2    0    0  0.97484934219E+01  0.30176133001E+02  0.33299562060E+01  0.59301941366E+02  0.49999995146E+02 0.  0.
        -12    1    1    2    0    0 -0.97484934219E+01 -0.30176133001E+02 -0.33299562060E+01  0.31886058634E+02  0.00000000000E+00 0.  1.
         11    1    3    3    0    0  0.11341962450E+02  0.42744317282E+02 -0.14737882847E+01  0.44248037519E+02  0.51100000000E-03 0. -1.
        -11    1    3    3    0    0 -0.20930151622E+00 -0.37234844815E+01  0.48291130885E+01  0.61015143441E+01  0.51100000000E-03 0.  1.
         12    1    3    3    0    0 -0.13841675119E+01 -0.88446997997E+01 -0.25368597726E-01  0.89523895031E+01  0.00000000000E+00 0. -1.
</event>
<event>
 7    1  0.1139627E-011  0.5930195E+02  0.7816164E-02  0.1266605E+00
        -11   -1    0    0    0    0  0.00000000000E+00  0.00000000000E+00  0.45593999997E+02  0.45594000000E+02  0.51100000000E-03 0.  1.
         11   -1    0    0    0    0 -0.00000000000E+00 -0.00000000000E+00 -0.45593999997E+02  0.45594000000E+02  0.51100000000E-03 0. -1.
    9900012    2    1    2    0    0 -0.39327251849E+01  0.24929421229E+02 -0.19487895370E+02  0.59301946056E+02  0.50000003699E+02 0.  0.
        -12    1    1    2    0    0  0.39327251849E+01 -0.24929421229E+02  0.19487895370E+02  0.31886053944E+02  0.00000000000E+00 0.  1.
         11    1    3    3    0    0  0.11915567717E+02  0.82135699443E+01 -0.21389650486E+02  0.25825580989E+02  0.51100000000E-03 0. -1.
        -11    1    3    3    0    0 -0.19114182163E+02  0.11206460738E+02 -0.63328032047E+01  0.23044329426E+02  0.51100000000E-03 0.  1.
        -12    1    3    3    0    0  0.32658892603E+01  0.55093905464E+01  0.82345583208E+01  0.10432035640E+02  0.00000000000E+00 0.  1.
</event>
<event>
 7    1  0.1139627E-011  0.5930192E+02  0.7816164E-02  0.1266605E+00
        -11   -1    0    0    0    0  0.00000000000E+00  0.00000000000E+00  0.45593999997E+02  0.45594000000E+02  0.51100000000E-03 0. -1.
         11   -1    0    0    0    0 -0.00000000000E+00 -0.00000000000E+00 -0.45593999997E+02  0.45594000000E+02  0.51100000000E-03 0.  1.
    9900012    2    1    2    0    0 -0.32324171730E+01  0.18610824443E+02  0.25688729748E+02  0.59301919286E+02  0.49999954877E+02 0.  0.
        -12    1    1    2    0    0  0.32324171730E+01 -0.18610824443E+02 -0.25688729748E+02  0.31886080714E+02  0.00000000000E+00 0.  1.
         11    1    3    3    0    0  0.57954703763E+01  0.78656852254E+00  0.12822203937E+02  0.14093086283E+02  0.51100000000E-03 0. -1.
        -11    1    3    3    0    0 -0.63494476639E+01  0.11218643445E+02 -0.13042042527E+02  0.18337620345E+02  0.51100000000E-03 0.  1.
        -12    1    3    3    0    0 -0.26784398853E+01  0.66056124746E+01  0.25908568338E+02  0.26871212658E+02  0.00000000000E+00 0.  1.
</event>
<event>
 7    1  0.1139627E-011  0.5930195E+02  0.7816164E-02  0.1266605E+00
        -11   -1    0    0    0    0  0.00000000000E+00  0.00000000000E+00  0.45593999997E+02  0.45594000000E+02  0.51100000000E-03 0.  1.
         11   -1    0    0    0    0 -0.00000000000E+00 -0.00000000000E+00 -0.45593999997E+02  0.45594000000E+02  0.51100000000E-03 0. -1.
    9900012    2    1    2    0    0  0.29352044751E+02 -0.37859674440E+01  0.11867786608E+02  0.59301946003E+02  0.50000003602E+02 0.  0.
        -12    1    1    2    0    0 -0.29352044751E+02  0.37859674440E+01 -0.11867786608E+02  0.31886053997E+02  0.00000000000E+00 0.  1.
         11    1    3    3    0    0  0.15044140823E+01  0.22829859433E+01 -0.97278459593E+01  0.10104764907E+02  0.51100000000E-03 0. -1.
        -11    1    3    3    0    0  0.34137691945E+02 -0.83197762882E+01  0.23474944235E+02  0.42257232469E+02  0.51100000000E-03 0.  1.
         12    1    3    3    0    0 -0.62900612769E+01  0.22508229009E+01 -0.18793116680E+01  0.69399486269E+01  0.00000000000E+00 0. -1.
</event>
<event>
 7    1  0.1139627E-011  0.5930195E+02  0.7816164E-02  0.1266605E+00
        -11   -1    0    0    0    0  0.00000000000E+00  0.00000000000E+00  0.45593999997E+02  0.45594000000E+02  0.51100000000E-03 0. -1.
         11   -1    0    0    0    0 -0.00000000000E+00 -0.00000000000E+00 -0.45593999997E+02  0.45594000000E+02  0.51100000000E-03 0.  1.
    9900012    2    1    2    0    0 -0.23227901041E+02 -0.16203325483E+02  0.14650494594E+02  0.59301950773E+02  0.50000012302E+02 0.  0.
        -12    1    1    2    0    0  0.23227901041E+02  0.16203325483E+02 -0.14650494594E+02  0.31886049227E+02  0.00000000000E+00 0.  1.
         11    1    3    3    0    0 -0.10401242807E+02  0.12408013879E+02  0.17762167012E+02  0.24034126520E+02  0.51100000000E-03 0. -1.
        -11    1    3    3    0    0 -0.10407277690E+02 -0.17890173005E+02 -0.92600777115E+01  0.22674187054E+02  0.51100000000E-03 0.  1.
         12    1    3    3    0    0 -0.24193805434E+01 -0.10721166356E+02  0.61484052935E+01  0.12593637199E+02  0.00000000000E+00 0. -1.
</event>
<event>
 7    1  0.1139627E-011  0.5930195E+02  0.7816164E-02  0.1266605E+00
        -11   -1    0    0    0    0  0.00000000000E+00  0.00000000000E+00  0.45593999997E+02  0.45594000000E+02  0.51100000000E-03 0. -1.
         11   -1    0    0    0    0 -0.00000000000E+00 -0.00000000000E+00 -0.45593999997E+02  0.45594000000E+02  0.51100000000E-03 0.  1.
    9900012    2    1    2    0    0 -0.48768725768E+01  0.14994714977E+02  0.27714519951E+02  0.59301953216E+02  0.50000016757E+02 0.  0.
        -12    1    1    2    0    0  0.48768725768E+01 -0.14994714977E+02 -0.27714519951E+02  0.31886046784E+02  0.00000000000E+00 0.  1.
         11    1    3    3    0    0 -0.93569917007E+01  0.18713085424E+02  0.35297940078E+02  0.41032638640E+02  0.51100000000E-03 0. -1.
        -11    1    3    3    0    0  0.60531986914E+01 -0.46350029137E+01  0.24995941308E+01  0.80232435764E+01  0.51100000000E-03 0.  1.
         12    1    3    3    0    0 -0.15730795674E+01  0.91663246673E+00 -0.10083014258E+02  0.10246070999E+02  0.00000000000E+00 0. -1.
</event>
<event>
 7    1  0.1139627E-011  0.5930194E+02  0.7816164E-02  0.1266605E+00
        -11   -1    0    0    0    0  0.00000000000E+00  0.00000000000E+00  0.45593999997E+02  0.45594000000E+02  0.51100000000E-03 0. -1.
         11   -1    0    0    0    0 -0.00000000000E+00 -0.00000000000E+00 -0.45593999997E+02  0.45594000000E+02  0.51100000000E-03 0.  1.
    9900012    2    1    2    0    0  0.21710171858E+02 -0.28447699669E+01  0.23179651254E+02  0.59301944889E+02  0.50000001571E+02 0.  0.
        -12    1    1    2    0    0 -0.21710171858E+02  0.28447699669E+01 -0.23179651254E+02  0.31886055111E+02  0.00000000000E+00 0.  1.
         11    1    3    3    0    0  0.14849272896E+02  0.37034134069E+01  0.64087011773E+01  0.16591793979E+02  0.51100000000E-03 0.  1.
        -11    1    3    3    0    0 -0.32903835546E+01 -0.95487595066E+01  0.26483526919E+02  0.28344005193E+02  0.51100000000E-03 0. -1.
        -12    1    3    3    0    0  0.10151282516E+02  0.30005761328E+01 -0.97125768416E+01  0.14366145717E+02  0.00000000000E+00 0.  1.
</event>
<event>
 7    1  0.1139627E-011  0.5930194E+02  0.7816164E-02  0.1266605E+00
        -11   -1    0    0    0    0  0.00000000000E+00  0.00000000000E+00  0.45593999997E+02  0.45594000000E+02  0.51100000000E-03 0. -1.
         11   -1    0    0    0    0 -0.00000000000E+00 -0.00000000000E+00 -0.45593999997E+02  0.45594000000E+02  0.51100000000E-03 0.  1.
    9900012    2    1    2    0    0  0.55383067308E+01 -0.29414588284E+02 -0.10992278697E+02  0.59301936645E+02  0.49999986535E+02 0.  0.
        -12    1    1    2    0    0 -0.55383067308E+01  0.29414588284E+02  0.10992278697E+02  0.31886063355E+02  0.00000000000E+00 0.  1.
         11    1    3    3    0    0 -0.12548746380E+02 -0.22287121119E+02 -0.12433042132E+02  0.28438835074E+02  0.51100000000E-03 0. -1.
        -11    1    3    3    0    0  0.55618634070E+01  0.60881673113E+01  0.80197830285E+01  0.11502913798E+02  0.51100000000E-03 0.  1.
        -12    1    3    3    0    0  0.12525189704E+02 -0.13215634477E+02 -0.65790195932E+01  0.19360187772E+02  0.00000000000E+00 0.  1.
</event>
<event>
 7    1  0.1139627E-011  0.5930196E+02  0.7816164E-02  0.1266605E+00
        -11   -1    0    0    0    0  0.00000000000E+00  0.00000000000E+00  0.45593999997E+02  0.45594000000E+02  0.51100000000E-03 0. -1.
         11   -1    0    0    0    0 -0.00000000000E+00 -0.00000000000E+00 -0.45593999997E+02  0.45594000000E+02  0.51100000000E-03 0.  1.
    9900012    2    1    2    0    0 -0.13345165657E+02  0.12047382330E+02  0.26334139061E+02  0.59301956854E+02  0.50000023392E+02 0.  0.
        -12    1    1    2    0    0  0.13345165657E+02 -0.12047382330E+02 -0.26334139061E+02  0.31886043146E+02  0.00000000000E+00 0.  1.
         11    1    3    3    0    0 -0.15346593248E+02  0.26108474293E+02  0.52090157916E+01  0.30729533026E+02  0.51100000000E-03 0. -1.
        -11    1    3    3    0    0 -0.38303298538E+01 -0.12185609199E+02  0.16653501582E+02  0.20988082656E+02  0.51100000000E-03 0.  1.
         12    1    3    3    0    0  0.58317574453E+01 -0.18754827644E+01  0.44716216873E+01  0.75843411721E+01  0.00000000000E+00 0. -1.
</event>
<event>
 7    1  0.1139627E-011  0.5930192E+02  0.7816164E-02  0.1266605E+00
        -11   -1    0    0    0    0  0.00000000000E+00  0.00000000000E+00  0.45593999997E+02  0.45594000000E+02  0.51100000000E-03 0. -1.
         11   -1    0    0    0    0 -0.00000000000E+00 -0.00000000000E+00 -0.45593999997E+02  0.45594000000E+02  0.51100000000E-03 0.  1.
    9900012    2    1    2    0    0  0.23411892101E+02 -0.17042632064E+02  0.13347448636E+02  0.59301915503E+02  0.49999947979E+02 0.  0.
        -12    1    1    2    0    0 -0.23411892101E+02  0.17042632064E+02 -0.13347448636E+02  0.31886084497E+02  0.00000000000E+00 0.  1.
         11    1    3    3    0    0  0.28527404500E+02 -0.99979229553E+01  0.14110530209E+01  0.30261565422E+02  0.51100000000E-03 0. -1.
        -11    1    3    3    0    0  0.30779817155E+01  0.72752323515E+01  0.95125699547E+01  0.12364949034E+02  0.51100000000E-03 0.  1.
         12    1    3    3    0    0 -0.81934941148E+01 -0.14319941461E+02  0.24238256605E+01  0.16675401047E+02  0.00000000000E+00 0. -1.
</event>
<event>
 7    1  0.1139627E-011  0.5930194E+02  0.7816164E-02  0.1266605E+00
        -11   -1    0    0    0    0  0.00000000000E+00  0.00000000000E+00  0.45593999997E+02  0.45594000000E+02  0.51100000000E-03 0.  1.
         11   -1    0    0    0    0 -0.00000000000E+00 -0.00000000000E+00 -0.45593999997E+02  0.45594000000E+02  0.51100000000E-03 0. -1.
    9900012    2    1    2    0    0  0.30174268579E+01  0.31643255077E+02 -0.25140417884E+01  0.59301939365E+02  0.49999991496E+02 0.  0.
        -12    1    1    2    0    0 -0.30174268579E+01 -0.31643255077E+02  0.25140417884E+01  0.31886060635E+02  0.00000000000E+00 0.  1.
         11    1    3    3    0    0  0.54772781187E+01 -0.10872223690E+02  0.18906890520E+01  0.12319924062E+02  0.51100000000E-03 0. -1.
        -11    1    3    3    0    0 -0.97876588602E+01  0.12864556835E+02 -0.27265542475E+01  0.16392961503E+02  0.51100000000E-03 0.  1.
         12    1    3    3    0    0  0.73278075994E+01  0.29650921932E+02 -0.16781765929E+01  0.30589053799E+02  0.00000000000E+00 0. -1.
</event>
<event>
 7    1  0.1139627E-011  0.5930196E+02  0.7816164E-02  0.1266605E+00
        -11   -1    0    0    0    0  0.00000000000E+00  0.00000000000E+00  0.45593999997E+02  0.45594000000E+02  0.51100000000E-03 0.  1.
         11   -1    0    0    0    0 -0.00000000000E+00 -0.00000000000E+00 -0.45593999997E+02  0.45594000000E+02  0.51100000000E-03 0. -1.
    9900012    2    1    2    0    0 -0.13415282904E+01 -0.21360694821E+02 -0.23635583229E+02  0.59301956407E+02  0.50000022577E+02 0.  0.
        -12    1    1    2    0    0  0.13415282904E+01  0.21360694821E+02  0.23635583229E+02  0.31886043593E+02  0.00000000000E+00 0.  1.
         11    1    3    3    0    0  0.62355528117E+01 -0.12173406490E+02 -0.33391889114E+02  0.36084514730E+02  0.51100000000E-03 0. -1.
        -11    1    3    3    0    0  0.13033300462E+01  0.74651388222E+00  0.97782469094E+01  0.98929300547E+01  0.51100000000E-03 0.  1.
        -12    1    3    3    0    0 -0.88804111484E+01 -0.99338022135E+01 -0.21941025098E-01  0.13324511623E+02  0.00000000000E+00 0.  1.
</event>
<event>
 7    1  0.1139627E-011  0.5930194E+02  0.7816164E-02  0.1266605E+00
        -11   -1    0    0    0    0  0.00000000000E+00  0.00000000000E+00  0.45593999997E+02  0.45594000000E+02  0.51100000000E-03 0.  1.
         11   -1    0    0    0    0 -0.00000000000E+00 -0.00000000000E+00 -0.45593999997E+02  0.45594000000E+02  0.51100000000E-03 0. -1.
    9900012    2    1    2    0    0  0.18057356447E+02 -0.25549127582E+02  0.61558932437E+01  0.59301936215E+02  0.49999985752E+02 0.  0.
        -12    1    1    2    0    0 -0.18057356447E+02  0.25549127582E+02 -0.61558932437E+01  0.31886063785E+02  0.00000000000E+00 0.  1.
         11    1    3    3    0    0  0.15281269793E+02 -0.11115641379E+02  0.18720039329E+02  0.26599145897E+02  0.51100000000E-03 0.  1.
        -11    1    3    3    0    0 -0.16929433027E+01 -0.20253445040E+02 -0.14673811014E+02  0.25067684835E+02  0.51100000000E-03 0. -1.
         12    1    3    3    0    0  0.44690299574E+01  0.58199588373E+01  0.21096649293E+01  0.76351054834E+01  0.00000000000E+00 0. -1.
</event>
<event>
 7    1  0.1139627E-011  0.5930194E+02  0.7816164E-02  0.1266605E+00
        -11   -1    0    0    0    0  0.00000000000E+00  0.00000000000E+00  0.45593999997E+02  0.45594000000E+02  0.51100000000E-03 0. -1.
         11   -1    0    0    0    0 -0.00000000000E+00 -0.00000000000E+00 -0.45593999997E+02  0.45594000000E+02  0.51100000000E-03 0.  1.
    9900012    2    1    2    0    0 -0.19525652629E+02  0.88133037956E+01  0.23617694716E+02  0.59301938184E+02  0.49999989343E+02 0.  0.
        -12    1    1    2    0    0  0.19525652629E+02 -0.88133037956E+01 -0.23617694716E+02  0.31886061816E+02  0.00000000000E+00 0.  1.
         11    1    3    3    0    0 -0.20063419045E+02  0.47408580709E+01  0.14526008331E+02  0.25219465445E+02  0.51100000000E-03 0. -1.
        -11    1    3    3    0    0  0.13788945822E+02  0.10549842129E+02  0.84751578706E+01  0.19320002511E+02  0.51100000000E-03 0.  1.
         12    1    3    3    0    0 -0.13251179406E+02 -0.64773964047E+01  0.61652851466E+00  0.14762470229E+02  0.00000000000E+00 0. -1.
</event>
<event>
 7    1  0.1139627E-011  0.5930198E+02  0.7816164E-02  0.1266605E+00
        -11   -1    0    0    0    0  0.00000000000E+00  0.00000000000E+00  0.45593999997E+02  0.45594000000E+02  0.51100000000E-03 0.  1.
         11   -1    0    0    0    0 -0.00000000000E+00 -0.00000000000E+00 -0.45593999997E+02  0.45594000000E+02  0.51100000000E-03 0. -1.
    9900012    2    1    2    0    0  0.59356212855E+01 -0.29166263849E+01 -0.31192628850E+02  0.59301977920E+02  0.50000061811E+02 0.  0.
        -12    1    1    2    0    0 -0.59356212855E+01  0.29166263849E+01  0.31192628850E+02  0.31886022080E+02  0.00000000000E+00 0.  1.
         11    1    3    3    0    0  0.14731213822E+02  0.11640290851E+02 -0.12889256166E+02  0.22773624141E+02  0.51100000000E-03 0. -1.
        -11    1    3    3    0    0 -0.11446746104E+02 -0.17800976758E+02 -0.22295930079E+02  0.30741035576E+02  0.51100000000E-03 0.  1.
         12    1    3    3    0    0  0.26511535681E+01  0.32440595226E+01  0.39925573948E+01  0.57873182026E+01  0.00000000000E+00 0. -1.
</event>
<event>
 7    1  0.1139627E-011  0.5930195E+02  0.7816164E-02  0.1266605E+00
        -11   -1    0    0    0    0  0.00000000000E+00  0.00000000000E+00  0.45593999997E+02  0.45594000000E+02  0.51100000000E-03 0.  1.
         11   -1    0    0    0    0 -0.00000000000E+00 -0.00000000000E+00 -0.45593999997E+02  0.45594000000E+02  0.51100000000E-03 0. -1.
    9900012    2    1    2    0    0  0.23092367660E+02  0.33353265701E+01 -0.21733346180E+02  0.59301950015E+02  0.50000010919E+02 0.  0.
        -12    1    1    2    0    0 -0.23092367660E+02 -0.33353265701E+01  0.21733346180E+02  0.31886049985E+02  0.00000000000E+00 0.  1.
         11    1    3    3    0    0  0.22930669572E+02  0.27900604631E+01 -0.31822647742E+02  0.39322779072E+02  0.51100000000E-03 0. -1.
        -11    1    3    3    0    0  0.48969229119E+01  0.69915677505E+01  0.80309769335E+01  0.11720002747E+02  0.51100000000E-03 0.  1.
         12    1    3    3    0    0 -0.47352248233E+01 -0.64463016435E+01  0.20583246290E+01  0.82591681956E+01  0.00000000000E+00 0. -1.
</event>
<event>
 7    1  0.1139627E-011  0.5930212E+02  0.7816164E-02  0.1266604E+00
        -11   -1    0    0    0    0  0.00000000000E+00  0.00000000000E+00  0.45593999997E+02  0.45594000000E+02  0.51100000000E-03 0.  1.
         11   -1    0    0    0    0 -0.00000000000E+00 -0.00000000000E+00 -0.45593999997E+02  0.45594000000E+02  0.51100000000E-03 0. -1.
    9900012    2    1    2    0    0 -0.12862260513E+02 -0.11761391433E+02 -0.26700963398E+02  0.59302117226E+02  0.50000315870E+02 0.  0.
        -12    1    1    2    0    0  0.12862260513E+02  0.11761391433E+02  0.26700963398E+02  0.31885882774E+02  0.00000000000E+00 0.  1.
         11    1    3    3    0    0  0.36416922116E+01 -0.12768456066E+02 -0.23044886071E+02  0.26596281070E+02  0.51100000000E-03 0. -1.
        -11    1    3    3    0    0 -0.24169594985E+02  0.35229600031E+01 -0.24363723302E+01  0.24546211099E+02  0.51100000000E-03 0.  1.
        -12    1    3    3    0    0  0.76656422605E+01 -0.25158953694E+01 -0.12197049963E+01  0.81596250560E+01  0.00000000000E+00 0.  1.
</event>
<event>
 7    1  0.1139627E-011  0.5930195E+02  0.7816164E-02  0.1266605E+00
        -11   -1    0    0    0    0  0.00000000000E+00  0.00000000000E+00  0.45593999997E+02  0.45594000000E+02  0.51100000000E-03 0.  1.
         11   -1    0    0    0    0 -0.00000000000E+00 -0.00000000000E+00 -0.45593999997E+02  0.45594000000E+02  0.51100000000E-03 0. -1.
    9900012    2    1    2    0    0  0.70976208048E+01  0.18535223755E+02 -0.24955753085E+02  0.59301947363E+02  0.50000006082E+02 0.  0.
        -12    1    1    2    0    0 -0.70976208048E+01 -0.18535223755E+02  0.24955753085E+02  0.31886052637E+02  0.00000000000E+00 0.  1.
         11    1    3    3    0    0  0.79575020699E+01  0.30560440635E+02 -0.13841435300E+02  0.34479670857E+02  0.51100000000E-03 0. -1.
        -11    1    3    3    0    0 -0.58095546844E+01 -0.39975263400E+01 -0.13378489435E+02  0.15123330397E+02  0.51100000000E-03 0.  1.
         12    1    3    3    0    0  0.49496734192E+01 -0.80276905399E+01  0.22641716495E+01  0.96989461087E+01  0.00000000000E+00 0. -1.
</event>
<event>
 7    1  0.1139627E-011  0.5930194E+02  0.7816164E-02  0.1266605E+00
        -11   -1    0    0    0    0  0.00000000000E+00  0.00000000000E+00  0.45593999997E+02  0.45594000000E+02  0.51100000000E-03 0.  1.
         11   -1    0    0    0    0 -0.00000000000E+00 -0.00000000000E+00 -0.45593999997E+02  0.45594000000E+02  0.51100000000E-03 0. -1.
    9900012    2    1    2    0    0  0.64014457656E+01  0.30169882314E+02 -0.80944925864E+01  0.59301935380E+02  0.49999984229E+02 0.  0.
        -12    1    1    2    0    0 -0.64014457656E+01 -0.30169882314E+02  0.80944925864E+01  0.31886064620E+02  0.00000000000E+00 0.  1.
         11    1    3    3    0    0  0.63111729040E+01 -0.11565315953E+01 -0.21942232305E+02  0.22861102938E+02  0.51100000000E-03 0. -1.
        -11    1    3    3    0    0 -0.30262587493E+00  0.50994761198E+01  0.81193676047E+01  0.95927248307E+01  0.51100000000E-03 0.  1.
         12    1    3    3    0    0  0.39289873654E+00  0.26226937789E+02  0.57283721143E+01  0.26848107611E+02  0.00000000000E+00 0. -1.
</event>
<event>
 7    1  0.1139627E-011  0.5930197E+02  0.7816164E-02  0.1266605E+00
        -11   -1    0    0    0    0  0.00000000000E+00  0.00000000000E+00  0.45593999997E+02  0.45594000000E+02  0.51100000000E-03 0. -1.
         11   -1    0    0    0    0 -0.00000000000E+00 -0.00000000000E+00 -0.45593999997E+02  0.45594000000E+02  0.51100000000E-03 0.  1.
    9900012    2    1    2    0    0 -0.28557115629E+01 -0.20494420499E+02  0.24259901175E+02  0.59301965986E+02  0.50000040046E+02 0.  0.
        -12    1    1    2    0    0  0.28557115629E+01  0.20494420499E+02 -0.24259901175E+02  0.31886034014E+02  0.00000000000E+00 0.  1.
         11    1    3    3    0    0 -0.77296128492E+01  0.15323747907E+01  0.29967905078E+02  0.30986616826E+02  0.51100000000E-03 0. -1.
        -11    1    3    3    0    0  0.10573561461E+02 -0.10660482685E+02 -0.33265202603E+01  0.15378941132E+02  0.51100000000E-03 0.  1.
         12    1    3    3    0    0 -0.56996601743E+01 -0.11366312604E+02 -0.23814836421E+01  0.12936408028E+02  0.00000000000E+00 0. -1.
</event>
<event>
 7    1  0.1139627E-011  0.5930195E+02  0.7816164E-02  0.1266605E+00
        -11   -1    0    0    0    0  0.00000000000E+00  0.00000000000E+00  0.45593999997E+02  0.45594000000E+02  0.51100000000E-03 0. -1.
         11   -1    0    0    0    0 -0.00000000000E+00 -0.00000000000E+00 -0.45593999997E+02  0.45594000000E+02  0.51100000000E-03 0.  1.
    9900012    2    1    2    0    0  0.20639585938E+01 -0.76134984434E+01  0.30894896718E+02  0.59301954042E+02  0.50000018263E+02 0.  0.
        -12    1    1    2    0    0 -0.20639585938E+01  0.76134984434E+01 -0.30894896718E+02  0.31886045958E+02  0.00000000000E+00 0.  1.
         11    1    3    3    0    0 -0.20730960235E+02 -0.32513396681E+00  0.15916980286E+02  0.26138643539E+02  0.51100000000E-03 0. -1.
        -11    1    3    3    0    0  0.13878272588E+02 -0.11493209969E+02  0.40945379924E+01  0.18478786948E+02  0.51100000000E-03 0.  1.
        -12    1    3    3    0    0  0.89166462406E+01  0.42048454923E+01  0.10883378440E+02  0.14684523556E+02  0.00000000000E+00 0.  1.
</event>
<event>
 7    1  0.1139627E-011  0.5930193E+02  0.7816164E-02  0.1266605E+00
        -11   -1    0    0    0    0  0.00000000000E+00  0.00000000000E+00  0.45593999997E+02  0.45594000000E+02  0.51100000000E-03 0. -1.
         11   -1    0    0    0    0 -0.00000000000E+00 -0.00000000000E+00 -0.45593999997E+02  0.45594000000E+02  0.51100000000E-03 0.  1.
    9900012    2    1    2    0    0 -0.14108563945E+02  0.26753471868E+02  0.10095617178E+02  0.59301932200E+02  0.49999978428E+02 0.  0.
        -12    1    1    2    0    0  0.14108563945E+02 -0.26753471868E+02 -0.10095617178E+02  0.31886067800E+02  0.00000000000E+00 0.  1.
         11    1    3    3    0    0 -0.22569197607E+02  0.23646722280E+02  0.17232815096E+02  0.36952754587E+02  0.51100000000E-03 0. -1.
        -11    1    3    3    0    0  0.11836770950E+02 -0.98267992564E+00  0.17443741347E+01  0.12004900989E+02  0.51100000000E-03 0.  1.
         12    1    3    3    0    0 -0.33761372882E+01  0.40894295139E+01 -0.88815720527E+01  0.10344276624E+02  0.00000000000E+00 0. -1.
</event>
<event>
 7    1  0.1139627E-011  0.5930196E+02  0.7816164E-02  0.1266605E+00
        -11   -1    0    0    0    0  0.00000000000E+00  0.00000000000E+00  0.45593999997E+02  0.45594000000E+02  0.51100000000E-03 0. -1.
         11   -1    0    0    0    0 -0.00000000000E+00 -0.00000000000E+00 -0.45593999997E+02  0.45594000000E+02  0.51100000000E-03 0.  1.
    9900012    2    1    2    0    0 -0.19295745074E+02  0.37317108464E+01 -0.25109123400E+02  0.59301960395E+02  0.50000029850E+02 0.  0.
        -12    1    1    2    0    0  0.19295745074E+02 -0.37317108464E+01  0.25109123400E+02  0.31886039605E+02  0.00000000000E+00 0.  1.
         11    1    3    3    0    0  0.65366599139E+01  0.33370049377E+00  0.53120505051E+01  0.84295408938E+01  0.51100000000E-03 0. -1.
        -11    1    3    3    0    0 -0.32192835860E+02  0.38689758066E+01 -0.30469709439E+02  0.44494391198E+02  0.51100000000E-03 0.  1.
        -12    1    3    3    0    0  0.63604308723E+01 -0.47096545398E+00  0.48535534402E-01  0.63780283033E+01  0.00000000000E+00 0.  1.
</event>
<event>
 7    1  0.1139627E-011  0.5930193E+02  0.7816164E-02  0.1266605E+00
        -11   -1    0    0    0    0  0.00000000000E+00  0.00000000000E+00  0.45593999997E+02  0.45594000000E+02  0.51100000000E-03 0. -1.
         11   -1    0    0    0    0 -0.00000000000E+00 -0.00000000000E+00 -0.45593999997E+02  0.45594000000E+02  0.51100000000E-03 0.  1.
    9900012    2    1    2    0    0  0.19116008628E+02  0.72170551267E+01  0.24478848340E+02  0.59301926447E+02  0.49999967937E+02 0.  0.
        -12    1    1    2    0    0 -0.19116008628E+02 -0.72170551267E+01 -0.24478848340E+02  0.31886073553E+02  0.00000000000E+00 0.  1.
         11    1    3    3    0    0  0.31610491829E+02  0.25118402866E+01  0.18551355775E+02  0.36738063866E+02  0.51100000000E-03 0. -1.
        -11    1    3    3    0    0 -0.13929700656E+02  0.85227185132E+01  0.12793957337E+01  0.16380175363E+02  0.51100000000E-03 0.  1.
        -12    1    3    3    0    0  0.14352174556E+01 -0.38175036731E+01  0.46480968318E+01  0.61836872170E+01  0.00000000000E+00 0.  1.
</event>
<event>
 7    1  0.1139627E-011  0.5930195E+02  0.7816164E-02  0.1266605E+00
        -11   -1    0    0    0    0  0.00000000000E+00  0.00000000000E+00  0.45593999997E+02  0.45594000000E+02  0.51100000000E-03 0.  1.
         11   -1    0    0    0    0 -0.00000000000E+00 -0.00000000000E+00 -0.45593999997E+02  0.45594000000E+02  0.51100000000E-03 0. -1.
    9900012    2    1    2    0    0 -0.10933964062E+02  0.59536308964E+01 -0.29355114258E+02  0.59301952518E+02  0.50000015483E+02 0.  0.
        -12    1    1    2    0    0  0.10933964062E+02 -0.59536308964E+01  0.29355114258E+02  0.31886047482E+02  0.00000000000E+00 0.  1.
         11    1    3    3    0    0  0.13044953282E+02  0.15709450015E+02 -0.94168830070E+01  0.22486336112E+02  0.51100000000E-03 0. -1.
        -11    1    3    3    0    0 -0.12276712269E+02 -0.90785606945E+01 -0.20172134140E+01  0.15401528451E+02  0.51100000000E-03 0.  1.
         12    1    3    3    0    0 -0.11702205075E+02 -0.67725842392E+00 -0.17921017837E+02  0.21414087954E+02  0.00000000000E+00 0. -1.
</event>
<event>
 7    1  0.1139627E-011  0.5930196E+02  0.7816164E-02  0.1266605E+00
        -11   -1    0    0    0    0  0.00000000000E+00  0.00000000000E+00  0.45593999997E+02  0.45594000000E+02  0.51100000000E-03 0.  1.
         11   -1    0    0    0    0 -0.00000000000E+00 -0.00000000000E+00 -0.45593999997E+02  0.45594000000E+02  0.51100000000E-03 0. -1.
    9900012    2    1    2    0    0 -0.14794293508E+02  0.18663214791E+02 -0.21202194875E+02  0.59301956435E+02  0.50000022627E+02 0.  0.
        -12    1    1    2    0    0  0.14794293508E+02 -0.18663214791E+02  0.21202194875E+02  0.31886043565E+02  0.00000000000E+00 0.  1.
         11    1    3    3    0    0  0.10506060858E+02  0.82428489253E+01 -0.84313613191E+01  0.15792711202E+02  0.51100000000E-03 0. -1.
        -11    1    3    3    0    0 -0.12666142279E+02  0.21223157528E+02 -0.99764990421E+01  0.26653031893E+02  0.51100000000E-03 0.  1.
        -12    1    3    3    0    0 -0.12634212087E+02 -0.10802791663E+02 -0.27943345141E+01  0.16856213340E+02  0.00000000000E+00 0.  1.
</event>
<event>
 7    1  0.1139627E-011  0.5930192E+02  0.7816164E-02  0.1266605E+00
        -11   -1    0    0    0    0  0.00000000000E+00  0.00000000000E+00  0.45593999997E+02  0.45594000000E+02  0.51100000000E-03 0. -1.
         11   -1    0    0    0    0 -0.00000000000E+00 -0.00000000000E+00 -0.45593999997E+02  0.45594000000E+02  0.51100000000E-03 0.  1.
    9900012    2    1    2    0    0  0.11060102788E+02 -0.22059371164E+02  0.20193577283E+02  0.59301916934E+02  0.49999950588E+02 0.  0.
        -12    1    1    2    0    0 -0.11060102788E+02  0.22059371164E+02 -0.20193577283E+02  0.31886083066E+02  0.00000000000E+00 0.  1.
         11    1    3    3    0    0 -0.15580638572E+02 -0.26308800646E+01  0.20934385157E+01  0.15939269535E+02  0.51100000000E-03 0. -1.
        -11    1    3    3    0    0  0.10766886341E+02 -0.18844185667E+02  0.38890403908E+01  0.22048895898E+02  0.51100000000E-03 0.  1.
         12    1    3    3    0    0  0.15873855019E+02 -0.58430543217E+00  0.14211098376E+02  0.21313751501E+02  0.00000000000E+00 0. -1.
</event>
<event>
 7    1  0.1139627E-011  0.5930195E+02  0.7816164E-02  0.1266605E+00
        -11   -1    0    0    0    0  0.00000000000E+00  0.00000000000E+00  0.45593999997E+02  0.45594000000E+02  0.51100000000E-03 0.  1.
         11   -1    0    0    0    0 -0.00000000000E+00 -0.00000000000E+00 -0.45593999997E+02  0.45594000000E+02  0.51100000000E-03 0. -1.
    9900012    2    1    2    0    0  0.12583285707E+02 -0.24192982137E+01 -0.29198079574E+02  0.59301953932E+02  0.50000018063E+02 0.  0.
        -12    1    1    2    0    0 -0.12583285707E+02  0.24192982137E+01  0.29198079574E+02  0.31886046068E+02  0.00000000000E+00 0.  1.
         11    1    3    3    0    0  0.18955900143E+02  0.14564883995E+02 -0.16360987211E+02  0.28967980578E+02  0.51100000000E-03 0. -1.
        -11    1    3    3    0    0 -0.77374427270E+01 -0.99061143217E+01 -0.17648545010E+02  0.21667262452E+02  0.51100000000E-03 0.  1.
         12    1    3    3    0    0  0.13648282912E+01 -0.70780678873E+01  0.48114526467E+01  0.86667109017E+01  0.00000000000E+00 0. -1.
</event>
<event>
 7    1  0.1139627E-011  0.5930234E+02  0.7816164E-02  0.1266603E+00
        -11   -1    0    0    0    0  0.00000000000E+00  0.00000000000E+00  0.45593999997E+02  0.45594000000E+02  0.51100000000E-03 0.  1.
         11   -1    0    0    0    0 -0.00000000000E+00 -0.00000000000E+00 -0.45593999997E+02  0.45594000000E+02  0.51100000000E-03 0. -1.
    9900012    2    1    2    0    0  0.20135008630E+02  0.11589779476E+02 -0.21839266378E+02  0.59302343087E+02  0.50000727783E+02 0.  0.
        -12    1    1    2    0    0 -0.20135008630E+02 -0.11589779476E+02  0.21839266378E+02  0.31885656913E+02  0.00000000000E+00 0.  1.
         11    1    3    3    0    0  0.33004912982E+02  0.17832649567E+02 -0.20677188122E+02  0.42835426698E+02  0.51100000000E-03 0. -1.
        -11    1    3    3    0    0 -0.15738530335E+01 -0.46968418253E+01 -0.10571901413E+01  0.50650752964E+01  0.51100000000E-03 0.  1.
         12    1    3    3    0    0 -0.11296051318E+02 -0.15460282657E+01 -0.10488811482E+00  0.11401841093E+02  0.00000000000E+00 0. -1.
</event>
<event>
 7    1  0.1139627E-011  0.5930192E+02  0.7816164E-02  0.1266605E+00
        -11   -1    0    0    0    0  0.00000000000E+00  0.00000000000E+00  0.45593999997E+02  0.45594000000E+02  0.51100000000E-03 0. -1.
         11   -1    0    0    0    0 -0.00000000000E+00 -0.00000000000E+00 -0.45593999997E+02  0.45594000000E+02  0.51100000000E-03 0.  1.
    9900012    2    1    2    0    0  0.41352594073E+01 -0.29129899211E+00  0.31615453235E+02  0.59301919828E+02  0.49999955866E+02 0.  0.
        -12    1    1    2    0    0 -0.41352594073E+01  0.29129899211E+00 -0.31615453235E+02  0.31886080172E+02  0.00000000000E+00 0.  1.
         11    1    3    3    0    0  0.12531215176E+02  0.87144769904E+01  0.11277594964E+02  0.18977818933E+02  0.51100000000E-03 0. -1.
        -11    1    3    3    0    0 -0.20453139209E+02 -0.26227686099E+01  0.86569655586E+01  0.22364097828E+02  0.51100000000E-03 0.  1.
        -12    1    3    3    0    0  0.12057183441E+02 -0.63830073726E+01  0.11680892712E+02  0.17960003068E+02  0.00000000000E+00 0.  1.
</event>
<event>
 7    1  0.1139627E-011  0.5930197E+02  0.7816164E-02  0.1266605E+00
        -11   -1    0    0    0    0  0.00000000000E+00  0.00000000000E+00  0.45593999997E+02  0.45594000000E+02  0.51100000000E-03 0.  1.
         11   -1    0    0    0    0 -0.00000000000E+00 -0.00000000000E+00 -0.45593999997E+02  0.45594000000E+02  0.51100000000E-03 0. -1.
    9900012    2    1    2    0    0  0.16099324662E+01 -0.29085913888E+02 -0.12966760399E+02  0.59301966310E+02  0.50000040638E+02 0.  0.
        -12    1    1    2    0    0 -0.16099324662E+01  0.29085913888E+02  0.12966760399E+02  0.31886033690E+02  0.00000000000E+00 0.  1.
         11    1    3    3    0    0 -0.15781080440E+02 -0.30394668003E+02 -0.19082511585E+02  0.39204854183E+02  0.51100000000E-03 0. -1.
        -11    1    3    3    0    0  0.17011703971E+02  0.29301085678E+00  0.72799072887E+01  0.18506241589E+02  0.51100000000E-03 0.  1.
         12    1    3    3    0    0  0.37930893447E+00  0.10157432588E+01 -0.11641561028E+01  0.15908705376E+01  0.00000000000E+00 0. -1.
</event>
<event>
 7    1  0.1139627E-011  0.5930231E+02  0.7816164E-02  0.1266604E+00
        -11   -1    0    0    0    0  0.00000000000E+00  0.00000000000E+00  0.45593999997E+02  0.45594000000E+02  0.51100000000E-03 0.  1.
         11   -1    0    0    0    0 -0.00000000000E+00 -0.00000000000E+00 -0.45593999997E+02  0.45594000000E+02  0.51100000000E-03 0. -1.
    9900012    2    1    2    0    0  0.25185109248E+01  0.18980101842E+02 -0.25497262190E+02  0.59302305051E+02  0.50000658415E+02 0.  0.
        -12    1    1    2    0    0 -0.25185109248E+01 -0.18980101842E+02  0.25497262190E+02  0.31885694949E+02  0.00000000000E+00 0.  1.
         11    1    3    3    0    0  0.60681194927E+01  0.31913364310E+02 -0.53596051066E+01  0.32924311123E+02  0.51100000000E-03 0. -1.
        -11    1    3    3    0    0 -0.36825393057E+01 -0.14014563226E+02 -0.20607113694E+02  0.25191709216E+02  0.51100000000E-03 0.  1.
        -12    1    3    3    0    0  0.13293073779E+00  0.10813007578E+01  0.46945661035E+00  0.11862847124E+01  0.00000000000E+00 0.  1.
</event>
<event>
 7    1  0.1139627E-011  0.5930195E+02  0.7816164E-02  0.1266605E+00
        -11   -1    0    0    0    0  0.00000000000E+00  0.00000000000E+00  0.45593999997E+02  0.45594000000E+02  0.51100000000E-03 0.  1.
         11   -1    0    0    0    0 -0.00000000000E+00 -0.00000000000E+00 -0.45593999997E+02  0.45594000000E+02  0.51100000000E-03 0. -1.
    9900012    2    1    2    0    0  0.23151668530E+02  0.13041168267E+02 -0.17625222745E+02  0.59301948155E+02  0.50000007526E+02 0.  0.
        -12    1    1    2    0    0 -0.23151668530E+02 -0.13041168267E+02  0.17625222745E+02  0.31886051845E+02  0.00000000000E+00 0.  1.
         11    1    3    3    0    0  0.21867477621E+02 -0.30791224522E+01 -0.18414768892E+02  0.28753630835E+02  0.51100000000E-03 0. -1.
        -11    1    3    3    0    0  0.91890230956E+01  0.10240455936E+02  0.10041367575E+02  0.17033324581E+02  0.51100000000E-03 0.  1.
        -12    1    3    3    0    0 -0.79048321870E+01  0.58798347830E+01 -0.92518214288E+01  0.13514992739E+02  0.00000000000E+00 0.  1.
</event>
<event>
 7    1  0.1139627E-011  0.5930193E+02  0.7816164E-02  0.1266605E+00
        -11   -1    0    0    0    0  0.00000000000E+00  0.00000000000E+00  0.45593999997E+02  0.45594000000E+02  0.51100000000E-03 0.  1.
         11   -1    0    0    0    0 -0.00000000000E+00 -0.00000000000E+00 -0.45593999997E+02  0.45594000000E+02  0.51100000000E-03 0. -1.
    9900012    2    1    2    0    0  0.24610145347E+02 -0.62967244117E+01 -0.19272091913E+02  0.59301929075E+02  0.49999972730E+02 0.  0.
        -12    1    1    2    0    0 -0.24610145347E+02  0.62967244117E+01  0.19272091913E+02  0.31886070925E+02  0.00000000000E+00 0.  1.
         11    1    3    3    0    0  0.17296258462E+02 -0.13216600205E+02 -0.34367982658E+02  0.40681658152E+02  0.51100000000E-03 0. -1.
        -11    1    3    3    0    0  0.23328056626E+01  0.57905469065E+00  0.60077179948E+01  0.64707002991E+01  0.51100000000E-03 0.  1.
         12    1    3    3    0    0  0.49810812231E+01  0.63408211031E+01  0.90881727502E+01  0.12149570624E+02  0.00000000000E+00 0. -1.
</event>
<event>
 7    1  0.1139627E-011  0.5930195E+02  0.7816164E-02  0.1266605E+00
        -11   -1    0    0    0    0  0.00000000000E+00  0.00000000000E+00  0.45593999997E+02  0.45594000000E+02  0.51100000000E-03 0.  1.
         11   -1    0    0    0    0 -0.00000000000E+00 -0.00000000000E+00 -0.45593999997E+02  0.45594000000E+02  0.51100000000E-03 0. -1.
    9900012    2    1    2    0    0 -0.64655069945E+01  0.40434462421E+01 -0.30960749621E+02  0.59301948891E+02  0.50000008870E+02 0.  0.
        -12    1    1    2    0    0  0.64655069945E+01 -0.40434462421E+01  0.30960749621E+02  0.31886051109E+02  0.00000000000E+00 0.  1.
         11    1    3    3    0    0 -0.13270315955E+02 -0.18992806841E+02 -0.15174663626E+02  0.27696541547E+02  0.51100000000E-03 0. -1.
        -11    1    3    3    0    0  0.70857650784E+01  0.11260700849E+02 -0.19697437821E+01  0.13449585168E+02  0.51100000000E-03 0.  1.
        -12    1    3    3    0    0 -0.28095611769E+00  0.11775552234E+02 -0.13816342213E+02  0.18155822176E+02  0.00000000000E+00 0.  1.
</event>
<event>
 7    1  0.1139627E-011  0.5930194E+02  0.7816164E-02  0.1266605E+00
        -11   -1    0    0    0    0  0.00000000000E+00  0.00000000000E+00  0.45593999997E+02  0.45594000000E+02  0.51100000000E-03 0. -1.
         11   -1    0    0    0    0 -0.00000000000E+00 -0.00000000000E+00 -0.45593999997E+02  0.45594000000E+02  0.51100000000E-03 0.  1.
    9900012    2    1    2    0    0  0.29639136005E+02 -0.11333423297E+02 -0.31298867067E+01  0.59301936312E+02  0.49999985928E+02 0.  0.
        -12    1    1    2    0    0 -0.29639136005E+02  0.11333423297E+02  0.31298867067E+01  0.31886063688E+02  0.00000000000E+00 0.  1.
         11    1    3    3    0    0  0.23882462477E+02 -0.12200467012E+02  0.12134744307E+02  0.29435954698E+02  0.51100000000E-03 0. -1.
        -11    1    3    3    0    0  0.11098432594E+02  0.56788927528E+01 -0.18233100016E+02  0.22087801280E+02  0.51100000000E-03 0.  1.
         12    1    3    3    0    0 -0.53417590668E+01 -0.48118490373E+01  0.29684690022E+01  0.77781803336E+01  0.00000000000E+00 0. -1.
</event>
<event>
 7    1  0.1139627E-011  0.5930194E+02  0.7816164E-02  0.1266605E+00
        -11   -1    0    0    0    0  0.00000000000E+00  0.00000000000E+00  0.45593999997E+02  0.45594000000E+02  0.51100000000E-03 0. -1.
         11   -1    0    0    0    0 -0.00000000000E+00 -0.00000000000E+00 -0.45593999997E+02  0.45594000000E+02  0.51100000000E-03 0.  1.
    9900012    2    1    2    0    0 -0.49146085450E+01  0.45262383618E+01  0.31178208944E+02  0.59301938409E+02  0.49999989752E+02 0.  0.
        -12    1    1    2    0    0  0.49146085450E+01 -0.45262383618E+01 -0.31178208944E+02  0.31886061591E+02  0.00000000000E+00 0.  1.
         11    1    3    3    0    0  0.19504469621E+01  0.22067303623E+02  0.26324873374E+02  0.34405945576E+02  0.51100000000E-03 0. -1.
        -11    1    3    3    0    0 -0.86961938391E+01 -0.71618578218E+01 -0.31091008743E+01  0.11686851726E+02  0.51100000000E-03 0.  1.
         12    1    3    3    0    0  0.18311383319E+01 -0.10379207440E+02  0.79624364437E+01  0.13209141107E+02  0.00000000000E+00 0. -1.
</event>
<event>
 7    1  0.1139627E-011  0.5930192E+02  0.7816164E-02  0.1266605E+00
        -11   -1    0    0    0    0  0.00000000000E+00  0.00000000000E+00  0.45593999997E+02  0.45594000000E+02  0.51100000000E-03 0.  1.
         11   -1    0    0    0    0 -0.00000000000E+00 -0.00000000000E+00 -0.45593999997E+02  0.45594000000E+02  0.51100000000E-03 0. -1.
    9900012    2    1    2    0    0  0.83774485633E+01  0.21173989409E+02 -0.22320452422E+02  0.59301920463E+02  0.49999957023E+02 0.  0.
        -12    1    1    2    0    0 -0.83774485633E+01 -0.21173989409E+02  0.22320452422E+02  0.31886079537E+02  0.00000000000E+00 0.  1.
         11    1    3    3    0    0  0.72377407031E+01  0.75701151198E+01 -0.18987669568E+02  0.21684628871E+02  0.51100000000E-03 0. -1.
        -11    1    3    3    0    0 -0.59148438610E+01  0.24030152603E+02 -0.70573779769E+00  0.24757457020E+02  0.51100000000E-03 0.  1.
        -12    1    3    3    0    0  0.70545517212E+01 -0.10426278314E+02 -0.26270450567E+01  0.12859834571E+02  0.00000000000E+00 0.  1.
</event>
<event>
 7    1  0.1139627E-011  0.5930193E+02  0.7816164E-02  0.1266605E+00
        -11   -1    0    0    0    0  0.00000000000E+00  0.00000000000E+00  0.45593999997E+02  0.45594000000E+02  0.51100000000E-03 0.  1.
         11   -1    0    0    0    0 -0.00000000000E+00 -0.00000000000E+00 -0.45593999997E+02  0.45594000000E+02  0.51100000000E-03 0. -1.
    9900012    2    1    2    0    0 -0.36650882971E+01  0.10380389124E+02 -0.29925507839E+02  0.59301931412E+02  0.49999976992E+02 0.  0.
        -12    1    1    2    0    0  0.36650882971E+01 -0.10380389124E+02  0.29925507839E+02  0.31886068588E+02  0.00000000000E+00 0.  1.
         11    1    3    3    0    0 -0.14488480207E+01  0.43637949648E+00 -0.18172205185E+02  0.18235093342E+02  0.51100000000E-03 0. -1.
        -11    1    3    3    0    0 -0.15947658382E+02  0.79492927996E+01  0.57564412398E+01  0.18725802516E+02  0.51100000000E-03 0.  1.
        -12    1    3    3    0    0  0.13731418105E+02  0.19947168284E+01 -0.17509743894E+02  0.22341035554E+02  0.00000000000E+00 0.  1.
</event>
<event>
 7    1  0.1139627E-011  0.5930190E+02  0.7816164E-02  0.1266605E+00
        -11   -1    0    0    0    0  0.00000000000E+00  0.00000000000E+00  0.45593999997E+02  0.45594000000E+02  0.51100000000E-03 0.  1.
         11   -1    0    0    0    0 -0.00000000000E+00 -0.00000000000E+00 -0.45593999997E+02  0.45594000000E+02  0.51100000000E-03 0. -1.
    9900012    2    1    2    0    0 -0.17578273372E+02 -0.56668185688E+01 -0.25992598144E+02  0.59301895099E+02  0.49999910767E+02 0.  0.
        -12    1    1    2    0    0  0.17578273372E+02  0.56668185688E+01  0.25992598144E+02  0.31886104901E+02  0.00000000000E+00 0.  1.
         11    1    3    3    0    0 -0.13390292578E+02  0.52375145329E+01 -0.33554284795E+02  0.36505088990E+02  0.51100000000E-03 0. -1.
        -11    1    3    3    0    0 -0.17295998063E+01 -0.15870540905E+02  0.55622611084E+01  0.16905748519E+02  0.51100000000E-03 0.  1.
         12    1    3    3    0    0 -0.24583809880E+01  0.49662078031E+01  0.19994255425E+01  0.58910575898E+01  0.00000000000E+00 0. -1.
</event>
<event>
 7    1  0.1139627E-011  0.5930215E+02  0.7816164E-02  0.1266604E+00
        -11   -1    0    0    0    0  0.00000000000E+00  0.00000000000E+00  0.45593999997E+02  0.45594000000E+02  0.51100000000E-03 0.  1.
         11   -1    0    0    0    0 -0.00000000000E+00 -0.00000000000E+00 -0.45593999997E+02  0.45594000000E+02  0.51100000000E-03 0. -1.
    9900012    2    1    2    0    0 -0.20290518451E+02  0.79872244607E+01 -0.23263841490E+02  0.59302153383E+02  0.50000381812E+02 0.  0.
        -12    1    1    2    0    0  0.20290518451E+02 -0.79872244607E+01  0.23263841490E+02  0.31885846617E+02  0.00000000000E+00 0.  1.
         11    1    3    3    0    0 -0.14406042629E+02 -0.16373110130E+02 -0.74441818823E+01  0.23044058751E+02  0.51100000000E-03 0. -1.
        -11    1    3    3    0    0  0.54229882098E+01  0.19593493520E+02 -0.91932202749E+01  0.22312083917E+02  0.51100000000E-03 0.  1.
         12    1    3    3    0    0 -0.11307464032E+02  0.47668410706E+01 -0.66264393331E+01  0.13946010715E+02  0.00000000000E+00 0. -1.
</event>
<event>
 7    1  0.1139627E-011  0.5930195E+02  0.7816164E-02  0.1266605E+00
        -11   -1    0    0    0    0  0.00000000000E+00  0.00000000000E+00  0.45593999997E+02  0.45594000000E+02  0.51100000000E-03 0.  1.
         11   -1    0    0    0    0 -0.00000000000E+00 -0.00000000000E+00 -0.45593999997E+02  0.45594000000E+02  0.51100000000E-03 0. -1.
    9900012    2    1    2    0    0 -0.24811796496E+01  0.49648592643E+01 -0.31399268349E+02  0.59301950812E+02  0.50000012372E+02 0.  0.
        -12    1    1    2    0    0  0.24811796496E+01 -0.49648592643E+01  0.31399268349E+02  0.31886049188E+02  0.00000000000E+00 0.  1.
         11    1    3    3    0    0  0.16012596546E+02  0.18173182845E+02 -0.73416743561E+01  0.25309444985E+02  0.51100000000E-03 0. -1.
        -11    1    3    3    0    0 -0.14310417991E+02 -0.13677112807E+02 -0.20210206264E+02  0.28289643252E+02  0.51100000000E-03 0.  1.
        -12    1    3    3    0    0 -0.41833582041E+01  0.46878922654E+00 -0.38473877291E+01  0.57028625743E+01  0.00000000000E+00 0.  1.
</event>
<event>
 7    1  0.1139627E-011  0.5930195E+02  0.7816164E-02  0.1266605E+00
        -11   -1    0    0    0    0  0.00000000000E+00  0.00000000000E+00  0.45593999997E+02  0.45594000000E+02  0.51100000000E-03 0.  1.
         11   -1    0    0    0    0 -0.00000000000E+00 -0.00000000000E+00 -0.45593999997E+02  0.45594000000E+02  0.51100000000E-03 0. -1.
    9900012    2    1    2    0    0  0.16251471702E+02  0.15058069166E+02 -0.22931733555E+02  0.59301950020E+02  0.50000010929E+02 0.  0.
        -12    1    1    2    0    0 -0.16251471702E+02 -0.15058069166E+02  0.22931733555E+02  0.31886049980E+02  0.00000000000E+00 0.  1.
         11    1    3    3    0    0  0.37756099820E+01 -0.16113855608E+02 -0.86350435974E+00  0.16572785322E+02  0.51100000000E-03 0. -1.
        -11    1    3    3    0    0  0.14244247083E+02  0.16444660135E+02 -0.13057278612E+02  0.25373567879E+02  0.51100000000E-03 0.  1.
        -12    1    3    3    0    0 -0.17683853627E+01  0.14727264639E+02 -0.90109505827E+01  0.17355596819E+02  0.00000000000E+00 0.  1.
</event>
<event>
 7    1  0.1139627E-011  0.5930195E+02  0.7816164E-02  0.1266605E+00
        -11   -1    0    0    0    0  0.00000000000E+00  0.00000000000E+00  0.45593999997E+02  0.45594000000E+02  0.51100000000E-03 0.  1.
         11   -1    0    0    0    0 -0.00000000000E+00 -0.00000000000E+00 -0.45593999997E+02  0.45594000000E+02  0.51100000000E-03 0. -1.
    9900012    2    1    2    0    0  0.75028343994E+01 -0.11398894212E+02 -0.28818276761E+02  0.59301946799E+02  0.50000005053E+02 0.  0.
        -12    1    1    2    0    0 -0.75028343994E+01  0.11398894212E+02  0.28818276761E+02  0.31886053201E+02  0.00000000000E+00 0.  1.
         11    1    3    3    0    0 -0.75021276047E+00  0.38458703595E+01  0.12210934601E+02  0.12824213898E+02  0.51100000000E-03 0. -1.
        -11    1    3    3    0    0 -0.67077774672E+00 -0.11687900006E+02 -0.17414951678E+02  0.20984220061E+02  0.51100000000E-03 0.  1.
         12    1    3    3    0    0  0.89238249066E+01 -0.35568645655E+01 -0.23614259684E+02  0.25493512840E+02  0.00000000000E+00 0. -1.
</event>
<event>
 7    1  0.1139627E-011  0.5930189E+02  0.7816164E-02  0.1266605E+00
        -11   -1    0    0    0    0  0.00000000000E+00  0.00000000000E+00  0.45593999997E+02  0.45594000000E+02  0.51100000000E-03 0. -1.
         11   -1    0    0    0    0 -0.00000000000E+00 -0.00000000000E+00 -0.45593999997E+02  0.45594000000E+02  0.51100000000E-03 0.  1.
    9900012    2    1    2    0    0 -0.89091176985E+01  0.29360206264E+02  0.86792823314E+01  0.59301889672E+02  0.49999900869E+02 0.  0.
        -12    1    1    2    0    0  0.89091176985E+01 -0.29360206264E+02 -0.86792823314E+01  0.31886110328E+02  0.00000000000E+00 0.  1.
         11    1    3    3    0    0 -0.17077390055E+02  0.22772282794E+02  0.10279397646E+02  0.30263511544E+02  0.51100000000E-03 0. -1.
        -11    1    3    3    0    0  0.68064456888E+01 -0.10134532675E+02 -0.10189721198E+01  0.12250500394E+02  0.51100000000E-03 0.  1.
        -12    1    3    3    0    0  0.13618266678E+01  0.16722456146E+02 -0.58114319504E+00  0.16787877735E+02  0.00000000000E+00 0.  1.
</event>
<event>
 7    1  0.1139627E-011  0.5930195E+02  0.7816164E-02  0.1266605E+00
        -11   -1    0    0    0    0  0.00000000000E+00  0.00000000000E+00  0.45593999997E+02  0.45594000000E+02  0.51100000000E-03 0.  1.
         11   -1    0    0    0    0 -0.00000000000E+00 -0.00000000000E+00 -0.45593999997E+02  0.45594000000E+02  0.51100000000E-03 0. -1.
    9900012    2    1    2    0    0  0.31693141536E+01  0.13901263663E+02 -0.28520698778E+02  0.59301953798E+02  0.50000017818E+02 0.  0.
        -12    1    1    2    0    0 -0.31693141536E+01 -0.13901263663E+02  0.28520698778E+02  0.31886046202E+02  0.00000000000E+00 0.  1.
         11    1    3    3    0    0  0.10528774185E+02 -0.47231452427E+01  0.81292894919E+00  0.11568234116E+02  0.51100000000E-03 0. -1.
        -11    1    3    3    0    0 -0.17211388762E+01  0.67340400131E+01 -0.33277785834E+02  0.33995891578E+02  0.51100000000E-03 0.  1.
        -12    1    3    3    0    0 -0.56383211551E+01  0.11890368892E+02  0.39441581063E+01  0.13737828104E+02  0.00000000000E+00 0.  1.
</event>
<event>
 7    1  0.1139627E-011  0.5930191E+02  0.7816164E-02  0.1266605E+00
        -11   -1    0    0    0    0  0.00000000000E+00  0.00000000000E+00  0.45593999997E+02  0.45594000000E+02  0.51100000000E-03 0. -1.
         11   -1    0    0    0    0 -0.00000000000E+00 -0.00000000000E+00 -0.45593999997E+02  0.45594000000E+02  0.51100000000E-03 0.  1.
    9900012    2    1    2    0    0 -0.12276354710E+02  0.25053007518E+02  0.15438923722E+02  0.59301914691E+02  0.49999946497E+02 0.  0.
        -12    1    1    2    0    0  0.12276354710E+02 -0.25053007518E+02 -0.15438923722E+02  0.31886085309E+02  0.00000000000E+00 0.  1.
         11    1    3    3    0    0  0.81783922979E+00  0.26967391554E+02 -0.84550685642E+01  0.28273614076E+02  0.51100000000E-03 0. -1.
        -11    1    3    3    0    0 -0.15719672415E+02  0.83185561039E+00  0.17087547452E+02  0.23233259840E+02  0.51100000000E-03 0.  1.
        -12    1    3    3    0    0  0.26254784749E+01 -0.27462396464E+01  0.68064448334E+01  0.77950407752E+01  0.00000000000E+00 0.  1.
</event>
<event>
 7    1  0.1139627E-011  0.5930194E+02  0.7816164E-02  0.1266605E+00
        -11   -1    0    0    0    0  0.00000000000E+00  0.00000000000E+00  0.45593999997E+02  0.45594000000E+02  0.51100000000E-03 0.  1.
         11   -1    0    0    0    0 -0.00000000000E+00 -0.00000000000E+00 -0.45593999997E+02  0.45594000000E+02  0.51100000000E-03 0. -1.
    9900012    2    1    2    0    0 -0.29599161822E+01  0.24922278909E+02 -0.19668240771E+02  0.59301940588E+02  0.49999993726E+02 0.  0.
        -12    1    1    2    0    0  0.29599161822E+01 -0.24922278909E+02  0.19668240771E+02  0.31886059412E+02  0.00000000000E+00 0.  1.
         11    1    3    3    0    0 -0.21920039693E+02  0.24728034304E+02 -0.12261935018E+02  0.35246544105E+02  0.51100000000E-03 0. -1.
        -11    1    3    3    0    0  0.19089502282E+02 -0.31414777544E+01 -0.74109953406E+01  0.20717162741E+02  0.51100000000E-03 0.  1.
        -12    1    3    3    0    0 -0.12937877062E+00  0.33357223587E+01  0.46895878461E-02  0.33382337415E+01  0.00000000000E+00 0.  1.
</event>
<event>
 7    1  0.1139627E-011  0.5930194E+02  0.7816164E-02  0.1266605E+00
        -11   -1    0    0    0    0  0.00000000000E+00  0.00000000000E+00  0.45593999997E+02  0.45594000000E+02  0.51100000000E-03 0.  1.
         11   -1    0    0    0    0 -0.00000000000E+00 -0.00000000000E+00 -0.45593999997E+02  0.45594000000E+02  0.51100000000E-03 0. -1.
    9900012    2    1    2    0    0 -0.29046398137E+02  0.27698922094E+01 -0.12859041860E+02  0.59301944974E+02  0.50000001725E+02 0.  0.
        -12    1    1    2    0    0  0.29046398137E+02 -0.27698922094E+01  0.12859041860E+02  0.31886055026E+02  0.00000000000E+00 0.  1.
         11    1    3    3    0    0 -0.15253127706E+02 -0.36538826256E+00 -0.10770078251E+02  0.18675813214E+02  0.51100000000E-03 0. -1.
        -11    1    3    3    0    0 -0.80230777274E+01  0.15094146230E+02  0.12290508981E+02  0.21053732161E+02  0.51100000000E-03 0.  1.
        -12    1    3    3    0    0 -0.57701927033E+01 -0.11958865758E+02 -0.14379472590E+02  0.19572399598E+02  0.00000000000E+00 0.  1.
</event>
<event>
 7    1  0.1139627E-011  0.5930194E+02  0.7816164E-02  0.1266605E+00
        -11   -1    0    0    0    0  0.00000000000E+00  0.00000000000E+00  0.45593999997E+02  0.45594000000E+02  0.51100000000E-03 0.  1.
         11   -1    0    0    0    0 -0.00000000000E+00 -0.00000000000E+00 -0.45593999997E+02  0.45594000000E+02  0.51100000000E-03 0. -1.
    9900012    2    1    2    0    0  0.21197943274E+02  0.19436856835E+02 -0.13768678758E+02  0.59301941646E+02  0.49999995655E+02 0.  0.
        -12    1    1    2    0    0 -0.21197943274E+02 -0.19436856835E+02  0.13768678758E+02  0.31886058354E+02  0.00000000000E+00 0.  1.
         11    1    3    3    0    0 -0.10863736856E+02  0.15992245241E+02 -0.14992511827E+02  0.24465242641E+02  0.51100000000E-03 0. -1.
        -11    1    3    3    0    0  0.16119274027E+02  0.10619493686E+01  0.71454243992E+01  0.17663969592E+02  0.51100000000E-03 0.  1.
         12    1    3    3    0    0  0.15942406103E+02  0.23826622253E+01 -0.59215913297E+01  0.17172729413E+02  0.00000000000E+00 0. -1.
</event>
<event>
 7    1  0.1139627E-011  0.5930193E+02  0.7816164E-02  0.1266605E+00
        -11   -1    0    0    0    0  0.00000000000E+00  0.00000000000E+00  0.45593999997E+02  0.45594000000E+02  0.51100000000E-03 0.  1.
         11   -1    0    0    0    0 -0.00000000000E+00 -0.00000000000E+00 -0.45593999997E+02  0.45594000000E+02  0.51100000000E-03 0. -1.
    9900012    2    1    2    0    0 -0.11251243591E+02  0.15810111334E+02  0.25301607664E+02  0.59301930108E+02  0.49999974614E+02 0.  0.
        -12    1    1    2    0    0  0.11251243591E+02 -0.15810111334E+02 -0.25301607664E+02  0.31886069892E+02  0.00000000000E+00 0.  1.
         11    1    3    3    0    0  0.50988492452E+01  0.14283283952E+01 -0.10928848693E+02  0.12144056968E+02  0.51100000000E-03 0. -1.
        -11    1    3    3    0    0 -0.12605997882E+02  0.19608650493E+02  0.31443277498E+02  0.39141921987E+02  0.51100000000E-03 0.  1.
        -12    1    3    3    0    0 -0.37440949543E+01 -0.52268675539E+01  0.47871788596E+01  0.80159511529E+01  0.00000000000E+00 0.  1.
</event>
<event>
 7    1  0.1139627E-011  0.5930193E+02  0.7816164E-02  0.1266605E+00
        -11   -1    0    0    0    0  0.00000000000E+00  0.00000000000E+00  0.45593999997E+02  0.45594000000E+02  0.51100000000E-03 0. -1.
         11   -1    0    0    0    0 -0.00000000000E+00 -0.00000000000E+00 -0.45593999997E+02  0.45594000000E+02  0.51100000000E-03 0.  1.
    9900012    2    1    2    0    0 -0.34291756958E+01 -0.26365220140E+02  0.17602192083E+02  0.59301933370E+02  0.49999980564E+02 0.  0.
        -12    1    1    2    0    0  0.34291756958E+01  0.26365220140E+02 -0.17602192083E+02  0.31886066630E+02  0.00000000000E+00 0.  1.
         11    1    3    3    0    0  0.56760433828E+01 -0.84558823148E+01  0.81009617728E+01  0.13013262316E+02  0.51100000000E-03 0. -1.
        -11    1    3    3    0    0  0.23848610707E+01 -0.92464198412E+01 -0.15054325002E+02  0.17827409899E+02  0.51100000000E-03 0.  1.
        -12    1    3    3    0    0 -0.11490080149E+02 -0.86629179840E+01  0.24555555312E+02  0.28461261155E+02  0.00000000000E+00 0.  1.
</event>
<event>
 7    1  0.1139627E-011  0.5930191E+02  0.7816164E-02  0.1266605E+00
        -11   -1    0    0    0    0  0.00000000000E+00  0.00000000000E+00  0.45593999997E+02  0.45594000000E+02  0.51100000000E-03 0. -1.
         11   -1    0    0    0    0 -0.00000000000E+00 -0.00000000000E+00 -0.45593999997E+02  0.45594000000E+02  0.51100000000E-03 0.  1.
    9900012    2    1    2    0    0 -0.32912864347E+01 -0.31218446353E+02 -0.55945084274E+01  0.59301913949E+02  0.49999945144E+02 0.  0.
        -12    1    1    2    0    0  0.32912864347E+01  0.31218446353E+02  0.55945084274E+01  0.31886086051E+02  0.00000000000E+00 0.  1.
         11    1    3    3    0    0 -0.61259623159E+01 -0.43643618945E+02 -0.31216018752E+01  0.44181866048E+02  0.51100000000E-03 0. -1.
        -11    1    3    3    0    0 -0.13119870518E+01  0.88117307548E+01  0.39395870879E+00  0.89175732486E+01  0.51100000000E-03 0.  1.
         12    1    3    3    0    0  0.41466629329E+01  0.36134418378E+01 -0.28668652610E+01  0.62024746528E+01  0.00000000000E+00 0. -1.
</event>
<event>
 7    1  0.1139627E-011  0.5930194E+02  0.7816164E-02  0.1266605E+00
        -11   -1    0    0    0    0  0.00000000000E+00  0.00000000000E+00  0.45593999997E+02  0.45594000000E+02  0.51100000000E-03 0. -1.
         11   -1    0    0    0    0 -0.00000000000E+00 -0.00000000000E+00 -0.45593999997E+02  0.45594000000E+02  0.51100000000E-03 0.  1.
    9900012    2    1    2    0    0 -0.16240161557E+02 -0.22958742256E+02 -0.15029112824E+02  0.59301938380E+02  0.49999989700E+02 0.  0.
        -12    1    1    2    0    0  0.16240161557E+02  0.22958742256E+02  0.15029112824E+02  0.31886061620E+02  0.00000000000E+00 0.  1.
         11    1    3    3    0    0 -0.99401830786E+01  0.30130829650E+01  0.85890474855E+01  0.13478043091E+02  0.51100000000E-03 0. -1.
        -11    1    3    3    0    0 -0.16167189840E+02 -0.22331834202E+02 -0.11758182941E+02  0.29972382496E+02  0.51100000000E-03 0.  1.
         12    1    3    3    0    0  0.98672113610E+01 -0.36399910182E+01 -0.11859977369E+02  0.15851512793E+02  0.00000000000E+00 0. -1.
</event>
<event>
 7    1  0.1139627E-011  0.5930199E+02  0.7816164E-02  0.1266605E+00
        -11   -1    0    0    0    0  0.00000000000E+00  0.00000000000E+00  0.45593999997E+02  0.45594000000E+02  0.51100000000E-03 0.  1.
         11   -1    0    0    0    0 -0.00000000000E+00 -0.00000000000E+00 -0.45593999997E+02  0.45594000000E+02  0.51100000000E-03 0. -1.
    9900012    2    1    2    0    0 -0.12870774184E+02 -0.28838234324E+02 -0.44065086583E+01  0.59301985737E+02  0.50000076068E+02 0.  0.
        -12    1    1    2    0    0  0.12870774184E+02  0.28838234324E+02  0.44065086583E+01  0.31886014263E+02  0.00000000000E+00 0.  1.
         11    1    3    3    0    0  0.16218783223E+02 -0.11265648260E+02 -0.11839132891E+02  0.23024526658E+02  0.51100000000E-03 0. -1.
        -11    1    3    3    0    0 -0.16379787227E+02 -0.62879407221E+01 -0.42976853414E+00  0.17550507952E+02  0.51100000000E-03 0.  1.
         12    1    3    3    0    0 -0.12709770180E+02 -0.11284645341E+02  0.78623927664E+01  0.18726951127E+02  0.00000000000E+00 0. -1.
</event>
<event>
 7    1  0.1139627E-011  0.5930193E+02  0.7816164E-02  0.1266605E+00
        -11   -1    0    0    0    0  0.00000000000E+00  0.00000000000E+00  0.45593999997E+02  0.45594000000E+02  0.51100000000E-03 0. -1.
         11   -1    0    0    0    0 -0.00000000000E+00 -0.00000000000E+00 -0.45593999997E+02  0.45594000000E+02  0.51100000000E-03 0.  1.
    9900012    2    1    2    0    0  0.23872419564E+02  0.18351869976E+02  0.10489903075E+02  0.59301927586E+02  0.49999970014E+02 0.  0.
        -12    1    1    2    0    0 -0.23872419564E+02 -0.18351869976E+02 -0.10489903075E+02  0.31886072414E+02  0.00000000000E+00 0.  1.
         11    1    3    3    0    0 -0.68668394624E+01  0.20367400709E+02  0.35839684410E+01  0.21790578834E+02  0.51100000000E-03 0.  1.
        -11    1    3    3    0    0  0.23348739704E+02  0.41203830319E+01  0.12070574879E+02  0.26605262267E+02  0.51100000000E-03 0. -1.
        -12    1    3    3    0    0  0.73905193222E+01 -0.61359137649E+01 -0.51646402445E+01  0.10906086486E+02  0.00000000000E+00 0.  1.
</event>
<event>
 7    1  0.1139627E-011  0.5930192E+02  0.7816164E-02  0.1266605E+00
        -11   -1    0    0    0    0  0.00000000000E+00  0.00000000000E+00  0.45593999997E+02  0.45594000000E+02  0.51100000000E-03 0.  1.
         11   -1    0    0    0    0 -0.00000000000E+00 -0.00000000000E+00 -0.45593999997E+02  0.45594000000E+02  0.51100000000E-03 0. -1.
    9900012    2    1    2    0    0  0.14771566070E+02  0.27692663427E+02 -0.56248719300E+01  0.59301922222E+02  0.49999960232E+02 0.  0.
        -12    1    1    2    0    0 -0.14771566070E+02 -0.27692663427E+02  0.56248719300E+01  0.31886077778E+02  0.00000000000E+00 0.  1.
         11    1    3    3    0    0  0.23733093700E+02  0.16653172252E+02 -0.16279759858E+02  0.33250841552E+02  0.51100000000E-03 0. -1.
        -11    1    3    3    0    0  0.38355970671E+01 -0.12499218840E+01  0.67815381690E+01  0.78907141487E+01  0.51100000000E-03 0.  1.
         12    1    3    3    0    0 -0.12797124697E+02  0.12289413059E+02  0.38733497591E+01  0.18160366522E+02  0.00000000000E+00 0. -1.
</event>
<event>
 7    1  0.1139627E-011  0.5930192E+02  0.7816164E-02  0.1266605E+00
        -11   -1    0    0    0    0  0.00000000000E+00  0.00000000000E+00  0.45593999997E+02  0.45594000000E+02  0.51100000000E-03 0. -1.
         11   -1    0    0    0    0 -0.00000000000E+00 -0.00000000000E+00 -0.45593999997E+02  0.45594000000E+02  0.51100000000E-03 0.  1.
    9900012    2    1    2    0    0  0.18931344544E+02 -0.10537581992E+02  0.23394134612E+02  0.59301921929E+02  0.49999959698E+02 0.  0.
        -12    1    1    2    0    0 -0.18931344544E+02  0.10537581992E+02 -0.23394134612E+02  0.31886078071E+02  0.00000000000E+00 0.  1.
         11    1    3    3    0    0  0.94957529021E+01  0.16046168200E+02 -0.81457698364E+00  0.18663128703E+02  0.51100000000E-03 0. -1.
        -11    1    3    3    0    0  0.12826573235E+02 -0.22004572771E+02  0.14303272244E+02  0.29211398476E+02  0.51100000000E-03 0.  1.
         12    1    3    3    0    0 -0.33909815932E+01 -0.45791774204E+01  0.99054393521E+01  0.11427394750E+02  0.00000000000E+00 0. -1.
</event>
<event>
 7    1  0.1139627E-011  0.5930193E+02  0.7816164E-02  0.1266605E+00
        -11   -1    0    0    0    0  0.00000000000E+00  0.00000000000E+00  0.45593999997E+02  0.45594000000E+02  0.51100000000E-03 0.  1.
         11   -1    0    0    0    0 -0.00000000000E+00 -0.00000000000E+00 -0.45593999997E+02  0.45594000000E+02  0.51100000000E-03 0. -1.
    9900012    2    1    2    0    0 -0.25345632383E+02  0.61120458203E+01 -0.18356559850E+02  0.59301929773E+02  0.49999974003E+02 0.  0.
        -12    1    1    2    0    0  0.25345632383E+02 -0.61120458203E+01  0.18356559850E+02  0.31886070227E+02  0.00000000000E+00 0.  1.
         11    1    3    3    0    0 -0.33439579933E+02  0.10438218592E+02 -0.10974657146E+02  0.36709740032E+02  0.51100000000E-03 0. -1.
        -11    1    3    3    0    0  0.13949336552E+02  0.16425853260E+00 -0.53228412462E+01  0.14931296337E+02  0.51100000000E-03 0.  1.
        -12    1    3    3    0    0 -0.58553890023E+01 -0.44904313041E+01 -0.20590614577E+01  0.76608934043E+01  0.00000000000E+00 0.  1.
</event>
<event>
 7    1  0.1139627E-011  0.5930193E+02  0.7816164E-02  0.1266605E+00
        -11   -1    0    0    0    0  0.00000000000E+00  0.00000000000E+00  0.45593999997E+02  0.45594000000E+02  0.51100000000E-03 0. -1.
         11   -1    0    0    0    0 -0.00000000000E+00 -0.00000000000E+00 -0.45593999997E+02  0.45594000000E+02  0.51100000000E-03 0.  1.
    9900012    2    1    2    0    0 -0.23775258147E+02 -0.20629841159E+02  0.50861035848E+01  0.59301926302E+02  0.49999967672E+02 0.  0.
        -12    1    1    2    0    0  0.23775258147E+02  0.20629841159E+02 -0.50861035848E+01  0.31886073698E+02  0.00000000000E+00 0.  1.
         11    1    3    3    0    0  0.60116985214E+00 -0.23266355421E+02  0.37444376821E+00  0.23277132731E+02  0.51100000000E-03 0. -1.
        -11    1    3    3    0    0 -0.26351954380E+02 -0.28529920610E+01  0.98237104647E+01  0.28267832440E+02  0.51100000000E-03 0.  1.
         12    1    3    3    0    0  0.19755263807E+01  0.54895063230E+01 -0.51120506480E+01  0.77569611304E+01  0.00000000000E+00 0. -1.
</event>
<event>
 7    1  0.1139627E-011  0.5930195E+02  0.7816164E-02  0.1266605E+00
        -11   -1    0    0    0    0  0.00000000000E+00  0.00000000000E+00  0.45593999997E+02  0.45594000000E+02  0.51100000000E-03 0. -1.
         11   -1    0    0    0    0 -0.00000000000E+00 -0.00000000000E+00 -0.45593999997E+02  0.45594000000E+02  0.51100000000E-03 0.  1.
    9900012    2    1    2    0    0  0.48348162937E+01 -0.78527783468E+01  0.30523407203E+02  0.59301953465E+02  0.50000017211E+02 0.  0.
        -12    1    1    2    0    0 -0.48348162937E+01  0.78527783468E+01 -0.30523407203E+02  0.31886046535E+02  0.00000000000E+00 0.  1.
         11    1    3    3    0    0  0.92047185467E+00  0.14949686376E+01  0.15164029867E+01  0.23198443788E+01  0.51100000000E-03 0. -1.
        -11    1    3    3    0    0 -0.10618087647E+02  0.25363523081E+01 -0.92879181501E+01  0.14333258253E+02  0.51100000000E-03 0.  1.
        -12    1    3    3    0    0  0.14532432086E+02 -0.11884099292E+02  0.38294922367E+02  0.42648850833E+02  0.00000000000E+00 0.  1.
</event>
<event>
 7    1  0.1139627E-011  0.5930198E+02  0.7816164E-02  0.1266605E+00
        -11   -1    0    0    0    0  0.00000000000E+00  0.00000000000E+00  0.45593999997E+02  0.45594000000E+02  0.51100000000E-03 0.  1.
         11   -1    0    0    0    0 -0.00000000000E+00 -0.00000000000E+00 -0.45593999997E+02  0.45594000000E+02  0.51100000000E-03 0. -1.
    9900012    2    1    2    0    0 -0.11894758489E+02 -0.26030863820E+02 -0.14057990155E+02  0.59301980526E+02  0.50000066563E+02 0.  0.
        -12    1    1    2    0    0  0.11894758489E+02  0.26030863820E+02  0.14057990155E+02  0.31886019474E+02  0.00000000000E+00 0.  1.
         11    1    3    3    0    0 -0.11121905893E+02 -0.86087785741E+01 -0.12681930239E+02  0.18937772152E+02  0.51100000000E-03 0. -1.
        -11    1    3    3    0    0  0.13730752976E+02  0.29876947433E+01  0.42910785598E+01  0.14692625791E+02  0.51100000000E-03 0.  1.
        -12    1    3    3    0    0 -0.14503605572E+02 -0.20409779989E+02 -0.56671384762E+01  0.25671582583E+02  0.00000000000E+00 0.  1.
</event>
<event>
 7    1  0.1139627E-011  0.5930201E+02  0.7816164E-02  0.1266605E+00
        -11   -1    0    0    0    0  0.00000000000E+00  0.00000000000E+00  0.45593999997E+02  0.45594000000E+02  0.51100000000E-03 0.  1.
         11   -1    0    0    0    0 -0.00000000000E+00 -0.00000000000E+00 -0.45593999997E+02  0.45594000000E+02  0.51100000000E-03 0. -1.
    9900012    2    1    2    0    0  0.21461391213E+02 -0.22525907340E+02  0.69791541053E+01  0.59302009247E+02  0.50000118945E+02 0.  0.
        -12    1    1    2    0    0 -0.21461391213E+02  0.22525907340E+02 -0.69791541053E+01  0.31885990753E+02  0.00000000000E+00 0.  1.
         11    1    3    3    0    0 -0.68627651767E+01 -0.77430114480E+01 -0.26155809207E+01  0.10672068027E+02  0.51100000000E-03 0. -1.
        -11    1    3    3    0    0  0.32113412811E+02 -0.22125357839E+02  0.54191330307E+01  0.39372195074E+02  0.51100000000E-03 0.  1.
        -12    1    3    3    0    0 -0.37892564217E+01  0.73424619478E+01  0.41756019953E+01  0.92577461461E+01  0.00000000000E+00 0.  1.
</event>
<event>
 7    1  0.1139627E-011  0.5930195E+02  0.7816164E-02  0.1266605E+00
        -11   -1    0    0    0    0  0.00000000000E+00  0.00000000000E+00  0.45593999997E+02  0.45594000000E+02  0.51100000000E-03 0. -1.
         11   -1    0    0    0    0 -0.00000000000E+00 -0.00000000000E+00 -0.45593999997E+02  0.45594000000E+02  0.51100000000E-03 0.  1.
    9900012    2    1    2    0    0  0.29808943792E+02  0.11301330174E+02 -0.65355226277E+00  0.59301947810E+02  0.50000006898E+02 0.  0.
        -12    1    1    2    0    0 -0.29808943792E+02 -0.11301330174E+02  0.65355226277E+00  0.31886052190E+02  0.00000000000E+00 0.  1.
         11    1    3    3    0    0  0.27713492048E+02  0.28488856400E+01  0.11777585245E+01  0.27884420494E+02  0.51100000000E-03 0. -1.
        -11    1    3    3    0    0 -0.33690320531E+01 -0.76262997972E+01  0.82000361342E+01  0.11694076211E+02  0.51100000000E-03 0.  1.
        -12    1    3    3    0    0  0.54644837972E+01  0.16078744331E+02 -0.10031346921E+02  0.19723451105E+02  0.00000000000E+00 0.  1.
</event>
<event>
 7    1  0.1139627E-011  0.5930196E+02  0.7816164E-02  0.1266605E+00
        -11   -1    0    0    0    0  0.00000000000E+00  0.00000000000E+00  0.45593999997E+02  0.45594000000E+02  0.51100000000E-03 0.  1.
         11   -1    0    0    0    0 -0.00000000000E+00 -0.00000000000E+00 -0.45593999997E+02  0.45594000000E+02  0.51100000000E-03 0. -1.
    9900012    2    1    2    0    0  0.14092862704E+02 -0.14039522528E+02 -0.24919924103E+02  0.59301959335E+02  0.50000027916E+02 0.  0.
        -12    1    1    2    0    0 -0.14092862704E+02  0.14039522528E+02  0.24919924103E+02  0.31886040665E+02  0.00000000000E+00 0.  1.
         11    1    3    3    0    0  0.27249443968E+02  0.64736765658E+01 -0.13368162423E+02  0.31034633100E+02  0.51100000000E-03 0. -1.
        -11    1    3    3    0    0 -0.10028056090E+02 -0.78065650093E+01 -0.59596963607E+01  0.14036464910E+02  0.51100000000E-03 0.  1.
         12    1    3    3    0    0 -0.31285251738E+01 -0.12706634084E+02 -0.55920653195E+01  0.14230861325E+02  0.00000000000E+00 0. -1.
</event>
<event>
 7    1  0.1139627E-011  0.5930195E+02  0.7816164E-02  0.1266605E+00
        -11   -1    0    0    0    0  0.00000000000E+00  0.00000000000E+00  0.45593999997E+02  0.45594000000E+02  0.51100000000E-03 0.  1.
         11   -1    0    0    0    0 -0.00000000000E+00 -0.00000000000E+00 -0.45593999997E+02  0.45594000000E+02  0.51100000000E-03 0. -1.
    9900012    2    1    2    0    0 -0.16990199606E+02 -0.18236021239E+01 -0.26920770330E+02  0.59301948465E+02  0.50000008093E+02 0.  0.
        -12    1    1    2    0    0  0.16990199606E+02  0.18236021239E+01  0.26920770330E+02  0.31886051535E+02  0.00000000000E+00 0.  1.
         11    1    3    3    0    0  0.23403560885E+01 -0.66460740949E+01 -0.36435922587E+01  0.79324228521E+01  0.51100000000E-03 0. -1.
        -11    1    3    3    0    0 -0.30799242290E+02  0.10973873346E+02 -0.18026771054E+02  0.37336091075E+02  0.51100000000E-03 0.  1.
        -12    1    3    3    0    0  0.11468686596E+02 -0.61514013746E+01 -0.52504070167E+01  0.14033434538E+02  0.00000000000E+00 0.  1.
</event>
<event>
 7    1  0.1139627E-011  0.5930204E+02  0.7816164E-02  0.1266604E+00
        -11   -1    0    0    0    0  0.00000000000E+00  0.00000000000E+00  0.45593999997E+02  0.45594000000E+02  0.51100000000E-03 0.  1.
         11   -1    0    0    0    0 -0.00000000000E+00 -0.00000000000E+00 -0.45593999997E+02  0.45594000000E+02  0.51100000000E-03 0. -1.
    9900012    2    1    2    0    0  0.26808422855E+02  0.76304526480E+01 -0.15485457928E+02  0.59302035206E+02  0.50000166287E+02 0.  0.
        -12    1    1    2    0    0 -0.26808422855E+02 -0.76304526480E+01  0.15485457928E+02  0.31885964794E+02  0.00000000000E+00 0.  1.
         11    1    3    3    0    0  0.17111801279E+02  0.95738966152E+01 -0.19950765938E+02  0.27973314090E+02  0.51100000000E-03 0. -1.
        -11    1    3    3    0    0  0.48515656834E+01  0.75579862761E+01  0.14257091871E+02  0.16850089466E+02  0.51100000000E-03 0.  1.
        -12    1    3    3    0    0  0.48450558930E+01 -0.95014302433E+01 -0.97917838609E+01  0.14478631650E+02  0.00000000000E+00 0.  1.
</event>
<event>
 7    1  0.1139627E-011  0.5930194E+02  0.7816164E-02  0.1266605E+00
        -11   -1    0    0    0    0  0.00000000000E+00  0.00000000000E+00  0.45593999997E+02  0.45594000000E+02  0.51100000000E-03 0.  1.
         11   -1    0    0    0    0 -0.00000000000E+00 -0.00000000000E+00 -0.45593999997E+02  0.45594000000E+02  0.51100000000E-03 0. -1.
    9900012    2    1    2    0    0  0.22892458371E+02 -0.14304567671E+02 -0.16971610253E+02  0.59301939392E+02  0.49999991546E+02 0.  0.
        -12    1    1    2    0    0 -0.22892458371E+02  0.14304567671E+02  0.16971610253E+02  0.31886060608E+02  0.00000000000E+00 0.  1.
         11    1    3    3    0    0  0.24847046789E+02 -0.90409593936E+01 -0.10608686891E+02  0.28489628265E+02  0.51100000000E-03 0. -1.
        -11    1    3    3    0    0 -0.24790247802E+01 -0.61324584194E+01  0.11314314723E+02  0.13105965361E+02  0.51100000000E-03 0.  1.
         12    1    3    3    0    0  0.52443636153E+00  0.86885014170E+00 -0.17677238085E+02  0.17706345766E+02  0.00000000000E+00 0. -1.
</event>
<event>
 7    1  0.1139627E-011  0.5930193E+02  0.7816164E-02  0.1266605E+00
        -11   -1    0    0    0    0  0.00000000000E+00  0.00000000000E+00  0.45593999997E+02  0.45594000000E+02  0.51100000000E-03 0. -1.
         11   -1    0    0    0    0 -0.00000000000E+00 -0.00000000000E+00 -0.45593999997E+02  0.45594000000E+02  0.51100000000E-03 0.  1.
    9900012    2    1    2    0    0 -0.22180916209E+02  0.76171513274E+01  0.21603418682E+02  0.59301925657E+02  0.49999966496E+02 0.  0.
        -12    1    1    2    0    0  0.22180916209E+02 -0.76171513274E+01 -0.21603418682E+02  0.31886074343E+02  0.00000000000E+00 0.  1.
         11    1    3    3    0    0  0.12669551857E+02 -0.12970747581E+01  0.10132637401E+02  0.16274836041E+02  0.51100000000E-03 0. -1.
        -11    1    3    3    0    0 -0.77040776841E+01  0.58419815045E+00 -0.59161437926E+01  0.97311283045E+01  0.51100000000E-03 0.  1.
         12    1    3    3    0    0 -0.27146390382E+02  0.83300279351E+01  0.17386925074E+02  0.33295961312E+02  0.00000000000E+00 0. -1.
</event>
<event>
 7    1  0.1139627E-011  0.5930190E+02  0.7816164E-02  0.1266605E+00
        -11   -1    0    0    0    0  0.00000000000E+00  0.00000000000E+00  0.45593999997E+02  0.45594000000E+02  0.51100000000E-03 0. -1.
         11   -1    0    0    0    0 -0.00000000000E+00 -0.00000000000E+00 -0.45593999997E+02  0.45594000000E+02  0.51100000000E-03 0.  1.
    9900012    2    1    2    0    0  0.14289991305E+02 -0.15398939712E+01  0.28463101443E+02  0.59301901639E+02  0.49999922693E+02 0.  0.
        -12    1    1    2    0    0 -0.14289991305E+02  0.15398939712E+01 -0.28463101443E+02  0.31886098361E+02  0.00000000000E+00 0.  1.
         11    1    3    3    0    0 -0.86144843402E+01 -0.14292652945E+01  0.42821479314E+00  0.87427402970E+01  0.51100000000E-03 0. -1.
        -11    1    3    3    0    0  0.13088255013E+02  0.15313859812E+02  0.24868199471E+02  0.32003813317E+02  0.51100000000E-03 0.  1.
        -12    1    3    3    0    0  0.98162206325E+01 -0.15424488489E+02  0.31666871788E+01  0.18555348025E+02  0.00000000000E+00 0.  1.
</event>
<event>
 7    1  0.1139627E-011  0.5930194E+02  0.7816164E-02  0.1266605E+00
        -11   -1    0    0    0    0  0.00000000000E+00  0.00000000000E+00  0.45593999997E+02  0.45594000000E+02  0.51100000000E-03 0. -1.
         11   -1    0    0    0    0 -0.00000000000E+00 -0.00000000000E+00 -0.45593999997E+02  0.45594000000E+02  0.51100000000E-03 0.  1.
    9900012    2    1    2    0    0  0.98724633490E+01 -0.84645407063E+01  0.29113687518E+02  0.59301940620E+02  0.49999993784E+02 0.  0.
        -12    1    1    2    0    0 -0.98724633490E+01  0.84645407063E+01 -0.29113687518E+02  0.31886059380E+02  0.00000000000E+00 0.  1.
         11    1    3    3    0    0 -0.14862455457E+02  0.60838256691E+01  0.11601671482E+02  0.19811721238E+02  0.51100000000E-03 0.  1.
        -11    1    3    3    0    0  0.16069565513E+02 -0.15866473065E+02  0.20224453927E+02  0.30315086017E+02  0.51100000000E-03 0. -1.
         12    1    3    3    0    0  0.86653532932E+01  0.13181066893E+01 -0.27124378914E+01  0.91751333644E+01  0.00000000000E+00 0. -1.
</event>
<event>
 7    1  0.1139627E-011  0.5930194E+02  0.7816164E-02  0.1266605E+00
        -11   -1    0    0    0    0  0.00000000000E+00  0.00000000000E+00  0.45593999997E+02  0.45594000000E+02  0.51100000000E-03 0.  1.
         11   -1    0    0    0    0 -0.00000000000E+00 -0.00000000000E+00 -0.45593999997E+02  0.45594000000E+02  0.51100000000E-03 0. -1.
    9900012    2    1    2    0    0 -0.27393670407E+02  0.14722535512E+02 -0.70394891881E+01  0.59301942885E+02  0.49999997917E+02 0.  0.
        -12    1    1    2    0    0  0.27393670407E+02 -0.14722535512E+02  0.70394891881E+01  0.31886057115E+02  0.00000000000E+00 0.  1.
         11    1    3    3    0    0 -0.36631577404E+02 -0.34129875931E+01 -0.22227388210E+01  0.36857312918E+02  0.51100000000E-03 0. -1.
        -11    1    3    3    0    0  0.47935156471E+01  0.14984802167E+02 -0.94525057168E+00  0.15761205130E+02  0.51100000000E-03 0.  1.
         12    1    3    3    0    0  0.44443913491E+01  0.31507209376E+01 -0.38714997954E+01  0.66834248374E+01  0.00000000000E+00 0. -1.
</event>
<event>
 7    1  0.1139627E-011  0.5930196E+02  0.7816164E-02  0.1266605E+00
        -11   -1    0    0    0    0  0.00000000000E+00  0.00000000000E+00  0.45593999997E+02  0.45594000000E+02  0.51100000000E-03 0.  1.
         11   -1    0    0    0    0 -0.00000000000E+00 -0.00000000000E+00 -0.45593999997E+02  0.45594000000E+02  0.51100000000E-03 0. -1.
    9900012    2    1    2    0    0  0.23065166271E+02 -0.14058181104E+00 -0.22015859002E+02  0.59301957506E+02  0.50000024581E+02 0.  0.
        -12    1    1    2    0    0 -0.23065166271E+02  0.14058181104E+00  0.22015859002E+02  0.31886042494E+02  0.00000000000E+00 0.  1.
         11    1    3    3    0    0  0.19148706086E+02 -0.94629667608E+01 -0.86788718135E+01  0.23055227193E+02  0.51100000000E-03 0. -1.
        -11    1    3    3    0    0  0.64171778983E+01  0.17618465618E+02  0.17670136787E+01  0.18833821719E+02  0.51100000000E-03 0.  1.
        -12    1    3    3    0    0 -0.25007177131E+01 -0.82960806686E+01 -0.15104000867E+02  0.17412908595E+02  0.00000000000E+00 0.  1.
</event>
<event>
 7    1  0.1139627E-011  0.5930194E+02  0.7816164E-02  0.1266605E+00
        -11   -1    0    0    0    0  0.00000000000E+00  0.00000000000E+00  0.45593999997E+02  0.45594000000E+02  0.51100000000E-03 0.  1.
         11   -1    0    0    0    0 -0.00000000000E+00 -0.00000000000E+00 -0.45593999997E+02  0.45594000000E+02  0.51100000000E-03 0. -1.
    9900012    2    1    2    0    0 -0.35901467625E+01  0.23607209260E+02 -0.21131295173E+02  0.59301935356E+02  0.49999984185E+02 0.  0.
        -12    1    1    2    0    0  0.35901467625E+01 -0.23607209260E+02  0.21131295173E+02  0.31886064644E+02  0.00000000000E+00 0.  1.
         11    1    3    3    0    0  0.18996785041E+02  0.35667829946E+01 -0.13463696411E+02  0.23555697912E+02  0.51100000000E-03 0. -1.
        -11    1    3    3    0    0 -0.72358444328E+01 -0.14812453013E+01  0.19105360123E+01  0.76290025832E+01  0.51100000000E-03 0.  1.
         12    1    3    3    0    0 -0.15351087370E+02  0.21521671567E+02 -0.95781347745E+01  0.28117234861E+02  0.00000000000E+00 0. -1.
</event>
<event>
 7    1  0.1139627E-011  0.5930192E+02  0.7816164E-02  0.1266605E+00
        -11   -1    0    0    0    0  0.00000000000E+00  0.00000000000E+00  0.45593999997E+02  0.45594000000E+02  0.51100000000E-03 0. -1.
         11   -1    0    0    0    0 -0.00000000000E+00 -0.00000000000E+00 -0.45593999997E+02  0.45594000000E+02  0.51100000000E-03 0.  1.
    9900012    2    1    2    0    0 -0.13241272825E+02 -0.22174121033E+02  0.18700246168E+02  0.59301919081E+02  0.49999954503E+02 0.  0.
        -12    1    1    2    0    0  0.13241272825E+02  0.22174121033E+02 -0.18700246168E+02  0.31886080919E+02  0.00000000000E+00 0.  1.
         11    1    3    3    0    0 -0.14403936773E+02 -0.36188302034E+02  0.20481143257E+02  0.44006179430E+02  0.51100000000E-03 0. -1.
        -11    1    3    3    0    0  0.39289952867E+00  0.10158807249E+02  0.13688546306E+01  0.10258143010E+02  0.51100000000E-03 0.  1.
         12    1    3    3    0    0  0.76976441936E+00  0.38553737519E+01 -0.31497517188E+01  0.50375966411E+01  0.00000000000E+00 0. -1.
</event>
<event>
 7    1  0.1139627E-011  0.5930194E+02  0.7816164E-02  0.1266605E+00
        -11   -1    0    0    0    0  0.00000000000E+00  0.00000000000E+00  0.45593999997E+02  0.45594000000E+02  0.51100000000E-03 0. -1.
         11   -1    0    0    0    0 -0.00000000000E+00 -0.00000000000E+00 -0.45593999997E+02  0.45594000000E+02  0.51100000000E-03 0.  1.
    9900012    2    1    2    0    0  0.29311742416E+02  0.11546160323E+02 -0.49222612742E+01  0.59301941640E+02  0.49999995645E+02 0.  0.
        -12    1    1    2    0    0 -0.29311742416E+02 -0.11546160323E+02  0.49222612742E+01  0.31886058360E+02  0.00000000000E+00 0.  1.
         11    1    3    3    0    0  0.27753145366E+02  0.93753267183E+00  0.33375653480E+01  0.27968828863E+02  0.51100000000E-03 0. -1.
        -11    1    3    3    0    0 -0.74105028121E+01 -0.51069530248E+01 -0.96370013803E+01  0.13185913582E+02  0.51100000000E-03 0.  1.
        -12    1    3    3    0    0  0.89690998621E+01  0.15715580676E+02  0.13771747581E+01  0.18147199195E+02  0.00000000000E+00 0.  1.
</event>
<event>
 7    1  0.1139627E-011  0.5930197E+02  0.7816164E-02  0.1266605E+00
        -11   -1    0    0    0    0  0.00000000000E+00  0.00000000000E+00  0.45593999997E+02  0.45594000000E+02  0.51100000000E-03 0.  1.
         11   -1    0    0    0    0 -0.00000000000E+00 -0.00000000000E+00 -0.45593999997E+02  0.45594000000E+02  0.51100000000E-03 0. -1.
    9900012    2    1    2    0    0 -0.20427221821E+02  0.57869673723E+01 -0.23789889321E+02  0.59301965179E+02  0.50000038575E+02 0.  0.
        -12    1    1    2    0    0  0.20427221821E+02 -0.57869673723E+01  0.23789889321E+02  0.31886034821E+02  0.00000000000E+00 0.  1.
         11    1    3    3    0    0 -0.19229017538E+02  0.96622650962E+01 -0.22627301005E+02  0.31226739076E+02  0.51100000000E-03 0. -1.
        -11    1    3    3    0    0  0.94867898117E+01  0.62251095392E+01  0.46526523542E+01  0.12263700253E+02  0.51100000000E-03 0.  1.
        -12    1    3    3    0    0 -0.10684994094E+02 -0.10100407263E+02 -0.58152406707E+01  0.15811525851E+02  0.00000000000E+00 0.  1.
</event>
<event>
 7    1  0.1139627E-011  0.5930194E+02  0.7816164E-02  0.1266605E+00
        -11   -1    0    0    0    0  0.00000000000E+00  0.00000000000E+00  0.45593999997E+02  0.45594000000E+02  0.51100000000E-03 0.  1.
         11   -1    0    0    0    0 -0.00000000000E+00 -0.00000000000E+00 -0.45593999997E+02  0.45594000000E+02  0.51100000000E-03 0. -1.
    9900012    2    1    2    0    0  0.61618842540E+01  0.57707091652E+01 -0.30748185848E+02  0.59301939805E+02  0.49999992298E+02 0.  0.
        -12    1    1    2    0    0 -0.61618842540E+01 -0.57707091652E+01  0.30748185848E+02  0.31886060195E+02  0.00000000000E+00 0.  1.
         11    1    3    3    0    0 -0.76758639107E+01  0.21135458810E+01  0.50018092480E+00  0.79772265973E+01  0.51100000000E-03 0. -1.
        -11    1    3    3    0    0  0.91122003502E+01 -0.14819328524E+02 -0.26451392964E+02  0.31659451718E+02  0.51100000000E-03 0.  1.
        -12    1    3    3    0    0  0.47255478145E+01  0.18476491808E+02 -0.47969738093E+01  0.19665261489E+02  0.00000000000E+00 0.  1.
</event>
<event>
 7    1  0.1139627E-011  0.5930203E+02  0.7816164E-02  0.1266604E+00
        -11   -1    0    0    0    0  0.00000000000E+00  0.00000000000E+00  0.45593999997E+02  0.45594000000E+02  0.51100000000E-03 0.  1.
         11   -1    0    0    0    0 -0.00000000000E+00 -0.00000000000E+00 -0.45593999997E+02  0.45594000000E+02  0.51100000000E-03 0. -1.
    9900012    2    1    2    0    0 -0.13441338174E+02  0.99291896650E+01 -0.27156154524E+02  0.59302029608E+02  0.50000156077E+02 0.  0.
        -12    1    1    2    0    0  0.13441338174E+02 -0.99291896650E+01  0.27156154524E+02  0.31885970392E+02  0.00000000000E+00 0.  1.
         11    1    3    3    0    0 -0.35770923373E+01  0.12059586063E+01  0.39457160000E+01  0.54606410579E+01  0.51100000000E-03 0.  1.
        -11    1    3    3    0    0 -0.55911867368E+01  0.25763349586E+02 -0.19433681652E+02  0.32751786727E+02  0.51100000000E-03 0. -1.
        -12    1    3    3    0    0 -0.42730590995E+01 -0.17040118527E+02 -0.11668188872E+02  0.21089601823E+02  0.00000000000E+00 0.  1.
</event>
<event>
 7    1  0.1139627E-011  0.5930197E+02  0.7816164E-02  0.1266605E+00
        -11   -1    0    0    0    0  0.00000000000E+00  0.00000000000E+00  0.45593999997E+02  0.45594000000E+02  0.51100000000E-03 0. -1.
         11   -1    0    0    0    0 -0.00000000000E+00 -0.00000000000E+00 -0.45593999997E+02  0.45594000000E+02  0.51100000000E-03 0.  1.
    9900012    2    1    2    0    0  0.18302016650E+02  0.65814807113E+01  0.25267355006E+02  0.59301969660E+02  0.50000046747E+02 0.  0.
        -12    1    1    2    0    0 -0.18302016650E+02 -0.65814807113E+01 -0.25267355006E+02  0.31886030340E+02  0.00000000000E+00 0.  1.
         11    1    3    3    0    0 -0.28587563791E+01  0.12530964301E+02  0.18799342528E+02  0.22773072566E+02  0.51100000000E-03 0. -1.
        -11    1    3    3    0    0  0.10609287605E+02 -0.56049341073E+01 -0.10895719717E+02  0.16207682693E+02  0.51100000000E-03 0.  1.
        -12    1    3    3    0    0  0.10551485424E+02 -0.34454948258E+00  0.17363732196E+02  0.20321214401E+02  0.00000000000E+00 0.  1.
</event>
<event>
 7    1  0.1139627E-011  0.5930197E+02  0.7816164E-02  0.1266605E+00
        -11   -1    0    0    0    0  0.00000000000E+00  0.00000000000E+00  0.45593999997E+02  0.45594000000E+02  0.51100000000E-03 0.  1.
         11   -1    0    0    0    0 -0.00000000000E+00 -0.00000000000E+00 -0.45593999997E+02  0.45594000000E+02  0.51100000000E-03 0. -1.
    9900012    2    1    2    0    0 -0.21058129144E+02 -0.80887241685E+01 -0.22535447188E+02  0.59301974194E+02  0.50000055016E+02 0.  0.
        -12    1    1    2    0    0  0.21058129144E+02  0.80887241685E+01  0.22535447188E+02  0.31886025806E+02  0.00000000000E+00 0.  1.
         11    1    3    3    0    0  0.50402034354E+01 -0.99965047118E+01 -0.10624597884E+02  0.15434242372E+02  0.51100000000E-03 0.  1.
        -11    1    3    3    0    0 -0.21422802854E+02  0.10085408104E+02 -0.20349305584E+02  0.31220925303E+02  0.51100000000E-03 0. -1.
         12    1    3    3    0    0 -0.46755297258E+01 -0.81776275607E+01  0.84384562805E+01  0.12646806519E+02  0.00000000000E+00 0. -1.
</event>
<event>
 7    1  0.1139627E-011  0.5930193E+02  0.7816164E-02  0.1266605E+00
        -11   -1    0    0    0    0  0.00000000000E+00  0.00000000000E+00  0.45593999997E+02  0.45594000000E+02  0.51100000000E-03 0.  1.
         11   -1    0    0    0    0 -0.00000000000E+00 -0.00000000000E+00 -0.45593999997E+02  0.45594000000E+02  0.51100000000E-03 0. -1.
    9900012    2    1    2    0    0  0.12995301189E+02 -0.35506784198E+01 -0.28900450592E+02  0.59301933848E+02  0.49999981435E+02 0.  0.
        -12    1    1    2    0    0 -0.12995301189E+02  0.35506784198E+01  0.28900450592E+02  0.31886066152E+02  0.00000000000E+00 0.  1.
         11    1    3    3    0    0  0.24775269823E+02  0.30674629158E+01 -0.67423060254E+01  0.25858886564E+02  0.51100000000E-03 0. -1.
        -11    1    3    3    0    0 -0.13161030823E+01 -0.10128280662E+02 -0.19218981739E+01  0.10392684415E+02  0.51100000000E-03 0.  1.
         12    1    3    3    0    0 -0.10463865551E+02  0.35101393262E+01 -0.20236246392E+02  0.23050362869E+02  0.00000000000E+00 0. -1.
</event>
<event>
 7    1  0.1139627E-011  0.5930189E+02  0.7816164E-02  0.1266605E+00
        -11   -1    0    0    0    0  0.00000000000E+00  0.00000000000E+00  0.45593999997E+02  0.45594000000E+02  0.51100000000E-03 0.  1.
         11   -1    0    0    0    0 -0.00000000000E+00 -0.00000000000E+00 -0.45593999997E+02  0.45594000000E+02  0.51100000000E-03 0. -1.
    9900012    2    1    2    0    0 -0.20130777447E+02 -0.23094593135E+02  0.88383076506E+01  0.59301888371E+02  0.49999898496E+02 0.  0.
        -12    1    1    2    0    0  0.20130777447E+02  0.23094593135E+02 -0.88383076506E+01  0.31886111629E+02  0.00000000000E+00 0.  1.
         11    1    3    3    0    0  0.54503774817E+01  0.73632786328E+01  0.15048043122E+02  0.17617266785E+02  0.51100000000E-03 0.  1.
        -11    1    3    3    0    0 -0.21288205552E+02 -0.25959451536E+02 -0.91641296536E+01  0.34800317416E+02  0.51100000000E-03 0. -1.
         12    1    3    3    0    0 -0.42929493766E+01 -0.44984202316E+01  0.29543941825E+01  0.68843041708E+01  0.00000000000E+00 0. -1.
</event>
<event>
 7    1  0.1139627E-011  0.5930201E+02  0.7816164E-02  0.1266605E+00
        -11   -1    0    0    0    0  0.00000000000E+00  0.00000000000E+00  0.45593999997E+02  0.45594000000E+02  0.51100000000E-03 0.  1.
         11   -1    0    0    0    0 -0.00000000000E+00 -0.00000000000E+00 -0.45593999997E+02  0.45594000000E+02  0.51100000000E-03 0. -1.
    9900012    2    1    2    0    0  0.23955015308E+02  0.34360765519E+00 -0.21041759556E+02  0.59302008251E+02  0.50000117127E+02 0.  0.
        -12    1    1    2    0    0 -0.23955015308E+02 -0.34360765519E+00  0.21041759556E+02  0.31885991749E+02  0.00000000000E+00 0.  1.
         11    1    3    3    0    0  0.29512265553E+02 -0.21666552672E+01 -0.21397166954E+02  0.36517214667E+02  0.51100000000E-03 0. -1.
        -11    1    3    3    0    0 -0.77919305968E+01  0.21692976315E+01  0.10009851331E+02  0.12869233022E+02  0.51100000000E-03 0.  1.
        -12    1    3    3    0    0  0.22346803514E+01  0.34096529091E+00 -0.96544439326E+01  0.99155605616E+01  0.00000000000E+00 0.  1.
</event>
<event>
 7    1  0.1139627E-011  0.5930194E+02  0.7816164E-02  0.1266605E+00
        -11   -1    0    0    0    0  0.00000000000E+00  0.00000000000E+00  0.45593999997E+02  0.45594000000E+02  0.51100000000E-03 0. -1.
         11   -1    0    0    0    0 -0.00000000000E+00 -0.00000000000E+00 -0.45593999997E+02  0.45594000000E+02  0.51100000000E-03 0.  1.
    9900012    2    1    2    0    0  0.11513612205E+02  0.28887400007E+02  0.70480945497E+01  0.59301940633E+02  0.49999993809E+02 0.  0.
        -12    1    1    2    0    0 -0.11513612205E+02 -0.28887400007E+02 -0.70480945497E+01  0.31886059367E+02  0.00000000000E+00 0.  1.
         11    1    3    3    0    0  0.83449197421E+01  0.15206579474E+02  0.21773516599E+02  0.27838171100E+02  0.51100000000E-03 0. -1.
        -11    1    3    3    0    0  0.94661948465E+01  0.47288690546E+01 -0.17244721965E+02  0.20232436416E+02  0.51100000000E-03 0.  1.
         12    1    3    3    0    0 -0.62975023838E+01  0.89519514785E+01  0.25192999150E+01  0.11231333118E+02  0.00000000000E+00 0. -1.
</event>
<event>
 7    1  0.1139627E-011  0.5930184E+02  0.7816164E-02  0.1266605E+00
        -11   -1    0    0    0    0  0.00000000000E+00  0.00000000000E+00  0.45593999997E+02  0.45594000000E+02  0.51100000000E-03 0.  1.
         11   -1    0    0    0    0 -0.00000000000E+00 -0.00000000000E+00 -0.45593999997E+02  0.45594000000E+02  0.51100000000E-03 0. -1.
    9900012    2    1    2    0    0  0.83489898049E+01 -0.28398366313E+02 -0.11855561776E+02  0.59301840228E+02  0.49999810694E+02 0.  0.
        -12    1    1    2    0    0 -0.83489898049E+01  0.28398366313E+02  0.11855561776E+02  0.31886159772E+02  0.00000000000E+00 0.  1.
         11    1    3    3    0    0  0.77429112904E-01 -0.23715986166E+02  0.13037222731E+02  0.27063317829E+02  0.51100000000E-03 0.  1.
        -11    1    3    3    0    0  0.12929984736E+02 -0.72242978335E+01 -0.20810815584E+02  0.25543395037E+02  0.51100000000E-03 0. -1.
        -12    1    3    3    0    0 -0.46584240445E+01  0.25419176875E+01 -0.40819689228E+01  0.66951273621E+01  0.00000000000E+00 0.  1.
</event>
<event>
 7    1  0.1139627E-011  0.5930195E+02  0.7816164E-02  0.1266605E+00
        -11   -1    0    0    0    0  0.00000000000E+00  0.00000000000E+00  0.45593999997E+02  0.45594000000E+02  0.51100000000E-03 0.  1.
         11   -1    0    0    0    0 -0.00000000000E+00 -0.00000000000E+00 -0.45593999997E+02  0.45594000000E+02  0.51100000000E-03 0. -1.
    9900012    2    1    2    0    0  0.13569199971E+02 -0.25551031192E+01 -0.28741410633E+02  0.59301946231E+02  0.50000004018E+02 0.  0.
        -12    1    1    2    0    0 -0.13569199971E+02  0.25551031192E+01  0.28741410633E+02  0.31886053769E+02  0.00000000000E+00 0.  1.
         11    1    3    3    0    0  0.60857041388E+01  0.13089640556E+02 -0.17407782222E+02  0.22614273522E+02  0.51100000000E-03 0. -1.
        -11    1    3    3    0    0  0.76813870296E+01 -0.17180214148E+02  0.56379645885E+01  0.19645612992E+02  0.51100000000E-03 0.  1.
        -12    1    3    3    0    0 -0.19789119711E+00  0.15354704724E+01 -0.16971592999E+02  0.17042059718E+02  0.00000000000E+00 0.  1.
</event>
<event>
 7    1  0.1139627E-011  0.5930190E+02  0.7816164E-02  0.1266605E+00
        -11   -1    0    0    0    0  0.00000000000E+00  0.00000000000E+00  0.45593999997E+02  0.45594000000E+02  0.51100000000E-03 0. -1.
         11   -1    0    0    0    0 -0.00000000000E+00 -0.00000000000E+00 -0.45593999997E+02  0.45594000000E+02  0.51100000000E-03 0.  1.
    9900012    2    1    2    0    0 -0.86274877895E+01 -0.24304058980E+02  0.18751059838E+02  0.59301904699E+02  0.49999928274E+02 0.  0.
        -12    1    1    2    0    0  0.86274877895E+01  0.24304058980E+02 -0.18751059838E+02  0.31886095301E+02  0.00000000000E+00 0.  1.
         11    1    3    3    0    0 -0.14075053545E+02 -0.28489749315E+01  0.21395000432E+02  0.25767612117E+02  0.51100000000E-03 0. -1.
        -11    1    3    3    0    0 -0.99458806392E+00 -0.25136329933E+02  0.11868297782E+01  0.25183980089E+02  0.51100000000E-03 0.  1.
        -12    1    3    3    0    0  0.64421538198E+01  0.36812458847E+01 -0.38307703715E+01  0.83503124936E+01  0.00000000000E+00 0.  1.
</event>
<event>
 7    1  0.1139627E-011  0.5930199E+02  0.7816164E-02  0.1266605E+00
        -11   -1    0    0    0    0  0.00000000000E+00  0.00000000000E+00  0.45593999997E+02  0.45594000000E+02  0.51100000000E-03 0.  1.
         11   -1    0    0    0    0 -0.00000000000E+00 -0.00000000000E+00 -0.45593999997E+02  0.45594000000E+02  0.51100000000E-03 0. -1.
    9900012    2    1    2    0    0 -0.29204927764E+01 -0.31606094543E+02 -0.30402346272E+01  0.59301991832E+02  0.50000087183E+02 0.  0.
        -12    1    1    2    0    0  0.29204927764E+01  0.31606094543E+02  0.30402346272E+01  0.31886008168E+02  0.00000000000E+00 0.  1.
         11    1    3    3    0    0 -0.13198514582E+02 -0.19171855144E+01 -0.19331297364E+02  0.23485643392E+02  0.51100000000E-03 0. -1.
        -11    1    3    3    0    0  0.32883829662E+01 -0.17289492690E+02  0.10128048378E+02  0.20305599824E+02  0.51100000000E-03 0.  1.
         12    1    3    3    0    0  0.69896388399E+01 -0.12399416338E+02  0.61630143591E+01  0.15510748616E+02  0.00000000000E+00 0. -1.
</event>
<event>
 7    1  0.1139627E-011  0.5930189E+02  0.7816164E-02  0.1266605E+00
        -11   -1    0    0    0    0  0.00000000000E+00  0.00000000000E+00  0.45593999997E+02  0.45594000000E+02  0.51100000000E-03 0.  1.
         11   -1    0    0    0    0 -0.00000000000E+00 -0.00000000000E+00 -0.45593999997E+02  0.45594000000E+02  0.51100000000E-03 0. -1.
    9900012    2    1    2    0    0  0.28621014173E+02  0.13703206087E+02  0.31278750202E+01  0.59301891560E+02  0.49999904311E+02 0.  0.
        -12    1    1    2    0    0 -0.28621014173E+02 -0.13703206087E+02 -0.31278750202E+01  0.31886108440E+02  0.00000000000E+00 0.  1.
         11    1    3    3    0    0  0.23500357094E+02  0.24396423631E+02 -0.72084118706E+01  0.34632549307E+02  0.51100000000E-03 0. -1.
        -11    1    3    3    0    0 -0.56747197609E+01 -0.84020135541E+01  0.89921653041E+01  0.13551948688E+02  0.51100000000E-03 0.  1.
         12    1    3    3    0    0  0.10795376839E+02 -0.22912039897E+01  0.13441215867E+01  0.11117393564E+02  0.00000000000E+00 0. -1.
</event>
<event>
 7    1  0.1139627E-011  0.5930195E+02  0.7816164E-02  0.1266605E+00
        -11   -1    0    0    0    0  0.00000000000E+00  0.00000000000E+00  0.45593999997E+02  0.45594000000E+02  0.51100000000E-03 0.  1.
         11   -1    0    0    0    0 -0.00000000000E+00 -0.00000000000E+00 -0.45593999997E+02  0.45594000000E+02  0.51100000000E-03 0. -1.
    9900012    2    1    2    0    0  0.98966267845E+01 -0.22032679247E+01 -0.30231156242E+02  0.59301946325E+02  0.50000004189E+02 0.  0.
        -12    1    1    2    0    0 -0.98966267845E+01  0.22032679247E+01  0.30231156242E+02  0.31886053675E+02  0.00000000000E+00 0.  1.
         11    1    3    3    0    0  0.11410603874E+02  0.19267398153E+02 -0.14645547233E+02  0.26756804114E+02  0.51100000000E-03 0. -1.
        -11    1    3    3    0    0  0.12268530421E+01 -0.21991219733E+02 -0.63870111609E+01  0.22932789311E+02  0.51100000000E-03 0.  1.
        -12    1    3    3    0    0 -0.27408301315E+01  0.52055365539E+00 -0.91985978476E+01  0.96123529003E+01  0.00000000000E+00 0.  1.
</event>
<event>
 7    1  0.1139627E-011  0.5930194E+02  0.7816164E-02  0.1266605E+00
        -11   -1    0    0    0    0  0.00000000000E+00  0.00000000000E+00  0.45593999997E+02  0.45594000000E+02  0.51100000000E-03 0.  1.
         11   -1    0    0    0    0 -0.00000000000E+00 -0.00000000000E+00 -0.45593999997E+02  0.45594000000E+02  0.51100000000E-03 0. -1.
    9900012    2    1    2    0    0  0.98558122298E+01  0.98022199542E+01 -0.28696695439E+02  0.59301939098E+02  0.49999991009E+02 0.  0.
        -12    1    1    2    0    0 -0.98558122298E+01 -0.98022199542E+01  0.28696695439E+02  0.31886060902E+02  0.00000000000E+00 0.  1.
         11    1    3    3    0    0  0.20761490829E+02 -0.77103366750E+01 -0.16687793335E+02  0.27730330682E+02  0.51100000000E-03 0. -1.
        -11    1    3    3    0    0 -0.11518982007E+02  0.30033274961E+01  0.11693952447E+01  0.11961371495E+02  0.51100000000E-03 0.  1.
         12    1    3    3    0    0  0.61330340842E+00  0.14509229133E+02 -0.13178297349E+02  0.19610236922E+02  0.00000000000E+00 0. -1.
</event>
<event>
 7    1  0.1139627E-011  0.5930195E+02  0.7816164E-02  0.1266605E+00
        -11   -1    0    0    0    0  0.00000000000E+00  0.00000000000E+00  0.45593999997E+02  0.45594000000E+02  0.51100000000E-03 0.  1.
         11   -1    0    0    0    0 -0.00000000000E+00 -0.00000000000E+00 -0.45593999997E+02  0.45594000000E+02  0.51100000000E-03 0. -1.
    9900012    2    1    2    0    0  0.15630921381E+02 -0.73657677234E+01 -0.26798137102E+02  0.59301946787E+02  0.50000005032E+02 0.  0.
        -12    1    1    2    0    0 -0.15630921381E+02  0.73657677234E+01  0.26798137102E+02  0.31886053213E+02  0.00000000000E+00 0.  1.
         11    1    3    3    0    0 -0.48077072590E+01 -0.99515099693E+01 -0.15564696401E+02  0.19089430952E+02  0.51100000000E-03 0. -1.
        -11    1    3    3    0    0 -0.98365999093E-01  0.14742856916E+02 -0.40507378835E+01  0.15289538371E+02  0.51100000000E-03 0.  1.
         12    1    3    3    0    0  0.20536994639E+02 -0.12157114670E+02 -0.71827028176E+01  0.24922977464E+02  0.00000000000E+00 0. -1.
</event>
<event>
 7    1  0.1139627E-011  0.5930195E+02  0.7816164E-02  0.1266605E+00
        -11   -1    0    0    0    0  0.00000000000E+00  0.00000000000E+00  0.45593999997E+02  0.45594000000E+02  0.51100000000E-03 0. -1.
         11   -1    0    0    0    0 -0.00000000000E+00 -0.00000000000E+00 -0.45593999997E+02  0.45594000000E+02  0.51100000000E-03 0.  1.
    9900012    2    1    2    0    0  0.22665181117E+02  0.10890175297E+02  0.19606479344E+02  0.59301946852E+02  0.50000005151E+02 0.  0.
        -12    1    1    2    0    0 -0.22665181117E+02 -0.10890175297E+02 -0.19606479344E+02  0.31886053148E+02  0.00000000000E+00 0.  1.
         11    1    3    3    0    0  0.25484302894E+02  0.30862848530E+01  0.22771149024E+02  0.34314720986E+02  0.51100000000E-03 0. -1.
        -11    1    3    3    0    0  0.32584582389E+01  0.14634009119E+02  0.81825696969E+00  0.15014703384E+02  0.51100000000E-03 0.  1.
         12    1    3    3    0    0 -0.60775800155E+01 -0.68301186751E+01 -0.39829266502E+01  0.99725224824E+01  0.00000000000E+00 0. -1.
</event>
<event>
 7    1  0.1139627E-011  0.5930194E+02  0.7816164E-02  0.1266605E+00
        -11   -1    0    0    0    0  0.00000000000E+00  0.00000000000E+00  0.45593999997E+02  0.45594000000E+02  0.51100000000E-03 0. -1.
         11   -1    0    0    0    0 -0.00000000000E+00 -0.00000000000E+00 -0.45593999997E+02  0.45594000000E+02  0.51100000000E-03 0.  1.
    9900012    2    1    2    0    0 -0.28947413094E+02  0.66883600840E+01  0.11577310313E+02  0.59301937221E+02  0.49999987587E+02 0.  0.
        -12    1    1    2    0    0  0.28947413094E+02 -0.66883600840E+01 -0.11577310313E+02  0.31886062779E+02  0.00000000000E+00 0.  1.
         11    1    3    3    0    0 -0.11968716518E+02  0.17785749482E+02  0.21170990720E+02  0.30129618452E+02  0.51100000000E-03 0. -1.
        -11    1    3    3    0    0 -0.49496056932E+01  0.22572056560E+01 -0.97876485057E+01  0.11197840748E+02  0.51100000000E-03 0.  1.
         12    1    3    3    0    0 -0.12029090882E+02 -0.13354595054E+02  0.19396809849E+00  0.17974478021E+02  0.00000000000E+00 0. -1.
</event>
<event>
 7    1  0.1139627E-011  0.5930192E+02  0.7816164E-02  0.1266605E+00
        -11   -1    0    0    0    0  0.00000000000E+00  0.00000000000E+00  0.45593999997E+02  0.45594000000E+02  0.51100000000E-03 0.  1.
         11   -1    0    0    0    0 -0.00000000000E+00 -0.00000000000E+00 -0.45593999997E+02  0.45594000000E+02  0.51100000000E-03 0. -1.
    9900012    2    1    2    0    0 -0.88736139749E+01 -0.20371948917E+02 -0.22868416543E+02  0.59301924625E+02  0.49999964614E+02 0.  0.
        -12    1    1    2    0    0  0.88736139749E+01  0.20371948917E+02  0.22868416543E+02  0.31886075375E+02  0.00000000000E+00 0.  1.
         11    1    3    3    0    0 -0.17164782203E+01 -0.64454933354E+01 -0.12051410988E+02  0.13774149298E+02  0.51100000000E-03 0. -1.
        -11    1    3    3    0    0  0.13685653323E+02  0.42200194368E+01  0.29975491400E+01  0.14631847868E+02  0.51100000000E-03 0.  1.
        -12    1    3    3    0    0 -0.20842789078E+02 -0.18146475018E+02 -0.13814554695E+02  0.30895927459E+02  0.00000000000E+00 0.  1.
</event>
<event>
 7    1  0.1139627E-011  0.5930203E+02  0.7816164E-02  0.1266604E+00
        -11   -1    0    0    0    0  0.00000000000E+00  0.00000000000E+00  0.45593999997E+02  0.45594000000E+02  0.51100000000E-03 0.  1.
         11   -1    0    0    0    0 -0.00000000000E+00 -0.00000000000E+00 -0.45593999997E+02  0.45594000000E+02  0.51100000000E-03 0. -1.
    9900012    2    1    2    0    0  0.15745536403E+02  0.80196533419E+01 -0.26542012508E+02  0.59302028409E+02  0.50000153891E+02 0.  0.
        -12    1    1    2    0    0 -0.15745536403E+02 -0.80196533419E+01  0.26542012508E+02  0.31885971591E+02  0.00000000000E+00 0.  1.
         11    1    3    3    0    0  0.13250472201E+02 -0.79566091490E+01 -0.66500765002E+01  0.16825758836E+02  0.51100000000E-03 0. -1.
        -11    1    3    3    0    0  0.79271074108E+01  0.25339186508E+02 -0.12340835284E+02  0.29278142368E+02  0.51100000000E-03 0.  1.
        -12    1    3    3    0    0 -0.54320432091E+01 -0.93629240169E+01 -0.75511007237E+01  0.13198127205E+02  0.00000000000E+00 0.  1.
</event>
<event>
 7    1  0.1139627E-011  0.5930197E+02  0.7816164E-02  0.1266605E+00
        -11   -1    0    0    0    0  0.00000000000E+00  0.00000000000E+00  0.45593999997E+02  0.45594000000E+02  0.51100000000E-03 0.  1.
         11   -1    0    0    0    0 -0.00000000000E+00 -0.00000000000E+00 -0.45593999997E+02  0.45594000000E+02  0.51100000000E-03 0. -1.
    9900012    2    1    2    0    0  0.68452562745E+01  0.87726109040E+01 -0.29881479089E+02  0.59301968136E+02  0.50000043967E+02 0.  0.
        -12    1    1    2    0    0 -0.68452562745E+01 -0.87726109040E+01  0.29881479089E+02  0.31886031864E+02  0.00000000000E+00 0.  1.
         11    1    3    3    0    0  0.86052285936E+01 -0.80221682041E+01 -0.14565287115E+02  0.18723053459E+02  0.51100000000E-03 0. -1.
        -11    1    3    3    0    0 -0.98034609140E+01  0.17658150836E+02  0.31287965231E+01  0.20437893844E+02  0.51100000000E-03 0.  1.
        -12    1    3    3    0    0  0.80434885949E+01 -0.86337172761E+00 -0.18444988497E+02  0.20141020832E+02  0.00000000000E+00 0.  1.
</event>
<event>
 7    1  0.1139627E-011  0.5930195E+02  0.7816164E-02  0.1266605E+00
        -11   -1    0    0    0    0  0.00000000000E+00  0.00000000000E+00  0.45593999997E+02  0.45594000000E+02  0.51100000000E-03 0.  1.
         11   -1    0    0    0    0 -0.00000000000E+00 -0.00000000000E+00 -0.45593999997E+02  0.45594000000E+02  0.51100000000E-03 0. -1.
    9900012    2    1    2    0    0 -0.31474745721E+02  0.51029228509E+01 -0.14438346370E+00  0.59301948403E+02  0.50000007980E+02 0.  0.
        -12    1    1    2    0    0  0.31474745721E+02 -0.51029228509E+01  0.14438346370E+00  0.31886051597E+02  0.00000000000E+00 0.  1.
         11    1    3    3    0    0 -0.13701608719E+02  0.37796347555E+01 -0.15507745498E+02  0.21035919068E+02  0.51100000000E-03 0. -1.
        -11    1    3    3    0    0 -0.13168508883E+01 -0.10509711831E+02  0.14528937646E+02  0.17979937942E+02  0.51100000000E-03 0.  1.
        -12    1    3    3    0    0 -0.16456286114E+02  0.11832999926E+02  0.83442438846E+00  0.20286091393E+02  0.00000000000E+00 0.  1.
</event>
<event>
 7    1  0.1139627E-011  0.5930202E+02  0.7816164E-02  0.1266605E+00
        -11   -1    0    0    0    0  0.00000000000E+00  0.00000000000E+00  0.45593999997E+02  0.45594000000E+02  0.51100000000E-03 0. -1.
         11   -1    0    0    0    0 -0.00000000000E+00 -0.00000000000E+00 -0.45593999997E+02  0.45594000000E+02  0.51100000000E-03 0.  1.
    9900012    2    1    2    0    0 -0.28371995952E+02  0.95449807130E+01  0.10983582823E+02  0.59302017144E+02  0.50000133346E+02 0.  0.
        -12    1    1    2    0    0  0.28371995952E+02 -0.95449807130E+01 -0.10983582823E+02  0.31885982856E+02  0.00000000000E+00 0.  1.
         11    1    3    3    0    0 -0.31548626229E+02  0.18996132986E+02  0.17431146621E+02  0.40743266415E+02  0.51100000000E-03 0. -1.
        -11    1    3    3    0    0  0.53096810970E+01 -0.11764365696E+02 -0.78575400616E+01  0.15110723002E+02  0.51100000000E-03 0.  1.
        -12    1    3    3    0    0 -0.21330508199E+01  0.23132134224E+01  0.14099762637E+01  0.34480277264E+01  0.00000000000E+00 0.  1.
</event>
<event>
 7    1  0.1139627E-011  0.5930190E+02  0.7816164E-02  0.1266605E+00
        -11   -1    0    0    0    0  0.00000000000E+00  0.00000000000E+00  0.45593999997E+02  0.45594000000E+02  0.51100000000E-03 0. -1.
         11   -1    0    0    0    0 -0.00000000000E+00 -0.00000000000E+00 -0.45593999997E+02  0.45594000000E+02  0.51100000000E-03 0.  1.
    9900012    2    1    2    0    0  0.16933688216E+01 -0.17610855193E+02  0.26527605294E+02  0.59301897052E+02  0.49999914327E+02 0.  0.
        -12    1    1    2    0    0 -0.16933688216E+01  0.17610855193E+02 -0.26527605294E+02  0.31886102948E+02  0.00000000000E+00 0.  1.
         11    1    3    3    0    0 -0.14132614078E+02 -0.32705340793E+00  0.14529433002E+02  0.20271708567E+02  0.51100000000E-03 0. -1.
        -11    1    3    3    0    0  0.12167146309E+02  0.34676877535E+00 -0.60006003113E+01  0.13570810670E+02  0.51100000000E-03 0.  1.
         12    1    3    3    0    0  0.36588365907E+01 -0.17630570561E+02  0.17998772603E+02  0.25459377815E+02  0.00000000000E+00 0. -1.
</event>
<event>
 7    1  0.1139627E-011  0.5930195E+02  0.7816164E-02  0.1266605E+00
        -11   -1    0    0    0    0  0.00000000000E+00  0.00000000000E+00  0.45593999997E+02  0.45594000000E+02  0.51100000000E-03 0.  1.
         11   -1    0    0    0    0 -0.00000000000E+00 -0.00000000000E+00 -0.45593999997E+02  0.45594000000E+02  0.51100000000E-03 0. -1.
    9900012    2    1    2    0    0  0.16723815885E+02 -0.22936977854E+02 -0.14523405005E+02  0.59301948758E+02  0.50000008627E+02 0.  0.
        -12    1    1    2    0    0 -0.16723815885E+02  0.22936977854E+02  0.14523405005E+02  0.31886051242E+02  0.00000000000E+00 0.  1.
         11    1    3    3    0    0  0.10847380315E+02 -0.11427245946E+02 -0.73983432671E+01  0.17406409537E+02  0.51100000000E-03 0. -1.
        -11    1    3    3    0    0  0.14659935631E+01 -0.22872049398E+01  0.16201250078E+02  0.16427444960E+02  0.51100000000E-03 0.  1.
        -12    1    3    3    0    0  0.44104420073E+01 -0.92225269679E+01 -0.23326311816E+02  0.25468094261E+02  0.00000000000E+00 0.  1.
</event>
<event>
 7    1  0.1139627E-011  0.5930196E+02  0.7816164E-02  0.1266605E+00
        -11   -1    0    0    0    0  0.00000000000E+00  0.00000000000E+00  0.45593999997E+02  0.45594000000E+02  0.51100000000E-03 0.  1.
         11   -1    0    0    0    0 -0.00000000000E+00 -0.00000000000E+00 -0.45593999997E+02  0.45594000000E+02  0.51100000000E-03 0. -1.
    9900012    2    1    2    0    0 -0.10385114899E+02  0.74414255262E+01 -0.29214626915E+02  0.59301955230E+02  0.50000020430E+02 0.  0.
        -12    1    1    2    0    0  0.10385114899E+02 -0.74414255262E+01  0.29214626915E+02  0.31886044770E+02  0.00000000000E+00 0.  1.
         11    1    3    3    0    0 -0.21282286494E+02 -0.37118774424E+01 -0.17013733799E+02  0.27498743437E+02  0.51100000000E-03 0. -1.
        -11    1    3    3    0    0  0.12001020392E+02 -0.49335705111E+01 -0.33154145767E+01  0.13392407644E+02  0.51100000000E-03 0.  1.
         12    1    3    3    0    0 -0.11038487963E+01  0.16086873480E+02 -0.88854785388E+01  0.18410804148E+02  0.00000000000E+00 0. -1.
</event>
<event>
 7    1  0.1139627E-011  0.5930193E+02  0.7816164E-02  0.1266605E+00
        -11   -1    0    0    0    0  0.00000000000E+00  0.00000000000E+00  0.45593999997E+02  0.45594000000E+02  0.51100000000E-03 0.  1.
         11   -1    0    0    0    0 -0.00000000000E+00 -0.00000000000E+00 -0.45593999997E+02  0.45594000000E+02  0.51100000000E-03 0. -1.
    9900012    2    1    2    0    0  0.92081379075E+01 -0.17858447770E+02 -0.24758993762E+02  0.59301925727E+02  0.49999966623E+02 0.  0.
        -12    1    1    2    0    0 -0.92081379075E+01  0.17858447770E+02  0.24758993762E+02  0.31886074273E+02  0.00000000000E+00 0.  1.
         11    1    3    3    0    0  0.15380268750E+02  0.45203129654E+01  0.70013266225E+00  0.16046061266E+02  0.51100000000E-03 0. -1.
        -11    1    3    3    0    0 -0.80108307259E+01 -0.17464263146E+02 -0.21157756338E+01  0.19330038876E+02  0.51100000000E-03 0.  1.
        -12    1    3    3    0    0  0.18386998829E+01 -0.49144975894E+01 -0.23343350790E+02  0.23925825585E+02  0.00000000000E+00 0.  1.
</event>
<event>
 7    1  0.1139627E-011  0.5930192E+02  0.7816164E-02  0.1266605E+00
        -11   -1    0    0    0    0  0.00000000000E+00  0.00000000000E+00  0.45593999997E+02  0.45594000000E+02  0.51100000000E-03 0. -1.
         11   -1    0    0    0    0 -0.00000000000E+00 -0.00000000000E+00 -0.45593999997E+02  0.45594000000E+02  0.51100000000E-03 0.  1.
    9900012    2    1    2    0    0 -0.56877081888E+01  0.31363487916E+02 -0.83875339255E+00  0.59301923008E+02  0.49999961665E+02 0.  0.
        -12    1    1    2    0    0  0.56877081888E+01 -0.31363487916E+02  0.83875339255E+00  0.31886076992E+02  0.00000000000E+00 0.  1.
         11    1    3    3    0    0 -0.10407203700E+02  0.19764978568E+02 -0.16708834263E+02  0.27895329526E+02  0.51100000000E-03 0. -1.
        -11    1    3    3    0    0  0.93511265800E+01  0.10704596176E+01 -0.24948209518E+01  0.97372267073E+01  0.51100000000E-03 0.  1.
         12    1    3    3    0    0 -0.46316310691E+01  0.10528049730E+02  0.18364901823E+02  0.21669366775E+02  0.00000000000E+00 0. -1.
</event>
<event>
 7    1  0.1139627E-011  0.5930197E+02  0.7816164E-02  0.1266605E+00
        -11   -1    0    0    0    0  0.00000000000E+00  0.00000000000E+00  0.45593999997E+02  0.45594000000E+02  0.51100000000E-03 0.  1.
         11   -1    0    0    0    0 -0.00000000000E+00 -0.00000000000E+00 -0.45593999997E+02  0.45594000000E+02  0.51100000000E-03 0. -1.
    9900012    2    1    2    0    0  0.10566577133E+02  0.75092409861E+01 -0.29132075508E+02  0.59301967386E+02  0.50000042600E+02 0.  0.
        -12    1    1    2    0    0 -0.10566577133E+02 -0.75092409861E+01  0.29132075508E+02  0.31886032614E+02  0.00000000000E+00 0.  1.
         11    1    3    3    0    0  0.11731706218E+02  0.14681679984E+02 -0.12478264348E+02  0.22558628932E+02  0.51100000000E-03 0. -1.
        -11    1    3    3    0    0 -0.13352470918E+02  0.44560885755E+00  0.16606923824E+01  0.13462724328E+02  0.51100000000E-03 0.  1.
        -12    1    3    3    0    0  0.12187341833E+02 -0.76180478550E+01 -0.18314503542E+02  0.23280614126E+02  0.00000000000E+00 0.  1.
</event>
<event>
 7    1  0.1139627E-011  0.5930186E+02  0.7816164E-02  0.1266605E+00
        -11   -1    0    0    0    0  0.00000000000E+00  0.00000000000E+00  0.45593999997E+02  0.45594000000E+02  0.51100000000E-03 0.  1.
         11   -1    0    0    0    0 -0.00000000000E+00 -0.00000000000E+00 -0.45593999997E+02  0.45594000000E+02  0.51100000000E-03 0. -1.
    9900012    2    1    2    0    0 -0.74179491981E+01  0.34247860561E+01 -0.30821592311E+02  0.59301863790E+02  0.49999853665E+02 0.  0.
        -12    1    1    2    0    0  0.74179491981E+01 -0.34247860561E+01  0.30821592311E+02  0.31886136210E+02  0.00000000000E+00 0.  1.
         11    1    3    3    0    0  0.10936859041E+02  0.60217633093E+01 -0.26532594994E+02  0.29323286248E+02  0.51100000000E-03 0. -1.
        -11    1    3    3    0    0 -0.99370242566E+01 -0.13842014522E+01  0.94744656804E+01  0.13799491474E+02  0.51100000000E-03 0.  1.
        -12    1    3    3    0    0 -0.84177839822E+01 -0.12127758009E+01 -0.13763462997E+02  0.16179086068E+02  0.00000000000E+00 0.  1.
</event>
<event>
 7    1  0.1139627E-011  0.5930194E+02  0.7816164E-02  0.1266605E+00
        -11   -1    0    0    0    0  0.00000000000E+00  0.00000000000E+00  0.45593999997E+02  0.45594000000E+02  0.51100000000E-03 0. -1.
         11   -1    0    0    0    0 -0.00000000000E+00 -0.00000000000E+00 -0.45593999997E+02  0.45594000000E+02  0.51100000000E-03 0.  1.
    9900012    2    1    2    0    0 -0.48226562870E+01 -0.39657590557E+01  0.31268761688E+02  0.59301941667E+02  0.49999995694E+02 0.  0.
        -12    1    1    2    0    0  0.48226562870E+01  0.39657590557E+01 -0.31268761688E+02  0.31886058333E+02  0.00000000000E+00 0.  1.
         11    1    3    3    0    0 -0.10697951875E+02  0.22219610866E+01  0.12197473381E+02  0.16375641744E+02  0.51100000000E-03 0. -1.
        -11    1    3    3    0    0  0.12745481616E+02 -0.13615174420E+02 -0.27708246873E+01  0.18854647857E+02  0.51100000000E-03 0.  1.
        -12    1    3    3    0    0 -0.68701860281E+01  0.74274542775E+01  0.21842112994E+02  0.24071652065E+02  0.00000000000E+00 0.  1.
</event>
<event>
 7    1  0.1139627E-011  0.5930194E+02  0.7816164E-02  0.1266605E+00
        -11   -1    0    0    0    0  0.00000000000E+00  0.00000000000E+00  0.45593999997E+02  0.45594000000E+02  0.51100000000E-03 0.  1.
         11   -1    0    0    0    0 -0.00000000000E+00 -0.00000000000E+00 -0.45593999997E+02  0.45594000000E+02  0.51100000000E-03 0. -1.
    9900012    2    1    2    0    0  0.30317724040E+02  0.73885478019E+01 -0.65548291074E+01  0.59301940127E+02  0.49999992887E+02 0.  0.
        -12    1    1    2    0    0 -0.30317724040E+02 -0.73885478019E+01  0.65548291074E+01  0.31886059873E+02  0.00000000000E+00 0.  1.
         11    1    3    3    0    0 -0.34218733328E+01  0.24548669788E+01 -0.15357332764E+02  0.15924297751E+02  0.51100000000E-03 0. -1.
        -11    1    3    3    0    0  0.15228438874E+02  0.11822895035E+02  0.12911371719E+02  0.23203226445E+02  0.51100000000E-03 0.  1.
         12    1    3    3    0    0  0.18511158498E+02 -0.68892142120E+01 -0.41088680624E+01  0.20174415931E+02  0.00000000000E+00 0. -1.
</event>
<event>
 7    1  0.1139627E-011  0.5930197E+02  0.7816164E-02  0.1266605E+00
        -11   -1    0    0    0    0  0.00000000000E+00  0.00000000000E+00  0.45593999997E+02  0.45594000000E+02  0.51100000000E-03 0.  1.
         11   -1    0    0    0    0 -0.00000000000E+00 -0.00000000000E+00 -0.45593999997E+02  0.45594000000E+02  0.51100000000E-03 0. -1.
    9900012    2    1    2    0    0  0.29194842061E+02 -0.11981391764E+02 -0.45636195601E+01  0.59301965830E+02  0.50000039762E+02 0.  0.
        -12    1    1    2    0    0 -0.29194842061E+02  0.11981391764E+02  0.45636195601E+01  0.31886034170E+02  0.00000000000E+00 0.  1.
         11    1    3    3    0    0  0.13545087669E+01 -0.27826834598E+01 -0.33106714834E+01  0.45319495992E+01  0.51100000000E-03 0. -1.
        -11    1    3    3    0    0 -0.21578642719E+01  0.14427451791E+02  0.62236001058E+01  0.15860042306E+02  0.51100000000E-03 0.  1.
        -12    1    3    3    0    0  0.29998197566E+02 -0.23626160096E+02 -0.74765481824E+01  0.38909973925E+02  0.00000000000E+00 0.  1.
</event>
<event>
 7    1  0.1139627E-011  0.5930194E+02  0.7816164E-02  0.1266605E+00
        -11   -1    0    0    0    0  0.00000000000E+00  0.00000000000E+00  0.45593999997E+02  0.45594000000E+02  0.51100000000E-03 0.  1.
         11   -1    0    0    0    0 -0.00000000000E+00 -0.00000000000E+00 -0.45593999997E+02  0.45594000000E+02  0.51100000000E-03 0. -1.
    9900012    2    1    2    0    0 -0.18186755839E+02 -0.60258670460E+01 -0.25488268242E+02  0.59301937534E+02  0.49999988157E+02 0.  0.
        -12    1    1    2    0    0  0.18186755839E+02  0.60258670460E+01  0.25488268242E+02  0.31886062466E+02  0.00000000000E+00 0.  1.
         11    1    3    3    0    0 -0.12567544141E+02  0.69999010040E+01 -0.21371061745E+02  0.25761678132E+02  0.51100000000E-03 0. -1.
        -11    1    3    3    0    0  0.40224953198E+01 -0.79936230343E+01  0.11461268050E+02  0.14540947128E+02  0.51100000000E-03 0.  1.
        -12    1    3    3    0    0 -0.96417070174E+01 -0.50321450157E+01 -0.15578474547E+02  0.18999312274E+02  0.00000000000E+00 0.  1.
</event>
<event>
 7    1  0.1139627E-011  0.5930193E+02  0.7816164E-02  0.1266605E+00
        -11   -1    0    0    0    0  0.00000000000E+00  0.00000000000E+00  0.45593999997E+02  0.45594000000E+02  0.51100000000E-03 0. -1.
         11   -1    0    0    0    0 -0.00000000000E+00 -0.00000000000E+00 -0.45593999997E+02  0.45594000000E+02  0.51100000000E-03 0.  1.
    9900012    2    1    2    0    0  0.12186219048E+02  0.23890138120E+01  0.29368521685E+02  0.59301931135E+02  0.49999976487E+02 0.  0.
        -12    1    1    2    0    0 -0.12186219048E+02 -0.23890138120E+01 -0.29368521685E+02  0.31886068865E+02  0.00000000000E+00 0.  1.
         11    1    3    3    0    0  0.52316687871E+01 -0.14663754353E+02  0.19180798494E+02  0.24704232049E+02  0.51100000000E-03 0. -1.
        -11    1    3    3    0    0  0.23483506097E+01  0.23133307473E+02  0.12790149280E+02  0.26537757706E+02  0.51100000000E-03 0.  1.
        -12    1    3    3    0    0  0.46061996509E+01 -0.60805393076E+01 -0.26024260885E+01  0.80599413795E+01  0.00000000000E+00 0.  1.
</event>
<event>
 7    1  0.1139627E-011  0.5930212E+02  0.7816164E-02  0.1266604E+00
        -11   -1    0    0    0    0  0.00000000000E+00  0.00000000000E+00  0.45593999997E+02  0.45594000000E+02  0.51100000000E-03 0. -1.
         11   -1    0    0    0    0 -0.00000000000E+00 -0.00000000000E+00 -0.45593999997E+02  0.45594000000E+02  0.51100000000E-03 0.  1.
    9900012    2    1    2    0    0 -0.31037977708E+00 -0.30895326453E+02 -0.78798170025E+01  0.59302124628E+02  0.50000329371E+02 0.  0.
        -12    1    1    2    0    0  0.31037977708E+00  0.30895326453E+02  0.78798170025E+01  0.31885875372E+02  0.00000000000E+00 0.  1.
         11    1    3    3    0    0 -0.83016210344E+01 -0.37354575231E+02 -0.88106005458E+01  0.39267134919E+02  0.51100000000E-03 0. -1.
        -11    1    3    3    0    0  0.10954618532E+02  0.10375121275E+02  0.10314937224E+01  0.15123187105E+02  0.51100000000E-03 0.  1.
        -12    1    3    3    0    0 -0.29633772745E+01 -0.39158724971E+01 -0.10071017917E+00  0.49118026044E+01  0.00000000000E+00 0.  1.
</event>
<event>
 7    1  0.1139627E-011  0.5930194E+02  0.7816164E-02  0.1266605E+00
        -11   -1    0    0    0    0  0.00000000000E+00  0.00000000000E+00  0.45593999997E+02  0.45594000000E+02  0.51100000000E-03 0. -1.
         11   -1    0    0    0    0 -0.00000000000E+00 -0.00000000000E+00 -0.45593999997E+02  0.45594000000E+02  0.51100000000E-03 0.  1.
    9900012    2    1    2    0    0 -0.20430687031E+02  0.28944858099E+01  0.24309053910E+02  0.59301935291E+02  0.49999984065E+02 0.  0.
        -12    1    1    2    0    0  0.20430687031E+02 -0.28944858099E+01 -0.24309053910E+02  0.31886064709E+02  0.00000000000E+00 0.  1.
         11    1    3    3    0    0 -0.50710708979E+01 -0.24044811188E+01  0.22325127314E+02  0.23019743685E+02  0.51100000000E-03 0. -1.
        -11    1    3    3    0    0  0.33594872217E+01 -0.75189050660E+01 -0.80128891389E+01  0.11490277647E+02  0.51100000000E-03 0.  1.
        -12    1    3    3    0    0 -0.18719103355E+02  0.12817871995E+02  0.99968157350E+01  0.24791913958E+02  0.00000000000E+00 0.  1.
</event>
<event>
 7    1  0.1139627E-011  0.5930192E+02  0.7816164E-02  0.1266605E+00
        -11   -1    0    0    0    0  0.00000000000E+00  0.00000000000E+00  0.45593999997E+02  0.45594000000E+02  0.51100000000E-03 0. -1.
         11   -1    0    0    0    0 -0.00000000000E+00 -0.00000000000E+00 -0.45593999997E+02  0.45594000000E+02  0.51100000000E-03 0.  1.
    9900012    2    1    2    0    0 -0.17721836971E+02  0.50385760828E+01  0.26024435746E+02  0.59301921369E+02  0.49999958676E+02 0.  0.
        -12    1    1    2    0    0  0.17721836971E+02 -0.50385760828E+01 -0.26024435746E+02  0.31886078631E+02  0.00000000000E+00 0.  1.
         11    1    3    3    0    0 -0.25359008581E+02  0.70181403207E+01  0.53373403017E+01  0.26848106293E+02  0.51100000000E-03 0. -1.
        -11    1    3    3    0    0  0.38403784913E+01 -0.11285569008E+02  0.32977377913E+01  0.12368817631E+02  0.51100000000E-03 0.  1.
         12    1    3    3    0    0  0.37967931187E+01  0.93060047700E+01  0.17389357653E+02  0.20084997444E+02  0.00000000000E+00 0. -1.
</event>
<event>
 7    1  0.1139627E-011  0.5930188E+02  0.7816164E-02  0.1266605E+00
        -11   -1    0    0    0    0  0.00000000000E+00  0.00000000000E+00  0.45593999997E+02  0.45594000000E+02  0.51100000000E-03 0.  1.
         11   -1    0    0    0    0 -0.00000000000E+00 -0.00000000000E+00 -0.45593999997E+02  0.45594000000E+02  0.51100000000E-03 0. -1.
    9900012    2    1    2    0    0 -0.25796522092E+01 -0.15090819474E+02 -0.27970290936E+02  0.59301880560E+02  0.49999884249E+02 0.  0.
        -12    1    1    2    0    0  0.25796522092E+01  0.15090819474E+02  0.27970290936E+02  0.31886119440E+02  0.00000000000E+00 0.  1.
         11    1    3    3    0    0  0.91106628931E+01 -0.16848128246E+02  0.13568144049E+01  0.19201680899E+02  0.51100000000E-03 0. -1.
        -11    1    3    3    0    0 -0.14911158462E+02  0.56062487744E+01 -0.30963707842E+02  0.34821313525E+02  0.51100000000E-03 0.  1.
        -12    1    3    3    0    0  0.32208433593E+01 -0.38489400022E+01  0.16366025015E+01  0.52788861357E+01  0.00000000000E+00 0.  1.
</event>
<event>
 7    1  0.1139627E-011  0.5930192E+02  0.7816164E-02  0.1266605E+00
        -11   -1    0    0    0    0  0.00000000000E+00  0.00000000000E+00  0.45593999997E+02  0.45594000000E+02  0.51100000000E-03 0.  1.
         11   -1    0    0    0    0 -0.00000000000E+00 -0.00000000000E+00 -0.45593999997E+02  0.45594000000E+02  0.51100000000E-03 0. -1.
    9900012    2    1    2    0    0 -0.10981219866E+02  0.29438183672E+02  0.54339824540E+01  0.59301921330E+02  0.49999958604E+02 0.  0.
        -12    1    1    2    0    0  0.10981219866E+02 -0.29438183672E+02 -0.54339824540E+01  0.31886078670E+02  0.00000000000E+00 0.  1.
         11    1    3    3    0    0 -0.18694904579E+02  0.21551438134E+02  0.51000651189E+01  0.28982315424E+02  0.51100000000E-03 0. -1.
        -11    1    3    3    0    0  0.12325279927E+02  0.15776422884E+02 -0.36503191559E+01  0.20350254901E+02  0.51100000000E-03 0.  1.
        -12    1    3    3    0    0 -0.46115952137E+01 -0.78896773461E+01  0.39842364910E+01  0.99693510048E+01  0.00000000000E+00 0.  1.
</event>
<event>
 7    1  0.1139627E-011  0.5930208E+02  0.7816164E-02  0.1266604E+00
        -11   -1    0    0    0    0  0.00000000000E+00  0.00000000000E+00  0.45593999997E+02  0.45594000000E+02  0.51100000000E-03 0.  1.
         11   -1    0    0    0    0 -0.00000000000E+00 -0.00000000000E+00 -0.45593999997E+02  0.45594000000E+02  0.51100000000E-03 0. -1.
    9900012    2    1    2    0    0 -0.18619779714E+02  0.45685386142E+01 -0.25478306759E+02  0.59302080585E+02  0.50000249046E+02 0.  0.
        -12    1    1    2    0    0  0.18619779714E+02 -0.45685386142E+01  0.25478306759E+02  0.31885919415E+02  0.00000000000E+00 0.  1.
         11    1    3    3    0    0  0.65526681148E+01  0.71610815583E+01 -0.74329979575E+01  0.12225710916E+02  0.51100000000E-03 0. -1.
        -11    1    3    3    0    0 -0.82299976963E+01 -0.16272297513E+02 -0.17529782236E+02  0.25294540793E+02  0.51100000000E-03 0.  1.
        -12    1    3    3    0    0 -0.16942450132E+02  0.13679754568E+02 -0.51552656552E+00  0.21781828876E+02  0.00000000000E+00 0.  1.
</event>
<event>
 7    1  0.1139627E-011  0.5930190E+02  0.7816164E-02  0.1266605E+00
        -11   -1    0    0    0    0  0.00000000000E+00  0.00000000000E+00  0.45593999997E+02  0.45594000000E+02  0.51100000000E-03 0. -1.
         11   -1    0    0    0    0 -0.00000000000E+00 -0.00000000000E+00 -0.45593999997E+02  0.45594000000E+02  0.51100000000E-03 0.  1.
    9900012    2    1    2    0    0  0.81472548689E+01  0.30499995016E+02 -0.44828374557E+01  0.59301901312E+02  0.49999922096E+02 0.  0.
        -12    1    1    2    0    0 -0.81472548689E+01 -0.30499995016E+02  0.44828374557E+01  0.31886098688E+02  0.00000000000E+00 0.  1.
         11    1    3    3    0    0  0.40982432877E+00  0.24873385692E+02 -0.28627584220E+00  0.24878408829E+02  0.51100000000E-03 0. -1.
        -11    1    3    3    0    0  0.19168267714E+02 -0.10228990150E-01  0.35707769351E+01  0.19498026566E+02  0.51100000000E-03 0.  1.
        -12    1    3    3    0    0 -0.11430837174E+02  0.56368383150E+01 -0.77673385486E+01  0.14925465916E+02  0.00000000000E+00 0.  1.
</event>
<event>
 7    1  0.1139627E-011  0.5930194E+02  0.7816164E-02  0.1266605E+00
        -11   -1    0    0    0    0  0.00000000000E+00  0.00000000000E+00  0.45593999997E+02  0.45594000000E+02  0.51100000000E-03 0. -1.
         11   -1    0    0    0    0 -0.00000000000E+00 -0.00000000000E+00 -0.45593999997E+02  0.45594000000E+02  0.51100000000E-03 0.  1.
    9900012    2    1    2    0    0 -0.14420781851E+02  0.95500174001E+00  0.28422701584E+02  0.59301938110E+02  0.49999989208E+02 0.  0.
        -12    1    1    2    0    0  0.14420781851E+02 -0.95500174001E+00 -0.28422701584E+02  0.31886061890E+02  0.00000000000E+00 0.  1.
         11    1    3    3    0    0 -0.20345355770E+02 -0.14065165966E+02  0.10748193650E+02  0.26968241731E+02  0.51100000000E-03 0. -1.
        -11    1    3    3    0    0  0.56840341719E+01  0.15551548319E+02  0.22242383143E+02  0.27728730727E+02  0.51100000000E-03 0.  1.
        -12    1    3    3    0    0  0.24053974696E+00 -0.53138061318E+00 -0.45678752097E+01  0.46049656522E+01  0.00000000000E+00 0.  1.
</event>
<event>
 7    1  0.1139627E-011  0.5930194E+02  0.7816164E-02  0.1266605E+00
        -11   -1    0    0    0    0  0.00000000000E+00  0.00000000000E+00  0.45593999997E+02  0.45594000000E+02  0.51100000000E-03 0.  1.
         11   -1    0    0    0    0 -0.00000000000E+00 -0.00000000000E+00 -0.45593999997E+02  0.45594000000E+02  0.51100000000E-03 0. -1.
    9900012    2    1    2    0    0  0.17564863146E+02  0.64688898902E+01 -0.25813748218E+02  0.59301944258E+02  0.50000000419E+02 0.  0.
        -12    1    1    2    0    0 -0.17564863146E+02 -0.64688898902E+01  0.25813748218E+02  0.31886055742E+02  0.00000000000E+00 0.  1.
         11    1    3    3    0    0  0.17436151496E+02  0.18596202372E+02 -0.27182430650E+02  0.37265569336E+02  0.51100000000E-03 0. -1.
        -11    1    3    3    0    0 -0.56808985779E+01 -0.10910721304E+02 -0.50469072084E+01  0.13296154356E+02  0.51100000000E-03 0.  1.
        -12    1    3    3    0    0  0.58096102280E+01 -0.12165911784E+01  0.64155896407E+01  0.87402205655E+01  0.00000000000E+00 0.  1.
</event>
<event>
 7    1  0.1139627E-011  0.5930191E+02  0.7816164E-02  0.1266605E+00
        -11   -1    0    0    0    0  0.00000000000E+00  0.00000000000E+00  0.45593999997E+02  0.45594000000E+02  0.51100000000E-03 0. -1.
         11   -1    0    0    0    0 -0.00000000000E+00 -0.00000000000E+00 -0.45593999997E+02  0.45594000000E+02  0.51100000000E-03 0.  1.
    9900012    2    1    2    0    0  0.15968657654E+02 -0.27504840221E+02  0.22821746148E+01  0.59301912378E+02  0.49999942279E+02 0.  0.
        -12    1    1    2    0    0 -0.15968657654E+02  0.27504840221E+02 -0.22821746148E+01  0.31886087622E+02  0.00000000000E+00 0.  1.
         11    1    3    3    0    0  0.10618565955E+02 -0.44633752826E+01  0.24550051824E+01  0.11777211578E+02  0.51100000000E-03 0. -1.
        -11    1    3    3    0    0  0.13595406077E+01 -0.16642438858E+02 -0.20151183038E+02  0.26170389755E+02  0.51100000000E-03 0.  1.
        -12    1    3    3    0    0  0.39905510919E+01 -0.63990260798E+01  0.19978352471E+02  0.21354311046E+02  0.00000000000E+00 0.  1.
</event>
<event>
 7    1  0.1308394E-011  0.5930194E+02  0.7816164E-02  0.1266605E+00
        -11   -1    0    0    0    0  0.00000000000E+00  0.00000000000E+00  0.45593999997E+02  0.45594000000E+02  0.51100000000E-03 0.  1.
         11   -1    0    0    0    0 -0.00000000000E+00 -0.00000000000E+00 -0.45593999997E+02  0.45594000000E+02  0.51100000000E-03 0. -1.
    9900012    2    1    2    0    0 -0.23035728575E+02 -0.15388306371E+02 -0.15788479367E+02  0.59301939649E+02  0.49999992015E+02 0.  0.
        -12    1    1    2    0    0  0.23035728575E+02  0.15388306371E+02  0.15788479367E+02  0.31886060351E+02  0.00000000000E+00 0.  1.
         11    1    3    3    0    0 -0.25288852150E+02 -0.47400609039E+01 -0.40038675083E+01  0.26038916562E+02  0.51100000000E-03 0. -1.
        -11    1    3    3    0    0  0.74728049484E+01  0.33048126708E+01  0.59454749133E+01  0.10105111221E+02  0.51100000000E-03 0.  1.
         12    1    3    3    0    0 -0.52196813736E+01 -0.13953058138E+02 -0.17730086772E+02  0.23157911866E+02  0.00000000000E+00 0. -1.
</event>
<event>
 7    1  0.1139627E-011  0.5930193E+02  0.7816164E-02  0.1266605E+00
        -11   -1    0    0    0    0  0.00000000000E+00  0.00000000000E+00  0.45593999997E+02  0.45594000000E+02  0.51100000000E-03 0.  1.
         11   -1    0    0    0    0 -0.00000000000E+00 -0.00000000000E+00 -0.45593999997E+02  0.45594000000E+02  0.51100000000E-03 0. -1.
    9900012    2    1    2    0    0 -0.13609506954E+01 -0.57067708839E+01 -0.31341697131E+02  0.59301930945E+02  0.49999976141E+02 0.  0.
        -12    1    1    2    0    0  0.13609506954E+01  0.57067708839E+01  0.31341697131E+02  0.31886069055E+02  0.00000000000E+00 0.  1.
         11    1    3    3    0    0 -0.10715111882E+02 -0.66865967481E+01 -0.21522536969E+02  0.24954835134E+02  0.51100000000E-03 0. -1.
        -11    1    3    3    0    0  0.64195539475E+01 -0.10000003562E+02  0.71909033173E+01  0.13889558485E+02  0.51100000000E-03 0.  1.
        -12    1    3    3    0    0  0.29346072390E+01  0.10979829427E+02 -0.17010063479E+02  0.20457537326E+02  0.00000000000E+00 0.  1.
</event>
<event>
 7    1  0.1139627E-011  0.5930192E+02  0.7816164E-02  0.1266605E+00
        -11   -1    0    0    0    0  0.00000000000E+00  0.00000000000E+00  0.45593999997E+02  0.45594000000E+02  0.51100000000E-03 0.  1.
         11   -1    0    0    0    0 -0.00000000000E+00 -0.00000000000E+00 -0.45593999997E+02  0.45594000000E+02  0.51100000000E-03 0. -1.
    9900012    2    1    2    0    0  0.23586786330E+02  0.12175489767E+02 -0.17667572607E+02  0.59301918989E+02  0.49999954335E+02 0.  0.
        -12    1    1    2    0    0 -0.23586786330E+02 -0.12175489767E+02  0.17667572607E+02  0.31886081011E+02  0.00000000000E+00 0.  1.
         11    1    3    3    0    0  0.15755843742E+02  0.12781690298E+02 -0.94030164801E+01  0.22361461001E+02  0.51100000000E-03 0. -1.
        -11    1    3    3    0    0  0.18473057594E+02 -0.77156529120E+01  0.25543874405E+01  0.20181923897E+02  0.51100000000E-03 0.  1.
        -12    1    3    3    0    0 -0.10642115007E+02  0.71094523802E+01 -0.10818943567E+02  0.16758534091E+02  0.00000000000E+00 0.  1.
</event>
<event>
 7    1  0.1139627E-011  0.5930189E+02  0.7816164E-02  0.1266605E+00
        -11   -1    0    0    0    0  0.00000000000E+00  0.00000000000E+00  0.45593999997E+02  0.45594000000E+02  0.51100000000E-03 0.  1.
         11   -1    0    0    0    0 -0.00000000000E+00 -0.00000000000E+00 -0.45593999997E+02  0.45594000000E+02  0.51100000000E-03 0. -1.
    9900012    2    1    2    0    0  0.22154745764E+02  0.22778104863E+02  0.26550890202E+01  0.59301885173E+02  0.49999892664E+02 0.  0.
        -12    1    1    2    0    0 -0.22154745764E+02 -0.22778104863E+02 -0.26550890202E+01  0.31886114827E+02  0.00000000000E+00 0.  1.
         11    1    3    3    0    0  0.34134364159E+02  0.19251963870E+02  0.64772717932E+01  0.39720875866E+02  0.51100000000E-03 0. -1.
        -11    1    3    3    0    0 -0.57009124567E+01  0.24795954378E+01 -0.92977174780E+01  0.11184647824E+02  0.51100000000E-03 0.  1.
         12    1    3    3    0    0 -0.62787059386E+01  0.10465455554E+01  0.54755347050E+01  0.83963614839E+01  0.00000000000E+00 0. -1.
</event>
<event>
 7    1  0.1139627E-011  0.5930193E+02  0.7816164E-02  0.1266605E+00
        -11   -1    0    0    0    0  0.00000000000E+00  0.00000000000E+00  0.45593999997E+02  0.45594000000E+02  0.51100000000E-03 0.  1.
         11   -1    0    0    0    0 -0.00000000000E+00 -0.00000000000E+00 -0.45593999997E+02  0.45594000000E+02  0.51100000000E-03 0. -1.
    9900012    2    1    2    0    0 -0.22872266889E+02 -0.21277747466E+02  0.63904925464E+01  0.59301928984E+02  0.49999972564E+02 0.  0.
        -12    1    1    2    0    0  0.22872266889E+02  0.21277747466E+02 -0.63904925464E+01  0.31886071016E+02  0.00000000000E+00 0.  1.
         11    1    3    3    0    0  0.94473819901E+01 -0.17100778141E+02 -0.43180018064E+01  0.20008367733E+02  0.51100000000E-03 0. -1.
        -11    1    3    3    0    0 -0.24372882209E+02 -0.80289274345E+01  0.32610328667E+00  0.25663347532E+02  0.51100000000E-03 0.  1.
        -12    1    3    3    0    0 -0.79467666697E+01  0.38519581089E+01  0.10382391066E+02  0.13630213719E+02  0.00000000000E+00 0.  1.
</event>
<event>
 7    1  0.1139627E-011  0.5930221E+02  0.7816164E-02  0.1266604E+00
        -11   -1    0    0    0    0  0.00000000000E+00  0.00000000000E+00  0.45593999997E+02  0.45594000000E+02  0.51100000000E-03 0.  1.
         11   -1    0    0    0    0 -0.00000000000E+00 -0.00000000000E+00 -0.45593999997E+02  0.45594000000E+02  0.51100000000E-03 0. -1.
    9900012    2    1    2    0    0  0.21687688756E+02  0.39085760755E+01 -0.23044977283E+02  0.59302207106E+02  0.50000479790E+02 0.  0.
        -12    1    1    2    0    0 -0.21687688756E+02 -0.39085760755E+01  0.23044977283E+02  0.31885792894E+02  0.00000000000E+00 0.  1.
         11    1    3    3    0    0  0.89741865990E+01 -0.40129431989E+01 -0.32394929559E+02  0.33853673355E+02  0.51100000000E-03 0. -1.
        -11    1    3    3    0    0 -0.41941716162E+00 -0.47299582128E+01  0.45849169130E+01  0.66007483523E+01  0.51100000000E-03 0.  1.
         12    1    3    3    0    0  0.13132919318E+02  0.12651477487E+02  0.47650353631E+01  0.18847785399E+02  0.00000000000E+00 0. -1.
</event>
<event>
 7    1  0.1139627E-011  0.5930195E+02  0.7816164E-02  0.1266605E+00
        -11   -1    0    0    0    0  0.00000000000E+00  0.00000000000E+00  0.45593999997E+02  0.45594000000E+02  0.51100000000E-03 0. -1.
         11   -1    0    0    0    0 -0.00000000000E+00 -0.00000000000E+00 -0.45593999997E+02  0.45594000000E+02  0.51100000000E-03 0.  1.
    9900012    2    1    2    0    0  0.31217625041E+02 -0.95815314922E+00  0.64235604132E+01  0.59301948205E+02  0.50000007619E+02 0.  0.
        -12    1    1    2    0    0 -0.31217625041E+02  0.95815314922E+00 -0.64235604132E+01  0.31886051795E+02  0.00000000000E+00 0.  1.
         11    1    3    3    0    0  0.17604270908E+02 -0.97731179584E+01  0.42096112397E+01  0.20570488956E+02  0.51100000000E-03 0. -1.
        -11    1    3    3    0    0 -0.10785852750E+02  0.22156670643E+01 -0.54950619723E+01  0.12306075996E+02  0.51100000000E-03 0.  1.
        -12    1    3    3    0    0  0.24399206883E+02  0.65992977449E+01  0.77090111459E+01  0.26425383254E+02  0.00000000000E+00 0.  1.
</event>
<event>
 7    1  0.1139627E-011  0.5930193E+02  0.7816164E-02  0.1266605E+00
        -11   -1    0    0    0    0  0.00000000000E+00  0.00000000000E+00  0.45593999997E+02  0.45594000000E+02  0.51100000000E-03 0.  1.
         11   -1    0    0    0    0 -0.00000000000E+00 -0.00000000000E+00 -0.45593999997E+02  0.45594000000E+02  0.51100000000E-03 0. -1.
    9900012    2    1    2    0    0  0.27135195154E+02 -0.14505091421E+02 -0.83668852202E+01  0.59301933114E+02  0.49999980096E+02 0.  0.
        -12    1    1    2    0    0 -0.27135195154E+02  0.14505091421E+02  0.83668852202E+01  0.31886066886E+02  0.00000000000E+00 0.  1.
         11    1    3    3    0    0  0.88263820413E+01 -0.29365676151E+02 -0.30550009024E+01  0.30815271969E+02  0.51100000000E-03 0.  1.
        -11    1    3    3    0    0  0.76224371840E+01  0.94029608115E+01 -0.99027225626E+01  0.15639089969E+02  0.51100000000E-03 0. -1.
        -12    1    3    3    0    0  0.10686375929E+02  0.54576239185E+01  0.45908382448E+01  0.12847571176E+02  0.00000000000E+00 0.  1.
</event>
<event>
 7    1  0.1139627E-011  0.5930196E+02  0.7816164E-02  0.1266605E+00
        -11   -1    0    0    0    0  0.00000000000E+00  0.00000000000E+00  0.45593999997E+02  0.45594000000E+02  0.51100000000E-03 0. -1.
         11   -1    0    0    0    0 -0.00000000000E+00 -0.00000000000E+00 -0.45593999997E+02  0.45594000000E+02  0.51100000000E-03 0.  1.
    9900012    2    1    2    0    0 -0.46904709115E+00 -0.14509147446E+02  0.28389865459E+02  0.59301955630E+02  0.50000021160E+02 0.  0.
        -12    1    1    2    0    0  0.46904709115E+00  0.14509147446E+02 -0.28389865459E+02  0.31886044370E+02  0.00000000000E+00 0.  1.
         11    1    3    3    0    0  0.40783866684E+01 -0.11751854605E+02 -0.92935245055E+01  0.15527682457E+02  0.51100000000E-03 0. -1.
        -11    1    3    3    0    0 -0.86508051579E+01  0.49403032367E+01  0.78251237438E+01  0.12667895951E+02  0.51100000000E-03 0.  1.
         12    1    3    3    0    0  0.41033713984E+01 -0.76975960776E+01  0.29858266221E+02  0.31106377223E+02  0.00000000000E+00 0. -1.
</event>
<event>
 7    1  0.1139627E-011  0.5930194E+02  0.7816164E-02  0.1266605E+00
        -11   -1    0    0    0    0  0.00000000000E+00  0.00000000000E+00  0.45593999997E+02  0.45594000000E+02  0.51100000000E-03 0.  1.
         11   -1    0    0    0    0 -0.00000000000E+00 -0.00000000000E+00 -0.45593999997E+02  0.45594000000E+02  0.51100000000E-03 0. -1.
    9900012    2    1    2    0    0  0.31561187959E+02  0.42167371784E+01  0.16827501240E+01  0.59301935555E+02  0.49999984549E+02 0.  0.
        -12    1    1    2    0    0 -0.31561187959E+02 -0.42167371784E+01 -0.16827501240E+01  0.31886064445E+02  0.00000000000E+00 0.  1.
         11    1    3    3    0    0  0.12354218385E+02  0.40444738607E+01  0.24435258033E+02  0.27677903030E+02  0.51100000000E-03 0. -1.
        -11    1    3    3    0    0  0.88581566994E+01  0.31533130646E+01 -0.44834648044E+01  0.10416898786E+02  0.51100000000E-03 0.  1.
         12    1    3    3    0    0  0.10348812874E+02 -0.29810497469E+01 -0.18269043105E+02  0.21207133740E+02  0.00000000000E+00 0. -1.
</event>
<event>
 7    1  0.1139627E-011  0.5930194E+02  0.7816164E-02  0.1266605E+00
        -11   -1    0    0    0    0  0.00000000000E+00  0.00000000000E+00  0.45593999997E+02  0.45594000000E+02  0.51100000000E-03 0. -1.
         11   -1    0    0    0    0 -0.00000000000E+00 -0.00000000000E+00 -0.45593999997E+02  0.45594000000E+02  0.51100000000E-03 0.  1.
    9900012    2    1    2    0    0 -0.21595425227E+02 -0.50477777168E+01  0.22910225686E+02  0.59301938914E+02  0.49999990674E+02 0.  0.
        -12    1    1    2    0    0  0.21595425227E+02  0.50477777168E+01 -0.22910225686E+02  0.31886061086E+02  0.00000000000E+00 0.  1.
         11    1    3    3    0    0 -0.21353674277E+02 -0.13292872651E+02  0.26027742937E+02  0.36195625027E+02  0.51100000000E-03 0. -1.
        -11    1    3    3    0    0  0.23946213898E+01  0.12097717715E+02 -0.92379530864E+01  0.15408723601E+02  0.51100000000E-03 0.  1.
        -12    1    3    3    0    0 -0.26363723396E+01 -0.38526227815E+01  0.61204358353E+01  0.76975902868E+01  0.00000000000E+00 0.  1.
</event>
<event>
 7    1  0.1139627E-011  0.5930194E+02  0.7816164E-02  0.1266605E+00
        -11   -1    0    0    0    0  0.00000000000E+00  0.00000000000E+00  0.45593999997E+02  0.45594000000E+02  0.51100000000E-03 0.  1.
         11   -1    0    0    0    0 -0.00000000000E+00 -0.00000000000E+00 -0.45593999997E+02  0.45594000000E+02  0.51100000000E-03 0. -1.
    9900012    2    1    2    0    0 -0.15203866599E+02  0.25230073294E+02 -0.12206828857E+02  0.59301939899E+02  0.49999992471E+02 0.  0.
        -12    1    1    2    0    0  0.15203866599E+02 -0.25230073294E+02  0.12206828857E+02  0.31886060101E+02  0.00000000000E+00 0.  1.
         11    1    3    3    0    0 -0.59703860305E+01  0.21237095230E+02  0.10862934240E+02  0.24589897595E+02  0.51100000000E-03 0. -1.
        -11    1    3    3    0    0  0.29154770318E+01 -0.81095480654E+01 -0.58893028156E+01  0.10437847674E+02  0.51100000000E-03 0.  1.
         12    1    3    3    0    0 -0.12148957601E+02  0.12102526130E+02 -0.17180460281E+02  0.24274194631E+02  0.00000000000E+00 0. -1.
</event>
<event>
 7    1  0.1139627E-011  0.5930194E+02  0.7816164E-02  0.1266605E+00
        -11   -1    0    0    0    0  0.00000000000E+00  0.00000000000E+00  0.45593999997E+02  0.45594000000E+02  0.51100000000E-03 0. -1.
         11   -1    0    0    0    0 -0.00000000000E+00 -0.00000000000E+00 -0.45593999997E+02  0.45594000000E+02  0.51100000000E-03 0.  1.
    9900012    2    1    2    0    0  0.29875772603E+02  0.48656428893E+01 -0.10024199780E+02  0.59301939557E+02  0.49999991847E+02 0.  0.
        -12    1    1    2    0    0 -0.29875772603E+02 -0.48656428893E+01  0.10024199780E+02  0.31886060443E+02  0.00000000000E+00 0.  1.
         11    1    3    3    0    0 -0.26629279296E+01  0.10546208290E+02 -0.15267541830E+02  0.18745973655E+02  0.51100000000E-03 0.  1.
        -11    1    3    3    0    0  0.29253603066E+02  0.25571491105E+01 -0.15173641938E+01  0.29404331284E+02  0.51100000000E-03 0. -1.
         12    1    3    3    0    0  0.32850974662E+01 -0.82377145115E+01  0.67607062443E+01  0.11151634618E+02  0.00000000000E+00 0. -1.
</event>
<event>
 7    1  0.1139627E-011  0.5930194E+02  0.7816164E-02  0.1266605E+00
        -11   -1    0    0    0    0  0.00000000000E+00  0.00000000000E+00  0.45593999997E+02  0.45594000000E+02  0.51100000000E-03 0.  1.
         11   -1    0    0    0    0 -0.00000000000E+00 -0.00000000000E+00 -0.45593999997E+02  0.45594000000E+02  0.51100000000E-03 0. -1.
    9900012    2    1    2    0    0  0.29535729608E+02  0.11797631507E+02  0.22754559117E+01  0.59301935141E+02  0.49999983792E+02 0.  0.
        -12    1    1    2    0    0 -0.29535729608E+02 -0.11797631507E+02 -0.22754559117E+01  0.31886064859E+02  0.00000000000E+00 0.  1.
         11    1    3    3    0    0  0.17878123477E+02  0.41837562422E+01  0.67104250026E+01  0.19548936527E+02  0.51100000000E-03 0. -1.
        -11    1    3    3    0    0 -0.32787124500E+01  0.58189843022E+01  0.14266008343E+02  0.15752127728E+02  0.51100000000E-03 0.  1.
         12    1    3    3    0    0  0.14936318581E+02  0.17948909621E+01 -0.18700977434E+02  0.24000870886E+02  0.00000000000E+00 0. -1.
</event>
<event>
 7    1  0.1139627E-011  0.5930198E+02  0.7816164E-02  0.1266605E+00
        -11   -1    0    0    0    0  0.00000000000E+00  0.00000000000E+00  0.45593999997E+02  0.45594000000E+02  0.51100000000E-03 0.  1.
         11   -1    0    0    0    0 -0.00000000000E+00 -0.00000000000E+00 -0.45593999997E+02  0.45594000000E+02  0.51100000000E-03 0. -1.
    9900012    2    1    2    0    0  0.69402378651E+01 -0.20307519683E+02 -0.23582961785E+02  0.59301978865E+02  0.50000063534E+02 0.  0.
        -12    1    1    2    0    0 -0.69402378651E+01  0.20307519683E+02  0.23582961785E+02  0.31886021135E+02  0.00000000000E+00 0.  1.
         11    1    3    3    0    0 -0.12411461038E+02 -0.14359102858E+02 -0.54514900333E+01  0.19747074311E+02  0.51100000000E-03 0. -1.
        -11    1    3    3    0    0  0.22588668824E+02 -0.67064849309E+01 -0.23475311023E+02  0.33261315778E+02  0.51100000000E-03 0.  1.
        -12    1    3    3    0    0 -0.32369699204E+01  0.75806810635E+00  0.53438392716E+01  0.62935887759E+01  0.00000000000E+00 0.  1.
</event>
<event>
 7    1  0.1139627E-011  0.5930195E+02  0.7816164E-02  0.1266605E+00
        -11   -1    0    0    0    0  0.00000000000E+00  0.00000000000E+00  0.45593999997E+02  0.45594000000E+02  0.51100000000E-03 0.  1.
         11   -1    0    0    0    0 -0.00000000000E+00 -0.00000000000E+00 -0.45593999997E+02  0.45594000000E+02  0.51100000000E-03 0. -1.
    9900012    2    1    2    0    0 -0.66258607943E+01 -0.45376022455E+00 -0.31186728528E+02  0.59301953430E+02  0.50000017148E+02 0.  0.
        -12    1    1    2    0    0  0.66258607943E+01  0.45376022455E+00  0.31186728528E+02  0.31886046570E+02  0.00000000000E+00 0.  1.
         11    1    3    3    0    0  0.10110033591E+02  0.48930131507E+01 -0.23623116017E+02  0.26157331047E+02  0.51100000000E-03 0. -1.
        -11    1    3    3    0    0 -0.18809575578E+02 -0.10394473832E+02 -0.13263165559E+02  0.25253846848E+02  0.51100000000E-03 0.  1.
         12    1    3    3    0    0  0.20736811930E+01  0.50477004568E+01  0.56995530487E+01  0.78907755352E+01  0.00000000000E+00 0. -1.
</event>
<event>
 7    1  0.1139627E-011  0.5930196E+02  0.7816164E-02  0.1266605E+00
        -11   -1    0    0    0    0  0.00000000000E+00  0.00000000000E+00  0.45593999997E+02  0.45594000000E+02  0.51100000000E-03 0. -1.
         11   -1    0    0    0    0 -0.00000000000E+00 -0.00000000000E+00 -0.45593999997E+02  0.45594000000E+02  0.51100000000E-03 0.  1.
    9900012    2    1    2    0    0  0.15390420293E+02 -0.19335580792E+02 -0.20149181431E+02  0.59301964911E+02  0.50000038085E+02 0.  0.
        -12    1    1    2    0    0 -0.15390420293E+02  0.19335580792E+02  0.20149181431E+02  0.31886035089E+02  0.00000000000E+00 0.  1.
         11    1    3    3    0    0  0.74481037738E+01 -0.13611821617E+02  0.16330145182E+01  0.15602008661E+02  0.51100000000E-03 0. -1.
        -11    1    3    3    0    0 -0.97466423259E+01 -0.84619220985E+01 -0.22329877382E+02  0.25791948092E+02  0.51100000000E-03 0.  1.
        -12    1    3    3    0    0  0.17688958845E+02  0.27381629237E+01  0.54768143272E+00  0.17908008158E+02  0.00000000000E+00 0.  1.
</event>
<event>
 7    1  0.1139627E-011  0.5930194E+02  0.7816164E-02  0.1266605E+00
        -11   -1    0    0    0    0  0.00000000000E+00  0.00000000000E+00  0.45593999997E+02  0.45594000000E+02  0.51100000000E-03 0. -1.
         11   -1    0    0    0    0 -0.00000000000E+00 -0.00000000000E+00 -0.45593999997E+02  0.45594000000E+02  0.51100000000E-03 0.  1.
    9900012    2    1    2    0    0  0.18661141076E+01  0.14216794521E+02  0.28480185705E+02  0.59301943390E+02  0.49999998837E+02 0.  0.
        -12    1    1    2    0    0 -0.18661141076E+01 -0.14216794521E+02 -0.28480185705E+02  0.31886056610E+02  0.00000000000E+00 0.  1.
         11    1    3    3    0    0  0.10209981312E+02  0.16172281660E+02  0.38713886340E+02  0.43180451692E+02  0.51100000000E-03 0. -1.
        -11    1    3    3    0    0 -0.40177239559E+01  0.29146638839E+01 -0.14217877786E+01  0.51632210964E+01  0.51100000000E-03 0.  1.
         12    1    3    3    0    0 -0.43261432486E+01 -0.48701510228E+01 -0.88119128565E+01  0.10958270602E+02  0.00000000000E+00 0. -1.
</event>
<event>
 7    1  0.1139627E-011  0.5930194E+02  0.7816164E-02  0.1266605E+00
        -11   -1    0    0    0    0  0.00000000000E+00  0.00000000000E+00  0.45593999997E+02  0.45594000000E+02  0.51100000000E-03 0.  1.
         11   -1    0    0    0    0 -0.00000000000E+00 -0.00000000000E+00 -0.45593999997E+02  0.45594000000E+02  0.51100000000E-03 0. -1.
    9900012    2    1    2    0    0 -0.14383754884E+01 -0.24617538264E+02 -0.20214573370E+02  0.59301935791E+02  0.49999984978E+02 0.  0.
        -12    1    1    2    0    0  0.14383754884E+01  0.24617538264E+02  0.20214573370E+02  0.31886064209E+02  0.00000000000E+00 0.  1.
         11    1    3    3    0    0 -0.61188150202E+01 -0.23043621823E+02 -0.27888834179E+02  0.36691081697E+02  0.51100000000E-03 0. -1.
        -11    1    3    3    0    0 -0.17120840622E+01 -0.75165499195E+01  0.10861337412E+02  0.13319099263E+02  0.51100000000E-03 0.  1.
         12    1    3    3    0    0  0.63925235940E+01  0.59426334788E+01 -0.31870766042E+01  0.92917548312E+01  0.00000000000E+00 0. -1.
</event>
<event>
 7    1  0.1139627E-011  0.5930185E+02  0.7816164E-02  0.1266605E+00
        -11   -1    0    0    0    0  0.00000000000E+00  0.00000000000E+00  0.45593999997E+02  0.45594000000E+02  0.51100000000E-03 0. -1.
         11   -1    0    0    0    0 -0.00000000000E+00 -0.00000000000E+00 -0.45593999997E+02  0.45594000000E+02  0.51100000000E-03 0.  1.
    9900012    2    1    2    0    0  0.22623938433E+02 -0.15491269026E+02  0.16275897607E+02  0.59301845495E+02  0.49999820299E+02 0.  0.
        -12    1    1    2    0    0 -0.22623938433E+02  0.15491269026E+02 -0.16275897607E+02  0.31886154505E+02  0.00000000000E+00 0.  1.
         11    1    3    3    0    0  0.18434792338E+02 -0.13087183937E+01  0.40354613311E+01  0.18916639786E+02  0.51100000000E-03 0. -1.
        -11    1    3    3    0    0 -0.10133467112E+02  0.68326048551E+01  0.79872216710E+01  0.14600251885E+02  0.51100000000E-03 0.  1.
        -12    1    3    3    0    0  0.14322613207E+02 -0.21015155487E+02  0.42532146046E+01  0.25784953824E+02  0.00000000000E+00 0.  1.
</event>
<event>
 7    1  0.1139627E-011  0.5930195E+02  0.7816164E-02  0.1266605E+00
        -11   -1    0    0    0    0  0.00000000000E+00  0.00000000000E+00  0.45593999997E+02  0.45594000000E+02  0.51100000000E-03 0.  1.
         11   -1    0    0    0    0 -0.00000000000E+00 -0.00000000000E+00 -0.45593999997E+02  0.45594000000E+02  0.51100000000E-03 0. -1.
    9900012    2    1    2    0    0  0.20638100754E+02  0.22108943088E+02 -0.10098708979E+02  0.59301945207E+02  0.50000002151E+02 0.  0.
        -12    1    1    2    0    0 -0.20638100754E+02 -0.22108943088E+02  0.10098708979E+02  0.31886054793E+02  0.00000000000E+00 0.  1.
         11    1    3    3    0    0  0.12489122240E+02  0.30373683184E+02 -0.63093372869E+01  0.33441688680E+02  0.51100000000E-03 0.  1.
        -11    1    3    3    0    0  0.74208952755E+01 -0.93418632588E+01  0.77636785692E+01  0.14234282596E+02  0.51100000000E-03 0. -1.
         12    1    3    3    0    0  0.72808323829E+00  0.10771231626E+01 -0.11553050261E+02  0.11625973931E+02  0.00000000000E+00 0. -1.
</event>
<event>
 7    1  0.1139627E-011  0.5930195E+02  0.7816164E-02  0.1266605E+00
        -11   -1    0    0    0    0  0.00000000000E+00  0.00000000000E+00  0.45593999997E+02  0.45594000000E+02  0.51100000000E-03 0.  1.
         11   -1    0    0    0    0 -0.00000000000E+00 -0.00000000000E+00 -0.45593999997E+02  0.45594000000E+02  0.51100000000E-03 0. -1.
    9900012    2    1    2    0    0 -0.10162327769E+02 -0.21228057874E+02 -0.21513182533E+02  0.59301947101E+02  0.50000005604E+02 0.  0.
        -12    1    1    2    0    0  0.10162327769E+02  0.21228057874E+02  0.21513182533E+02  0.31886052899E+02  0.00000000000E+00 0.  1.
         11    1    3    3    0    0 -0.43946607648E+01 -0.98564059058E+01  0.11652755641E+02  0.15882332792E+02  0.51100000000E-03 0.  1.
        -11    1    3    3    0    0  0.82011801868E+01 -0.86476506189E+01 -0.23081977887E+02  0.25977277015E+02  0.51100000000E-03 0. -1.
        -12    1    3    3    0    0 -0.13968847191E+02 -0.27240013495E+01 -0.10083960287E+02  0.17442337294E+02  0.00000000000E+00 0.  1.
</event>
<event>
 7    1  0.1330358E-011  0.5930192E+02  0.7816164E-02  0.1266605E+00
        -11   -1    0    0    0    0  0.00000000000E+00  0.00000000000E+00  0.45593999997E+02  0.45594000000E+02  0.51100000000E-03 0.  1.
         11   -1    0    0    0    0 -0.00000000000E+00 -0.00000000000E+00 -0.45593999997E+02  0.45594000000E+02  0.51100000000E-03 0. -1.
    9900012    2    1    2    0    0  0.50205072356E+01  0.31455170656E+02 -0.14451989411E+01  0.59301923824E+02  0.49999963154E+02 0.  0.
        -12    1    1    2    0    0 -0.50205072356E+01 -0.31455170656E+02  0.14451989411E+01  0.31886076176E+02  0.00000000000E+00 0.  1.
         11    1    3    3    0    0  0.21389548837E+02  0.24256219193E+02  0.28348368463E+01  0.32464030391E+02  0.51100000000E-03 0. -1.
        -11    1    3    3    0    0 -0.98575506138E+01 -0.51577690031E+01  0.23593416708E+01  0.11372791151E+02  0.51100000000E-03 0.  1.
        -12    1    3    3    0    0 -0.65114909880E+01  0.12356720466E+02 -0.66393774583E+01  0.15465102282E+02  0.00000000000E+00 0.  1.
</event>
<event>
 7    1  0.1139627E-011  0.5930195E+02  0.7816164E-02  0.1266605E+00
        -11   -1    0    0    0    0  0.00000000000E+00  0.00000000000E+00  0.45593999997E+02  0.45594000000E+02  0.51100000000E-03 0.  1.
         11   -1    0    0    0    0 -0.00000000000E+00 -0.00000000000E+00 -0.45593999997E+02  0.45594000000E+02  0.51100000000E-03 0. -1.
    9900012    2    1    2    0    0 -0.16311793491E+02  0.26762271654E+02 -0.58674184275E+01  0.59301946780E+02  0.50000005019E+02 0.  0.
        -12    1    1    2    0    0  0.16311793491E+02 -0.26762271654E+02  0.58674184275E+01  0.31886053220E+02  0.00000000000E+00 0.  1.
         11    1    3    3    0    0 -0.24508870076E+01 -0.11959763355E+02  0.74109687480E+00  0.12230781311E+02  0.51100000000E-03 0. -1.
        -11    1    3    3    0    0 -0.13444792269E+02  0.24469172114E+02 -0.13752282434E+02  0.31122790612E+02  0.51100000000E-03 0.  1.
        -12    1    3    3    0    0 -0.41611421448E+00  0.14252862895E+02  0.71437671313E+01  0.15948374856E+02  0.00000000000E+00 0.  1.
</event>
<event>
 7    1  0.1139627E-011  0.5930197E+02  0.7816164E-02  0.1266605E+00
        -11   -1    0    0    0    0  0.00000000000E+00  0.00000000000E+00  0.45593999997E+02  0.45594000000E+02  0.51100000000E-03 0.  1.
         11   -1    0    0    0    0 -0.00000000000E+00 -0.00000000000E+00 -0.45593999997E+02  0.45594000000E+02  0.51100000000E-03 0. -1.
    9900012    2    1    2    0    0 -0.15088223327E+02 -0.13699127952E+02 -0.24523420145E+02  0.59301972881E+02  0.50000052622E+02 0.  0.
        -12    1    1    2    0    0  0.15088223327E+02  0.13699127952E+02  0.24523420145E+02  0.31886027119E+02  0.00000000000E+00 0.  1.
         11    1    3    3    0    0 -0.12981333479E+02 -0.14801149018E+02 -0.18302442148E+02  0.26880632805E+02  0.51100000000E-03 0. -1.
        -11    1    3    3    0    0  0.74085917347E+01 -0.83436420310E+01  0.73364050015E+01  0.13353892033E+02  0.51100000000E-03 0.  1.
        -12    1    3    3    0    0 -0.95154815823E+01  0.94456630977E+01 -0.13557382998E+02  0.19067448043E+02  0.00000000000E+00 0.  1.
</event>
<event>
 7    1  0.1139627E-011  0.5930197E+02  0.7816164E-02  0.1266605E+00
        -11   -1    0    0    0    0  0.00000000000E+00  0.00000000000E+00  0.45593999997E+02  0.45594000000E+02  0.51100000000E-03 0.  1.
         11   -1    0    0    0    0 -0.00000000000E+00 -0.00000000000E+00 -0.45593999997E+02  0.45594000000E+02  0.51100000000E-03 0. -1.
    9900012    2    1    2    0    0  0.27087037159E+02  0.14692330970E+02 -0.81943255728E+01  0.59301966334E+02  0.50000040681E+02 0.  0.
        -12    1    1    2    0    0 -0.27087037159E+02 -0.14692330970E+02  0.81943255728E+01  0.31886033666E+02  0.00000000000E+00 0.  1.
         11    1    3    3    0    0  0.51376348533E+01  0.10908742744E+02 -0.37439037642E+01  0.12625877229E+02  0.51100000000E-03 0. -1.
        -11    1    3    3    0    0  0.32134875317E+02 -0.43218025686E+01 -0.75578108407E+01  0.33293373125E+02  0.51100000000E-03 0.  1.
        -12    1    3    3    0    0 -0.10185473011E+02  0.81053907941E+01  0.31073890322E+01  0.13382715979E+02  0.00000000000E+00 0.  1.
</event>
<event>
 7    1  0.1139627E-011  0.5930195E+02  0.7816164E-02  0.1266605E+00
        -11   -1    0    0    0    0  0.00000000000E+00  0.00000000000E+00  0.45593999997E+02  0.45594000000E+02  0.51100000000E-03 0.  1.
         11   -1    0    0    0    0 -0.00000000000E+00 -0.00000000000E+00 -0.45593999997E+02  0.45594000000E+02  0.51100000000E-03 0. -1.
    9900012    2    1    2    0    0 -0.24137241604E+02 -0.16221752676E+02 -0.13075491865E+02  0.59301950078E+02  0.50000011034E+02 0.  0.
        -12    1    1    2    0    0  0.24137241604E+02  0.16221752676E+02  0.13075491865E+02  0.31886049922E+02  0.00000000000E+00 0.  1.
         11    1    3    3    0    0 -0.62420719457E+01 -0.54777806615E+01  0.16650024921E+02  0.18606258981E+02  0.51100000000E-03 0.  1.
        -11    1    3    3    0    0 -0.48419055879E+01 -0.43946582258E+01 -0.24356564777E+02  0.25219026917E+02  0.51100000000E-03 0. -1.
        -12    1    3    3    0    0 -0.13053264070E+02 -0.63493137890E+01 -0.53689520088E+01  0.15476664180E+02  0.00000000000E+00 0.  1.
</event>
<event>
 7    1  0.1139627E-011  0.5930193E+02  0.7816164E-02  0.1266605E+00
        -11   -1    0    0    0    0  0.00000000000E+00  0.00000000000E+00  0.45593999997E+02  0.45594000000E+02  0.51100000000E-03 0.  1.
         11   -1    0    0    0    0 -0.00000000000E+00 -0.00000000000E+00 -0.45593999997E+02  0.45594000000E+02  0.51100000000E-03 0. -1.
    9900012    2    1    2    0    0 -0.19895080428E+02 -0.24809721623E+02  0.23204838912E+01  0.59301934740E+02  0.49999983062E+02 0.  0.
        -12    1    1    2    0    0  0.19895080428E+02  0.24809721623E+02 -0.23204838912E+01  0.31886065260E+02  0.00000000000E+00 0.  1.
         11    1    3    3    0    0 -0.40111395481E+01  0.21950409716E+01 -0.15664016081E+02  0.16317746333E+02  0.51100000000E-03 0. -1.
        -11    1    3    3    0    0 -0.22001040997E+02 -0.21600832305E+02  0.13355671143E+02  0.33600829055E+02  0.51100000000E-03 0.  1.
        -12    1    3    3    0    0  0.61171001169E+01 -0.54039302894E+01  0.46288288284E+01  0.93833593524E+01  0.00000000000E+00 0.  1.
</event>
<event>
 7    1  0.1139627E-011  0.5930195E+02  0.7816164E-02  0.1266605E+00
        -11   -1    0    0    0    0  0.00000000000E+00  0.00000000000E+00  0.45593999997E+02  0.45594000000E+02  0.51100000000E-03 0.  1.
         11   -1    0    0    0    0 -0.00000000000E+00 -0.00000000000E+00 -0.45593999997E+02  0.45594000000E+02  0.51100000000E-03 0. -1.
    9900012    2    1    2    0    0 -0.24816218214E+02  0.42992804367E+01 -0.19554842518E+02  0.59301947178E+02  0.50000005744E+02 0.  0.
        -12    1    1    2    0    0  0.24816218214E+02 -0.42992804367E+01  0.19554842518E+02  0.31886052822E+02  0.00000000000E+00 0.  1.
         11    1    3    3    0    0 -0.95287768498E+01  0.14690323564E+02 -0.24628068059E+02  0.30218288026E+02  0.51100000000E-03 0. -1.
        -11    1    3    3    0    0 -0.11131114350E+02 -0.34103151272E+01  0.13194519538E+02  0.17596229768E+02  0.51100000000E-03 0.  1.
        -12    1    3    3    0    0 -0.41563270141E+01 -0.69807279999E+01 -0.81212939973E+01  0.11487429384E+02  0.00000000000E+00 0.  1.
</event>
<event>
 7    1  0.1139627E-011  0.5930193E+02  0.7816164E-02  0.1266605E+00
        -11   -1    0    0    0    0  0.00000000000E+00  0.00000000000E+00  0.45593999997E+02  0.45594000000E+02  0.51100000000E-03 0. -1.
         11   -1    0    0    0    0 -0.00000000000E+00 -0.00000000000E+00 -0.45593999997E+02  0.45594000000E+02  0.51100000000E-03 0.  1.
    9900012    2    1    2    0    0  0.22187987643E+02 -0.19175733244E+02  0.12518230882E+02  0.59301927092E+02  0.49999969113E+02 0.  0.
        -12    1    1    2    0    0 -0.22187987643E+02  0.19175733244E+02 -0.12518230882E+02  0.31886072908E+02  0.00000000000E+00 0.  1.
         11    1    3    3    0    0 -0.10654069036E+01 -0.22894397354E+01  0.16237082748E+02  0.16432269551E+02  0.51100000000E-03 0. -1.
        -11    1    3    3    0    0  0.29035048584E+02 -0.20083169064E+02 -0.61389793287E+01  0.35833710293E+02  0.51100000000E-03 0.  1.
        -12    1    3    3    0    0 -0.57816540374E+01  0.31968755555E+01  0.24201274625E+01  0.70359472469E+01  0.00000000000E+00 0.  1.
</event>
<event>
 7    1  0.1139627E-011  0.5930189E+02  0.7816164E-02  0.1266605E+00
        -11   -1    0    0    0    0  0.00000000000E+00  0.00000000000E+00  0.45593999997E+02  0.45594000000E+02  0.51100000000E-03 0.  1.
         11   -1    0    0    0    0 -0.00000000000E+00 -0.00000000000E+00 -0.45593999997E+02  0.45594000000E+02  0.51100000000E-03 0. -1.
    9900012    2    1    2    0    0  0.43160693649E+01 -0.25346655216E+02 -0.18858493587E+02  0.59301887572E+02  0.49999897037E+02 0.  0.
        -12    1    1    2    0    0 -0.43160693649E+01  0.25346655216E+02  0.18858493587E+02  0.31886112428E+02  0.00000000000E+00 0.  1.
         11    1    3    3    0    0  0.20749644883E+02 -0.58347466776E+01 -0.15045877680E+02  0.26286317106E+02  0.51100000000E-03 0. -1.
        -11    1    3    3    0    0 -0.16602272656E+02 -0.17756729188E+02 -0.10219878018E+02  0.26370111789E+02  0.51100000000E-03 0.  1.
        -12    1    3    3    0    0  0.16869713821E+00 -0.17551793508E+01  0.64072621101E+01  0.66454586768E+01  0.00000000000E+00 0.  1.
</event>
<event>
 7    1  0.1139627E-011  0.5930196E+02  0.7816164E-02  0.1266605E+00
        -11   -1    0    0    0    0  0.00000000000E+00  0.00000000000E+00  0.45593999997E+02  0.45594000000E+02  0.51100000000E-03 0.  1.
         11   -1    0    0    0    0 -0.00000000000E+00 -0.00000000000E+00 -0.45593999997E+02  0.45594000000E+02  0.51100000000E-03 0. -1.
    9900012    2    1    2    0    0 -0.24892010151E+02 -0.66069166603E+01 -0.18800428623E+02  0.59301958641E+02  0.50000026651E+02 0.  0.
        -12    1    1    2    0    0  0.24892010151E+02  0.66069166603E+01  0.18800428623E+02  0.31886041359E+02  0.00000000000E+00 0.  1.
         11    1    3    3    0    0 -0.23167885661E+02  0.79227178130E+01  0.95306609917E+01  0.26274586253E+02  0.51100000000E-03 0. -1.
        -11    1    3    3    0    0 -0.41871038656E+01 -0.13519684738E+02 -0.25329084864E+02  0.29015103903E+02  0.51100000000E-03 0.  1.
        -12    1    3    3    0    0  0.24629793755E+01 -0.10099497353E+01 -0.30020047507E+01  0.40122684849E+01  0.00000000000E+00 0.  1.
</event>
<event>
 7    1  0.1139627E-011  0.5930195E+02  0.7816164E-02  0.1266605E+00
        -11   -1    0    0    0    0  0.00000000000E+00  0.00000000000E+00  0.45593999997E+02  0.45594000000E+02  0.51100000000E-03 0. -1.
         11   -1    0    0    0    0 -0.00000000000E+00 -0.00000000000E+00 -0.45593999997E+02  0.45594000000E+02  0.51100000000E-03 0.  1.
    9900012    2    1    2    0    0  0.20155382452E+02 -0.72339231630E+01  0.23625222481E+02  0.59301949392E+02  0.50000009782E+02 0.  0.
        -12    1    1    2    0    0 -0.20155382452E+02  0.72339231630E+01 -0.23625222481E+02  0.31886050608E+02  0.00000000000E+00 0.  1.
         11    1    3    3    0    0 -0.19295698410E+01 -0.20553721777E+02  0.21099948529E+02  0.29519257220E+02  0.51100000000E-03 0. -1.
        -11    1    3    3    0    0  0.20591551689E+02  0.11924030319E+02  0.70503230601E+01  0.24817363992E+02  0.51100000000E-03 0.  1.
        -12    1    3    3    0    0  0.14934006041E+01  0.13957682951E+01 -0.45250491079E+01  0.49653281792E+01  0.00000000000E+00 0.  1.
</event>
<event>
 7    1  0.1303615E-011  0.5930193E+02  0.7816164E-02  0.1266605E+00
        -11   -1    0    0    0    0  0.00000000000E+00  0.00000000000E+00  0.45593999997E+02  0.45594000000E+02  0.51100000000E-03 0.  1.
         11   -1    0    0    0    0 -0.00000000000E+00 -0.00000000000E+00 -0.45593999997E+02  0.45594000000E+02  0.51100000000E-03 0. -1.
    9900012    2    1    2    0    0  0.34806514958E+01  0.25637636616E+02 -0.18636474436E+02  0.59301928974E+02  0.49999972545E+02 0.  0.
        -12    1    1    2    0    0 -0.34806514958E+01 -0.25637636616E+02  0.18636474436E+02  0.31886071026E+02  0.00000000000E+00 0.  1.
         11    1    3    3    0    0 -0.12382951718E+01  0.18405391883E+02 -0.19047266360E+02  0.26515847740E+02  0.51100000000E-03 0. -1.
        -11    1    3    3    0    0  0.18828937747E+01 -0.11612335489E+02 -0.52845362369E+01  0.12896431599E+02  0.51100000000E-03 0.  1.
        -12    1    3    3    0    0  0.28360528929E+01  0.18844580222E+02  0.56953281611E+01  0.19889649636E+02  0.00000000000E+00 0.  1.
</event>
<event>
 7    1  0.1139627E-011  0.5930192E+02  0.7816164E-02  0.1266605E+00
        -11   -1    0    0    0    0  0.00000000000E+00  0.00000000000E+00  0.45593999997E+02  0.45594000000E+02  0.51100000000E-03 0.  1.
         11   -1    0    0    0    0 -0.00000000000E+00 -0.00000000000E+00 -0.45593999997E+02  0.45594000000E+02  0.51100000000E-03 0. -1.
    9900012    2    1    2    0    0  0.25171797046E+02 -0.19531625323E+02 -0.12722294069E+01  0.59301916485E+02  0.49999949768E+02 0.  0.
        -12    1    1    2    0    0 -0.25171797046E+02  0.19531625323E+02  0.12722294069E+01  0.31886083515E+02  0.00000000000E+00 0.  1.
         11    1    3    3    0    0  0.35748665047E+02 -0.23988347421E+02 -0.75923105742E+01  0.43715569820E+02  0.51100000000E-03 0. -1.
        -11    1    3    3    0    0 -0.37180010141E+01  0.60032519836E+01  0.43133888489E+01  0.82745325875E+01  0.51100000000E-03 0.  1.
         12    1    3    3    0    0 -0.68588669868E+01 -0.15465298861E+01  0.20066923184E+01  0.73118140767E+01  0.00000000000E+00 0. -1.
</event>
<event>
 7    1  0.1139627E-011  0.5930195E+02  0.7816164E-02  0.1266605E+00
        -11   -1    0    0    0    0  0.00000000000E+00  0.00000000000E+00  0.45593999997E+02  0.45594000000E+02  0.51100000000E-03 0.  1.
         11   -1    0    0    0    0 -0.00000000000E+00 -0.00000000000E+00 -0.45593999997E+02  0.45594000000E+02  0.51100000000E-03 0. -1.
    9900012    2    1    2    0    0 -0.30135289523E+02 -0.93464441686E+01  0.46074206478E+01  0.59301952609E+02  0.50000015650E+02 0.  0.
        -12    1    1    2    0    0  0.30135289523E+02  0.93464441686E+01 -0.46074206478E+01  0.31886047391E+02  0.00000000000E+00 0.  1.
         11    1    3    3    0    0 -0.17520807898E+02  0.73535673060E+01  0.87368351841E+01  0.20913774189E+02  0.51100000000E-03 0. -1.
        -11    1    3    3    0    0  0.84539181324E+01  0.32916411770E+01 -0.18182154855E+01  0.92525424204E+01  0.51100000000E-03 0.  1.
         12    1    3    3    0    0 -0.21068399757E+02 -0.19991652652E+02 -0.23111990508E+01  0.29135636000E+02  0.00000000000E+00 0. -1.
</event>
<event>
 7    1  0.1139627E-011  0.5930199E+02  0.7816164E-02  0.1266605E+00
        -11   -1    0    0    0    0  0.00000000000E+00  0.00000000000E+00  0.45593999997E+02  0.45594000000E+02  0.51100000000E-03 0.  1.
         11   -1    0    0    0    0 -0.00000000000E+00 -0.00000000000E+00 -0.45593999997E+02  0.45594000000E+02  0.51100000000E-03 0. -1.
    9900012    2    1    2    0    0 -0.15967561887E+02  0.75083985698E+01 -0.26558968357E+02  0.59301986108E+02  0.50000076745E+02 0.  0.
        -12    1    1    2    0    0  0.15967561887E+02 -0.75083985698E+01  0.26558968357E+02  0.31886013892E+02  0.00000000000E+00 0.  1.
         11    1    3    3    0    0 -0.16849235239E+01  0.19526715046E+02 -0.15323164222E+01  0.19659083439E+02  0.51100000000E-03 0. -1.
        -11    1    3    3    0    0 -0.94562494442E+01 -0.16262464668E+02 -0.27011185118E+02  0.32916447748E+02  0.51100000000E-03 0.  1.
        -12    1    3    3    0    0 -0.48263889188E+01  0.42441481914E+01  0.19845331826E+01  0.67264549221E+01  0.00000000000E+00 0.  1.
</event>
<event>
 7    1  0.1139627E-011  0.5930194E+02  0.7816164E-02  0.1266605E+00
        -11   -1    0    0    0    0  0.00000000000E+00  0.00000000000E+00  0.45593999997E+02  0.45594000000E+02  0.51100000000E-03 0. -1.
         11   -1    0    0    0    0 -0.00000000000E+00 -0.00000000000E+00 -0.45593999997E+02  0.45594000000E+02  0.51100000000E-03 0.  1.
    9900012    2    1    2    0    0 -0.26908141092E+02  0.10343208250E+02  0.13626840860E+02  0.59301940260E+02  0.49999993129E+02 0.  0.
        -12    1    1    2    0    0  0.26908141092E+02 -0.10343208250E+02 -0.13626840860E+02  0.31886059740E+02  0.00000000000E+00 0.  1.
         11    1    3    3    0    0  0.56588506526E+01  0.85540982317E+01  0.10843893768E+02  0.14925991410E+02  0.51100000000E-03 0. -1.
        -11    1    3    3    0    0 -0.20272327355E+02 -0.12592693495E+02 -0.41533979266E+01  0.24223829186E+02  0.51100000000E-03 0.  1.
        -12    1    3    3    0    0 -0.12294664390E+02  0.14381803513E+02  0.69363450184E+01  0.20152119664E+02  0.00000000000E+00 0.  1.
</event>
<event>
 7    1  0.1139627E-011  0.5930199E+02  0.7816164E-02  0.1266605E+00
        -11   -1    0    0    0    0  0.00000000000E+00  0.00000000000E+00  0.45593999997E+02  0.45594000000E+02  0.51100000000E-03 0.  1.
         11   -1    0    0    0    0 -0.00000000000E+00 -0.00000000000E+00 -0.45593999997E+02  0.45594000000E+02  0.51100000000E-03 0. -1.
    9900012    2    1    2    0    0  0.18751721066E+02  0.22414226913E+02 -0.12755121860E+02  0.59301988260E+02  0.50000080668E+02 0.  0.
        -12    1    1    2    0    0 -0.18751721066E+02 -0.22414226913E+02  0.12755121860E+02  0.31886011740E+02  0.00000000000E+00 0.  1.
         11    1    3    3    0    0 -0.11186608741E+02  0.40150319027E+01 -0.76988590298E+01  0.14160971963E+02  0.51100000000E-03 0.  1.
        -11    1    3    3    0    0  0.24010653976E+02  0.18390116696E+02 -0.14849940656E+02  0.33693154115E+02  0.51100000000E-03 0. -1.
        -12    1    3    3    0    0  0.59276758310E+01  0.90783142573E-02  0.97936778267E+01  0.11447862182E+02  0.00000000000E+00 0.  1.
</event>
<event>
 7    1  0.1139627E-011  0.5930194E+02  0.7816164E-02  0.1266605E+00
        -11   -1    0    0    0    0  0.00000000000E+00  0.00000000000E+00  0.45593999997E+02  0.45594000000E+02  0.51100000000E-03 0. -1.
         11   -1    0    0    0    0 -0.00000000000E+00 -0.00000000000E+00 -0.45593999997E+02  0.45594000000E+02  0.51100000000E-03 0.  1.
    9900012    2    1    2    0    0  0.30540625880E+02  0.88451207974E+01  0.23989467481E+01  0.59301938209E+02  0.49999989387E+02 0.  0.
        -12    1    1    2    0    0 -0.30540625880E+02 -0.88451207974E+01 -0.23989467481E+01  0.31886061791E+02  0.00000000000E+00 0.  1.
         11    1    3    3    0    0  0.23893292878E+02  0.14396668225E+01 -0.15869650696E+02  0.28719468982E+02  0.51100000000E-03 0.  1.
        -11    1    3    3    0    0  0.13968850948E+02  0.39160445589E+01  0.17040457788E+02  0.22379486225E+02  0.51100000000E-03 0. -1.
         12    1    3    3    0    0 -0.73215179462E+01  0.34894094161E+01  0.12281396568E+01  0.82029830017E+01  0.00000000000E+00 0. -1.
</event>
<event>
 7    1  0.1139627E-011  0.5930195E+02  0.7816164E-02  0.1266605E+00
        -11   -1    0    0    0    0  0.00000000000E+00  0.00000000000E+00  0.45593999997E+02  0.45594000000E+02  0.51100000000E-03 0.  1.
         11   -1    0    0    0    0 -0.00000000000E+00 -0.00000000000E+00 -0.45593999997E+02  0.45594000000E+02  0.51100000000E-03 0. -1.
    9900012    2    1    2    0    0  0.29483572008E+02  0.12069125614E+02 -0.13324334822E+01  0.59301949909E+02  0.50000010726E+02 0.  0.
        -12    1    1    2    0    0 -0.29483572008E+02 -0.12069125614E+02  0.13324334822E+01  0.31886050091E+02  0.00000000000E+00 0.  1.
         11    1    3    3    0    0 -0.21608671981E+01  0.12787164599E+02 -0.18188600492E+02  0.22338444745E+02  0.51100000000E-03 0. -1.
        -11    1    3    3    0    0  0.23698885865E+02  0.32432965443E+01  0.11000609562E+02  0.26328113771E+02  0.51100000000E-03 0.  1.
         12    1    3    3    0    0  0.79455533404E+01 -0.39613355290E+01  0.58555574479E+01  0.10635391393E+02  0.00000000000E+00 0. -1.
</event>
<event>
 7    1  0.1139627E-011  0.5930182E+02  0.7816164E-02  0.1266605E+00
        -11   -1    0    0    0    0  0.00000000000E+00  0.00000000000E+00  0.45593999997E+02  0.45594000000E+02  0.51100000000E-03 0.  1.
         11   -1    0    0    0    0 -0.00000000000E+00 -0.00000000000E+00 -0.45593999997E+02  0.45594000000E+02  0.51100000000E-03 0. -1.
    9900012    2    1    2    0    0 -0.30852117404E+02  0.46790482741E+01 -0.65560511577E+01  0.59301820425E+02  0.49999774579E+02 0.  0.
        -12    1    1    2    0    0  0.30852117404E+02 -0.46790482741E+01  0.65560511577E+01  0.31886179575E+02  0.00000000000E+00 0.  1.
         11    1    3    3    0    0 -0.19748315861E+02 -0.71921261672E+01 -0.22415415899E+02  0.30727406795E+02  0.51100000000E-03 0. -1.
        -11    1    3    3    0    0 -0.10179305456E+02 -0.11504318091E+01  0.42011436508E+01  0.11072098317E+02  0.51100000000E-03 0.  1.
         12    1    3    3    0    0 -0.92449608785E+00  0.13021606250E+02  0.11658221090E+02  0.17502315314E+02  0.00000000000E+00 0. -1.
</event>
<event>
 7    1  0.1139627E-011  0.5930194E+02  0.7816164E-02  0.1266605E+00
        -11   -1    0    0    0    0  0.00000000000E+00  0.00000000000E+00  0.45593999997E+02  0.45594000000E+02  0.51100000000E-03 0. -1.
         11   -1    0    0    0    0 -0.00000000000E+00 -0.00000000000E+00 -0.45593999997E+02  0.45594000000E+02  0.51100000000E-03 0.  1.
    9900012    2    1    2    0    0 -0.12708591610E+02 -0.51038173534E+01  0.28795195597E+02  0.59301944400E+02  0.50000000678E+02 0.  0.
        -12    1    1    2    0    0  0.12708591610E+02  0.51038173534E+01 -0.28795195597E+02  0.31886055600E+02  0.00000000000E+00 0.  1.
         11    1    3    3    0    0 -0.19895342336E+02  0.14023164133E+02  0.13913632291E+02  0.28036814062E+02  0.51100000000E-03 0. -1.
        -11    1    3    3    0    0  0.59885051659E+01 -0.22176082690E+02  0.15779573423E+02  0.27868185719E+02  0.51100000000E-03 0.  1.
        -12    1    3    3    0    0  0.11982455599E+01  0.30491012040E+01 -0.89801011670E+00  0.33969446189E+01  0.00000000000E+00 0.  1.
</event>
<event>
 7    1  0.1139627E-011  0.5930192E+02  0.7816164E-02  0.1266605E+00
        -11   -1    0    0    0    0  0.00000000000E+00  0.00000000000E+00  0.45593999997E+02  0.45594000000E+02  0.51100000000E-03 0.  1.
         11   -1    0    0    0    0 -0.00000000000E+00 -0.00000000000E+00 -0.45593999997E+02  0.45594000000E+02  0.51100000000E-03 0. -1.
    9900012    2    1    2    0    0  0.19913996082E+02  0.20649651909E+02 -0.13919282653E+02  0.59301924771E+02  0.49999964881E+02 0.  0.
        -12    1    1    2    0    0 -0.19913996082E+02 -0.20649651909E+02  0.13919282653E+02  0.31886075229E+02  0.00000000000E+00 0.  1.
         11    1    3    3    0    0  0.73756886538E+00  0.29811432916E+00 -0.90699059250E+01  0.91047280977E+01  0.51100000000E-03 0. -1.
        -11    1    3    3    0    0  0.60363495194E+01  0.39464729906E+01  0.17855482195E+02  0.19256957425E+02  0.51100000000E-03 0.  1.
        -12    1    3    3    0    0  0.13140077697E+02  0.16405064589E+02 -0.22704858923E+02  0.30940239249E+02  0.00000000000E+00 0.  1.
</event>
<event>
 7    1  0.1139627E-011  0.5930195E+02  0.7816164E-02  0.1266605E+00
        -11   -1    0    0    0    0  0.00000000000E+00  0.00000000000E+00  0.45593999997E+02  0.45594000000E+02  0.51100000000E-03 0.  1.
         11   -1    0    0    0    0 -0.00000000000E+00 -0.00000000000E+00 -0.45593999997E+02  0.45594000000E+02  0.51100000000E-03 0. -1.
    9900012    2    1    2    0    0 -0.19621550560E+02  0.17215080115E+02 -0.18312730141E+02  0.59301947956E+02  0.50000007164E+02 0.  0.
        -12    1    1    2    0    0  0.19621550560E+02 -0.17215080115E+02  0.18312730141E+02  0.31886052044E+02  0.00000000000E+00 0.  1.
         11    1    3    3    0    0 -0.25324997535E+02  0.25338382039E+02 -0.15970633278E+02  0.39223082899E+02  0.51100000000E-03 0. -1.
        -11    1    3    3    0    0  0.16909900899E+01 -0.11475353486E+02 -0.65915597841E+01  0.13341358468E+02  0.51100000000E-03 0.  1.
         12    1    3    3    0    0  0.40124568852E+01  0.33520515616E+01  0.42494629208E+01  0.67375065894E+01  0.00000000000E+00 0. -1.
</event>
<event>
 7    1  0.1139627E-011  0.5930198E+02  0.7816164E-02  0.1266605E+00
        -11   -1    0    0    0    0  0.00000000000E+00  0.00000000000E+00  0.45593999997E+02  0.45594000000E+02  0.51100000000E-03 0.  1.
         11   -1    0    0    0    0 -0.00000000000E+00 -0.00000000000E+00 -0.45593999997E+02  0.45594000000E+02  0.51100000000E-03 0. -1.
    9900012    2    1    2    0    0  0.51844723867E+01 -0.26854076617E+02 -0.16392006896E+02  0.59301983081E+02  0.50000071223E+02 0.  0.
        -12    1    1    2    0    0 -0.51844723867E+01  0.26854076617E+02  0.16392006896E+02  0.31886016919E+02  0.00000000000E+00 0.  1.
         11    1    3    3    0    0  0.11961300076E+02  0.43188998372E+01 -0.11743468950E+02  0.17309958364E+02  0.51100000000E-03 0.  1.
        -11    1    3    3    0    0 -0.13038129839E+01 -0.29611538733E+02  0.56984557939E+01  0.30183034194E+02  0.51100000000E-03 0. -1.
         12    1    3    3    0    0 -0.54730147053E+01 -0.15614377209E+01 -0.10346993740E+02  0.11808990523E+02  0.00000000000E+00 0. -1.
</event>
<event>
 7    1  0.1139627E-011  0.5930197E+02  0.7816164E-02  0.1266605E+00
        -11   -1    0    0    0    0  0.00000000000E+00  0.00000000000E+00  0.45593999997E+02  0.45594000000E+02  0.51100000000E-03 0.  1.
         11   -1    0    0    0    0 -0.00000000000E+00 -0.00000000000E+00 -0.45593999997E+02  0.45594000000E+02  0.51100000000E-03 0. -1.
    9900012    2    1    2    0    0  0.21034523163E+02  0.13289572958E+02 -0.19941289340E+02  0.59301969600E+02  0.50000046638E+02 0.  0.
        -12    1    1    2    0    0 -0.21034523163E+02 -0.13289572958E+02  0.19941289340E+02  0.31886030400E+02  0.00000000000E+00 0.  1.
         11    1    3    3    0    0 -0.69503136999E+01  0.21587412228E+02 -0.15672583263E+02  0.27567246754E+02  0.51100000000E-03 0. -1.
        -11    1    3    3    0    0  0.26157431191E+02 -0.37143357154E+01 -0.44745763133E+01  0.26796069297E+02  0.51100000000E-03 0.  1.
         12    1    3    3    0    0  0.18274056714E+01 -0.45835035544E+01  0.20587023621E+00  0.49386535488E+01  0.00000000000E+00 0. -1.
</event>
<event>
 7    1  0.1139627E-011  0.5930201E+02  0.7816164E-02  0.1266605E+00
        -11   -1    0    0    0    0  0.00000000000E+00  0.00000000000E+00  0.45593999997E+02  0.45594000000E+02  0.51100000000E-03 0.  1.
         11   -1    0    0    0    0 -0.00000000000E+00 -0.00000000000E+00 -0.45593999997E+02  0.45594000000E+02  0.51100000000E-03 0. -1.
    9900012    2    1    2    0    0 -0.29079476609E+02  0.11445004347E+02  0.63334158505E+01  0.59302011843E+02  0.50000123680E+02 0.  0.
        -12    1    1    2    0    0  0.29079476609E+02 -0.11445004347E+02 -0.63334158505E+01  0.31885988157E+02  0.00000000000E+00 0.  1.
         11    1    3    3    0    0  0.61969245651E+01  0.56560906425E+01  0.89410901562E+01  0.12261171594E+02  0.51100000000E-03 0. -1.
        -11    1    3    3    0    0 -0.34527175853E+02  0.12508675038E+02  0.47721095127E+01  0.37031957186E+02  0.51100000000E-03 0.  1.
        -12    1    3    3    0    0 -0.74922532186E+00 -0.67197613337E+01 -0.73797838184E+01  0.10008883063E+02  0.00000000000E+00 0.  1.
</event>
<event>
 7    1  0.1139627E-011  0.5930194E+02  0.7816164E-02  0.1266605E+00
        -11   -1    0    0    0    0  0.00000000000E+00  0.00000000000E+00  0.45593999997E+02  0.45594000000E+02  0.51100000000E-03 0. -1.
         11   -1    0    0    0    0 -0.00000000000E+00 -0.00000000000E+00 -0.45593999997E+02  0.45594000000E+02  0.51100000000E-03 0.  1.
    9900012    2    1    2    0    0  0.11651203493E+02  0.29597772672E+02 -0.22230315474E+01  0.59301944125E+02  0.50000000178E+02 0.  0.
        -12    1    1    2    0    0 -0.11651203493E+02 -0.29597772672E+02  0.22230315474E+01  0.31886055875E+02  0.00000000000E+00 0.  1.
         11    1    3    3    0    0  0.18425323597E+02  0.15144234146E+01  0.15707566782E+02  0.24259300946E+02  0.51100000000E-03 0. -1.
        -11    1    3    3    0    0 -0.65179596952E+00  0.48985341219E+01 -0.72928970834E+01  0.88094734610E+01  0.51100000000E-03 0.  1.
         12    1    3    3    0    0 -0.61223241343E+01  0.23184815136E+02 -0.10637701246E+02  0.26233169718E+02  0.00000000000E+00 0. -1.
</event>
<event>
 7    1  0.1139627E-011  0.5930194E+02  0.7816164E-02  0.1266605E+00
        -11   -1    0    0    0    0  0.00000000000E+00  0.00000000000E+00  0.45593999997E+02  0.45594000000E+02  0.51100000000E-03 0. -1.
         11   -1    0    0    0    0 -0.00000000000E+00 -0.00000000000E+00 -0.45593999997E+02  0.45594000000E+02  0.51100000000E-03 0.  1.
    9900012    2    1    2    0    0 -0.11928163085E+02 -0.72100740708E+01  0.28678467564E+02  0.59301941220E+02  0.49999994879E+02 0.  0.
        -12    1    1    2    0    0  0.11928163085E+02  0.72100740708E+01 -0.28678467564E+02  0.31886058780E+02  0.00000000000E+00 0.  1.
         11    1    3    3    0    0 -0.93874143138E+01 -0.20732305762E+02 -0.18010465973E+01  0.22829713507E+02  0.51100000000E-03 0. -1.
        -11    1    3    3    0    0 -0.76659980436E+01  0.59956144476E+01  0.21882899939E+02  0.23949451530E+02  0.51100000000E-03 0.  1.
        -12    1    3    3    0    0  0.51252492721E+01  0.75266172436E+01  0.85966142225E+01  0.12522776183E+02  0.00000000000E+00 0.  1.
</event>
<event>
 7    1  0.1139627E-011  0.5930193E+02  0.7816164E-02  0.1266605E+00
        -11   -1    0    0    0    0  0.00000000000E+00  0.00000000000E+00  0.45593999997E+02  0.45594000000E+02  0.51100000000E-03 0.  1.
         11   -1    0    0    0    0 -0.00000000000E+00 -0.00000000000E+00 -0.45593999997E+02  0.45594000000E+02  0.51100000000E-03 0. -1.
    9900012    2    1    2    0    0  0.79800731047E+01 -0.24968378819E+02  0.18155447325E+02  0.59301925059E+02  0.49999965405E+02 0.  0.
        -12    1    1    2    0    0 -0.79800731047E+01  0.24968378819E+02 -0.18155447325E+02  0.31886074941E+02  0.00000000000E+00 0.  1.
         11    1    3    3    0    0 -0.52841062401E+01  0.45422898659E+01 -0.38795447336E+01  0.79752770224E+01  0.51100000000E-03 0. -1.
        -11    1    3    3    0    0  0.19276308560E+02 -0.10963586779E+02  0.36842376572E+00  0.22179090222E+02  0.51100000000E-03 0.  1.
        -12    1    3    3    0    0 -0.60121292152E+01 -0.18547081906E+02  0.21666568293E+02  0.29147557814E+02  0.00000000000E+00 0.  1.
</event>
<event>
 7    1  0.1139627E-011  0.5930195E+02  0.7816164E-02  0.1266605E+00
        -11   -1    0    0    0    0  0.00000000000E+00  0.00000000000E+00  0.45593999997E+02  0.45594000000E+02  0.51100000000E-03 0.  1.
         11   -1    0    0    0    0 -0.00000000000E+00 -0.00000000000E+00 -0.45593999997E+02  0.45594000000E+02  0.51100000000E-03 0. -1.
    9900012    2    1    2    0    0 -0.23605335030E+02  0.18740244876E+02  0.10407293187E+02  0.59301947071E+02  0.50000005551E+02 0.  0.
        -12    1    1    2    0    0  0.23605335030E+02 -0.18740244876E+02 -0.10407293187E+02  0.31886052929E+02  0.00000000000E+00 0.  1.
         11    1    3    3    0    0  0.11282883074E+02  0.12996563264E+02  0.79354289290E+01  0.18952180341E+02  0.51100000000E-03 0. -1.
        -11    1    3    3    0    0 -0.19620475161E+02  0.10859501733E+02  0.72257546375E+01  0.23560631438E+02  0.51100000000E-03 0.  1.
         12    1    3    3    0    0 -0.15267742944E+02 -0.51158201205E+01 -0.47538903800E+01  0.16789135292E+02  0.00000000000E+00 0. -1.
</event>
<event>
 7    1  0.1139627E-011  0.5930195E+02  0.7816164E-02  0.1266605E+00
        -11   -1    0    0    0    0  0.00000000000E+00  0.00000000000E+00  0.45593999997E+02  0.45594000000E+02  0.51100000000E-03 0.  1.
         11   -1    0    0    0    0 -0.00000000000E+00 -0.00000000000E+00 -0.45593999997E+02  0.45594000000E+02  0.51100000000E-03 0. -1.
    9900012    2    1    2    0    0  0.15237991013E+02  0.21549185748E+02 -0.17892913950E+02  0.59301950603E+02  0.50000011991E+02 0.  0.
        -12    1    1    2    0    0 -0.15237991013E+02 -0.21549185748E+02  0.17892913950E+02  0.31886049397E+02  0.00000000000E+00 0.  1.
         11    1    3    3    0    0  0.70851300122E+01  0.15016253101E+00 -0.12018901093E+02  0.13952619820E+02  0.51100000000E-03 0. -1.
        -11    1    3    3    0    0 -0.15020706160E+02  0.63500167768E+01 -0.68801821945E+01  0.17699752368E+02  0.51100000000E-03 0.  1.
        -12    1    3    3    0    0  0.23173567161E+02  0.15049006440E+02  0.10061693380E+01  0.27649578415E+02  0.00000000000E+00 0.  1.
</event>
<event>
 7    1  0.1139627E-011  0.5930197E+02  0.7816164E-02  0.1266605E+00
        -11   -1    0    0    0    0  0.00000000000E+00  0.00000000000E+00  0.45593999997E+02  0.45594000000E+02  0.51100000000E-03 0.  1.
         11   -1    0    0    0    0 -0.00000000000E+00 -0.00000000000E+00 -0.45593999997E+02  0.45594000000E+02  0.51100000000E-03 0. -1.
    9900012    2    1    2    0    0  0.28981028375E+02 -0.37667736107E+01 -0.12752655809E+02  0.59301971409E+02  0.50000049937E+02 0.  0.
        -12    1    1    2    0    0 -0.28981028375E+02  0.37667736107E+01  0.12752655809E+02  0.31886028591E+02  0.00000000000E+00 0.  1.
         11    1    3    3    0    0  0.84474838370E+01  0.13313400306E+02  0.70249538479E+01  0.17261419053E+02  0.51100000000E-03 0. -1.
        -11    1    3    3    0    0 -0.98218667870E+00 -0.89036368310E+01  0.32051471480E+01  0.95138009224E+01  0.51100000000E-03 0.  1.
         12    1    3    3    0    0  0.21515731217E+02 -0.81765370857E+01 -0.22982756805E+02  0.32526751434E+02  0.00000000000E+00 0. -1.
</event>
<event>
 7    1  0.1139627E-011  0.5930194E+02  0.7816164E-02  0.1266605E+00
        -11   -1    0    0    0    0  0.00000000000E+00  0.00000000000E+00  0.45593999997E+02  0.45594000000E+02  0.51100000000E-03 0. -1.
         11   -1    0    0    0    0 -0.00000000000E+00 -0.00000000000E+00 -0.45593999997E+02  0.45594000000E+02  0.51100000000E-03 0.  1.
    9900012    2    1    2    0    0  0.28209611827E+02  0.11967180088E+02  0.88161915232E+01  0.59301939854E+02  0.49999992388E+02 0.  0.
        -12    1    1    2    0    0 -0.28209611827E+02 -0.11967180088E+02 -0.88161915232E+01  0.31886060146E+02  0.00000000000E+00 0.  1.
         11    1    3    3    0    0  0.17936827268E+02  0.16862871058E+02  0.24291992729E+02  0.34585937949E+02  0.51100000000E-03 0. -1.
        -11    1    3    3    0    0  0.16463227505E+01 -0.60745620798E+01 -0.14680976842E+02  0.15973157620E+02  0.51100000000E-03 0.  1.
        -12    1    3    3    0    0  0.86264618085E+01  0.11788711092E+01 -0.79482436407E+00  0.87428442852E+01  0.00000000000E+00 0.  1.
</event>
<event>
 7    1  0.1139627E-011  0.5930197E+02  0.7816164E-02  0.1266605E+00
        -11   -1    0    0    0    0  0.00000000000E+00  0.00000000000E+00  0.45593999997E+02  0.45594000000E+02  0.51100000000E-03 0.  1.
         11   -1    0    0    0    0 -0.00000000000E+00 -0.00000000000E+00 -0.45593999997E+02  0.45594000000E+02  0.51100000000E-03 0. -1.
    9900012    2    1    2    0    0 -0.31617622086E+02  0.34725862505E+01 -0.22329320170E+01  0.59301970661E+02  0.50000048573E+02 0.  0.
        -12    1    1    2    0    0  0.31617622086E+02 -0.34725862505E+01  0.22329320170E+01  0.31886029339E+02  0.00000000000E+00 0.  1.
         11    1    3    3    0    0 -0.12509998060E+02  0.25491540364E+02  0.27417599450E+01  0.28527809756E+02  0.51100000000E-03 0. -1.
        -11    1    3    3    0    0 -0.10505318581E+02 -0.10834755546E+02 -0.67889492729E+01  0.16548216784E+02  0.51100000000E-03 0.  1.
         12    1    3    3    0    0 -0.86023054436E+01 -0.11184198568E+02  0.18142573110E+01  0.14225944121E+02  0.00000000000E+00 0. -1.
</event>
<event>
 7    1  0.1139627E-011  0.5930195E+02  0.7816164E-02  0.1266605E+00
        -11   -1    0    0    0    0  0.00000000000E+00  0.00000000000E+00  0.45593999997E+02  0.45594000000E+02  0.51100000000E-03 0.  1.
         11   -1    0    0    0    0 -0.00000000000E+00 -0.00000000000E+00 -0.45593999997E+02  0.45594000000E+02  0.51100000000E-03 0. -1.
    9900012    2    1    2    0    0  0.15084063382E+02  0.23070068261E+02 -0.16030075386E+02  0.59301947648E+02  0.50000006603E+02 0.  0.
        -12    1    1    2    0    0 -0.15084063382E+02 -0.23070068261E+02  0.16030075386E+02  0.31886052352E+02  0.00000000000E+00 0.  1.
         11    1    3    3    0    0  0.13259105910E+02  0.11441494031E+01 -0.79957704510E+01  0.15525634053E+02  0.51100000000E-03 0. -1.
        -11    1    3    3    0    0  0.70571931442E+00  0.32445768773E+02 -0.60911458266E+01  0.33020115214E+02  0.51100000000E-03 0.  1.
        -12    1    3    3    0    0  0.11192381583E+01 -0.10519849915E+02 -0.19431591084E+01  0.10756198381E+02  0.00000000000E+00 0.  1.
</event>
<event>
 7    1  0.1139627E-011  0.5930192E+02  0.7816164E-02  0.1266605E+00
        -11   -1    0    0    0    0  0.00000000000E+00  0.00000000000E+00  0.45593999997E+02  0.45594000000E+02  0.51100000000E-03 0.  1.
         11   -1    0    0    0    0 -0.00000000000E+00 -0.00000000000E+00 -0.45593999997E+02  0.45594000000E+02  0.51100000000E-03 0. -1.
    9900012    2    1    2    0    0 -0.15112902933E+02  0.14495450471E+02 -0.24045872280E+02  0.59301923209E+02  0.49999962031E+02 0.  0.
        -12    1    1    2    0    0  0.15112902933E+02 -0.14495450471E+02  0.24045872280E+02  0.31886076791E+02  0.00000000000E+00 0.  1.
         11    1    3    3    0    0 -0.13036512297E+02 -0.50755063836E+01 -0.27183603643E+02  0.30572205109E+02  0.51100000000E-03 0. -1.
        -11    1    3    3    0    0 -0.28506684690E+01  0.36101628483E-03  0.80477697548E+01  0.85377344266E+01  0.51100000000E-03 0.  1.
        -12    1    3    3    0    0  0.77427783306E+00  0.19570595839E+02 -0.49100383917E+01  0.20191983673E+02  0.00000000000E+00 0.  1.
</event>
<event>
 7    1  0.1139627E-011  0.5930201E+02  0.7816164E-02  0.1266605E+00
        -11   -1    0    0    0    0  0.00000000000E+00  0.00000000000E+00  0.45593999997E+02  0.45594000000E+02  0.51100000000E-03 0.  1.
         11   -1    0    0    0    0 -0.00000000000E+00 -0.00000000000E+00 -0.45593999997E+02  0.45594000000E+02  0.51100000000E-03 0. -1.
    9900012    2    1    2    0    0  0.25099659266E+02 -0.19627868056E+02  0.12124869743E+01  0.59302012100E+02  0.50000124148E+02 0.  0.
        -12    1    1    2    0    0 -0.25099659266E+02  0.19627868056E+02 -0.12124869743E+01  0.31885987900E+02  0.00000000000E+00 0.  1.
         11    1    3    3    0    0  0.21576696848E+02 -0.67577505233E+01 -0.18870208769E+02  0.29450056337E+02  0.51100000000E-03 0. -1.
        -11    1    3    3    0    0  0.53519548983E+01 -0.44568210347E+01  0.20067926733E+02  0.21242136394E+02  0.51100000000E-03 0.  1.
        -12    1    3    3    0    0 -0.18289924805E+01 -0.84132964978E+01  0.14769009943E-01  0.86098193696E+01  0.00000000000E+00 0.  1.
</event>
<event>
 7    1  0.1139627E-011  0.5930199E+02  0.7816164E-02  0.1266605E+00
        -11   -1    0    0    0    0  0.00000000000E+00  0.00000000000E+00  0.45593999997E+02  0.45594000000E+02  0.51100000000E-03 0.  1.
         11   -1    0    0    0    0 -0.00000000000E+00 -0.00000000000E+00 -0.45593999997E+02  0.45594000000E+02  0.51100000000E-03 0. -1.
    9900012    2    1    2    0    0 -0.20004930767E+02 -0.24654417194E+02  0.29461787264E+01  0.59301991920E+02  0.50000087344E+02 0.  0.
        -12    1    1    2    0    0  0.20004930767E+02  0.24654417194E+02 -0.29461787264E+01  0.31886008080E+02  0.00000000000E+00 0.  1.
         11    1    3    3    0    0  0.45996425502E+01 -0.18538748370E+02  0.52385994639E+01  0.19806181544E+02  0.51100000000E-03 0. -1.
        -11    1    3    3    0    0 -0.29882333943E+02 -0.10594135194E+02 -0.49354179477E+01  0.32086569355E+02  0.51100000000E-03 0.  1.
        -12    1    3    3    0    0  0.52777606259E+01  0.44784663705E+01  0.26429972102E+01  0.74092410211E+01  0.00000000000E+00 0.  1.
</event>
<event>
 7    1  0.1139627E-011  0.5930194E+02  0.7816164E-02  0.1266605E+00
        -11   -1    0    0    0    0  0.00000000000E+00  0.00000000000E+00  0.45593999997E+02  0.45594000000E+02  0.51100000000E-03 0.  1.
         11   -1    0    0    0    0 -0.00000000000E+00 -0.00000000000E+00 -0.45593999997E+02  0.45594000000E+02  0.51100000000E-03 0. -1.
    9900012    2    1    2    0    0 -0.85713972472E+01  0.13274881817E+02 -0.27695292366E+02  0.59301944156E+02  0.50000000234E+02 0.  0.
        -12    1    1    2    0    0  0.85713972472E+01 -0.13274881817E+02  0.27695292366E+02  0.31886055844E+02  0.00000000000E+00 0.  1.
         11    1    3    3    0    0  0.78197541659E+01  0.66977237620E+01  0.57825142167E+01  0.11808705676E+02  0.51100000000E-03 0. -1.
        -11    1    3    3    0    0 -0.94329186364E+01  0.59768394536E+01 -0.37708791002E+02  0.39327541024E+02  0.51100000000E-03 0.  1.
        -12    1    3    3    0    0 -0.69582327766E+01  0.60031860178E+00  0.42309844192E+01  0.81656974566E+01  0.00000000000E+00 0.  1.
</event>
<event>
 7    1  0.1139627E-011  0.5930195E+02  0.7816164E-02  0.1266605E+00
        -11   -1    0    0    0    0  0.00000000000E+00  0.00000000000E+00  0.45593999997E+02  0.45594000000E+02  0.51100000000E-03 0. -1.
         11   -1    0    0    0    0 -0.00000000000E+00 -0.00000000000E+00 -0.45593999997E+02  0.45594000000E+02  0.51100000000E-03 0.  1.
    9900012    2    1    2    0    0  0.27389446302E+02  0.51571884894E+01  0.15490059688E+02  0.59301948018E+02  0.50000007278E+02 0.  0.
        -12    1    1    2    0    0 -0.27389446302E+02 -0.51571884894E+01 -0.15490059688E+02  0.31886051982E+02  0.00000000000E+00 0.  1.
         11    1    3    3    0    0  0.26981099481E+02 -0.82824587377E+01  0.18474406434E+02  0.33732514660E+02  0.51100000000E-03 0. -1.
        -11    1    3    3    0    0 -0.38175185896E+01  0.90667651772E+00 -0.98964817052E+01  0.10645931659E+02  0.51100000000E-03 0.  1.
        -12    1    3    3    0    0  0.42258654110E+01  0.12532970709E+02  0.69121349590E+01  0.14923501699E+02  0.00000000000E+00 0.  1.
</event>
<event>
 7    1  0.1139627E-011  0.5930200E+02  0.7816164E-02  0.1266605E+00
        -11   -1    0    0    0    0  0.00000000000E+00  0.00000000000E+00  0.45593999997E+02  0.45594000000E+02  0.51100000000E-03 0.  1.
         11   -1    0    0    0    0 -0.00000000000E+00 -0.00000000000E+00 -0.45593999997E+02  0.45594000000E+02  0.51100000000E-03 0. -1.
    9900012    2    1    2    0    0 -0.30045756420E+02  0.55167882424E+01 -0.91397403689E+01  0.59301995463E+02  0.50000093805E+02 0.  0.
        -12    1    1    2    0    0  0.30045756420E+02 -0.55167882424E+01  0.91397403689E+01  0.31886004537E+02  0.00000000000E+00 0.  1.
         11    1    3    3    0    0 -0.27034605375E+02 -0.49616372031E+00  0.17612065835E+00  0.27039731599E+02  0.51100000000E-03 0. -1.
        -11    1    3    3    0    0  0.81198712022E+01 -0.81066347267E+00  0.74246336152E+01  0.11032437092E+02  0.51100000000E-03 0.  1.
         12    1    3    3    0    0 -0.11131022247E+02  0.68236154354E+01 -0.16740494643E+02  0.21229826772E+02  0.00000000000E+00 0. -1.
</event>
<event>
 7    1  0.1139627E-011  0.5930192E+02  0.7816164E-02  0.1266605E+00
        -11   -1    0    0    0    0  0.00000000000E+00  0.00000000000E+00  0.45593999997E+02  0.45594000000E+02  0.51100000000E-03 0.  1.
         11   -1    0    0    0    0 -0.00000000000E+00 -0.00000000000E+00 -0.45593999997E+02  0.45594000000E+02  0.51100000000E-03 0. -1.
    9900012    2    1    2    0    0 -0.14350295620E+02  0.30962293749E+01 -0.28305558008E+02  0.59301917851E+02  0.49999952259E+02 0.  0.
        -12    1    1    2    0    0  0.14350295620E+02 -0.30962293749E+01  0.28305558008E+02  0.31886082149E+02  0.00000000000E+00 0.  1.
         11    1    3    3    0    0 -0.14741346014E+02 -0.10617322934E+02 -0.96720429772E+01  0.20581138069E+02  0.51100000000E-03 0. -1.
        -11    1    3    3    0    0  0.22870850022E+01  0.34093895600E+01  0.86063977357E+01  0.95354484543E+01  0.51100000000E-03 0.  1.
        -12    1    3    3    0    0 -0.18960346073E+01  0.10304162749E+02 -0.27239912766E+02  0.29185331327E+02  0.00000000000E+00 0.  1.
</event>
<event>
 7    1  0.1139627E-011  0.5930194E+02  0.7816164E-02  0.1266605E+00
        -11   -1    0    0    0    0  0.00000000000E+00  0.00000000000E+00  0.45593999997E+02  0.45594000000E+02  0.51100000000E-03 0.  1.
         11   -1    0    0    0    0 -0.00000000000E+00 -0.00000000000E+00 -0.45593999997E+02  0.45594000000E+02  0.51100000000E-03 0. -1.
    9900012    2    1    2    0    0 -0.49125645215E+01 -0.14194607611E+02 -0.28126511689E+02  0.59301939799E+02  0.49999992287E+02 0.  0.
        -12    1    1    2    0    0  0.49125645215E+01  0.14194607611E+02  0.28126511689E+02  0.31886060201E+02  0.00000000000E+00 0.  1.
         11    1    3    3    0    0  0.96248850297E+01 -0.12895062699E+02 -0.36620653039E+02  0.39999916039E+02  0.51100000000E-03 0. -1.
        -11    1    3    3    0    0 -0.70606287568E+01  0.12358002276E+01  0.88625546147E+01  0.11398445298E+02  0.51100000000E-03 0.  1.
         12    1    3    3    0    0 -0.74768207944E+01 -0.25353451388E+01 -0.36841326398E+00  0.79035784615E+01  0.00000000000E+00 0. -1.
</event>
<event>
 7    1  0.1139627E-011  0.5930192E+02  0.7816164E-02  0.1266605E+00
        -11   -1    0    0    0    0  0.00000000000E+00  0.00000000000E+00  0.45593999997E+02  0.45594000000E+02  0.51100000000E-03 0.  1.
         11   -1    0    0    0    0 -0.00000000000E+00 -0.00000000000E+00 -0.45593999997E+02  0.45594000000E+02  0.51100000000E-03 0. -1.
    9900012    2    1    2    0    0 -0.14523371865E+02 -0.28379260527E+02 -0.64131013850E+00  0.59301920951E+02  0.49999957914E+02 0.  0.
        -12    1    1    2    0    0  0.14523371865E+02  0.28379260527E+02  0.64131013850E+00  0.31886079049E+02  0.00000000000E+00 0.  1.
         11    1    3    3    0    0 -0.83764563510E+01  0.91691840663E+01  0.54161314377E-01  0.12419415894E+02  0.51100000000E-03 0. -1.
        -11    1    3    3    0    0  0.81798608562E+01 -0.17362750253E+02  0.77922338297E+01  0.20714587331E+02  0.51100000000E-03 0.  1.
        -12    1    3    3    0    0 -0.14326776371E+02 -0.20185694340E+02 -0.84877052826E+01  0.26167917726E+02  0.00000000000E+00 0.  1.
</event>
<event>
 7    1  0.1139627E-011  0.5930194E+02  0.7816164E-02  0.1266605E+00
        -11   -1    0    0    0    0  0.00000000000E+00  0.00000000000E+00  0.45593999997E+02  0.45594000000E+02  0.51100000000E-03 0.  1.
         11   -1    0    0    0    0 -0.00000000000E+00 -0.00000000000E+00 -0.45593999997E+02  0.45594000000E+02  0.51100000000E-03 0. -1.
    9900012    2    1    2    0    0 -0.24382129628E+02 -0.20180201600E+02 -0.38719802371E+01  0.59301937014E+02  0.49999987209E+02 0.  0.
        -12    1    1    2    0    0  0.24382129628E+02  0.20180201600E+02  0.38719802371E+01  0.31886062986E+02  0.00000000000E+00 0.  1.
         11    1    3    3    0    0 -0.41182402656E+01  0.38891652278E+01 -0.10453187557E+02  0.11889265723E+02  0.51100000000E-03 0. -1.
        -11    1    3    3    0    0 -0.97298797767E+01 -0.25215772569E+02  0.17499101936E+02  0.32198203608E+02  0.51100000000E-03 0.  1.
        -12    1    3    3    0    0 -0.10534009585E+02  0.11464057416E+01 -0.10917894616E+02  0.15214467684E+02  0.00000000000E+00 0.  1.
</event>
<event>
 7    1  0.1139627E-011  0.5930201E+02  0.7816164E-02  0.1266605E+00
        -11   -1    0    0    0    0  0.00000000000E+00  0.00000000000E+00  0.45593999997E+02  0.45594000000E+02  0.51100000000E-03 0.  1.
         11   -1    0    0    0    0 -0.00000000000E+00 -0.00000000000E+00 -0.45593999997E+02  0.45594000000E+02  0.51100000000E-03 0. -1.
    9900012    2    1    2    0    0 -0.58903620312E+01  0.39141842910E+01 -0.31091786266E+02  0.59302009711E+02  0.50000119790E+02 0.  0.
        -12    1    1    2    0    0  0.58903620312E+01 -0.39141842910E+01  0.31091786266E+02  0.31885990289E+02  0.00000000000E+00 0.  1.
         11    1    3    3    0    0  0.12285415917E+02 -0.38603167721E+01 -0.17999715436E+02  0.22131950793E+02  0.51100000000E-03 0. -1.
        -11    1    3    3    0    0 -0.13478557065E+02  0.12073779983E+02 -0.20538047868E+02  0.27372597139E+02  0.51100000000E-03 0.  1.
        -12    1    3    3    0    0 -0.46972208834E+01 -0.42992789201E+01  0.74459770385E+01  0.97974617794E+01  0.00000000000E+00 0.  1.
</event>
<event>
 7    1  0.1139627E-011  0.5930194E+02  0.7816164E-02  0.1266605E+00
        -11   -1    0    0    0    0  0.00000000000E+00  0.00000000000E+00  0.45593999997E+02  0.45594000000E+02  0.51100000000E-03 0.  1.
         11   -1    0    0    0    0 -0.00000000000E+00 -0.00000000000E+00 -0.45593999997E+02  0.45594000000E+02  0.51100000000E-03 0. -1.
    9900012    2    1    2    0    0 -0.14709667819E+02  0.25578390418E+01 -0.28174524981E+02  0.59301941513E+02  0.49999995415E+02 0.  0.
        -12    1    1    2    0    0  0.14709667819E+02 -0.25578390418E+01  0.28174524981E+02  0.31886058487E+02  0.00000000000E+00 0.  1.
         11    1    3    3    0    0  0.61840766469E+01 -0.13592059041E+01 -0.33831295975E+02  0.34418698875E+02  0.51100000000E-03 0. -1.
        -11    1    3    3    0    0 -0.32848523996E+01 -0.34831573916E+01 -0.50247022570E+00  0.48140541429E+01  0.51100000000E-03 0.  1.
         12    1    3    3    0    0 -0.17608892067E+02  0.74002023374E+01  0.61592412199E+01  0.20069188495E+02  0.00000000000E+00 0. -1.
</event>
<event>
 7    1  0.1139627E-011  0.5930191E+02  0.7816164E-02  0.1266605E+00
        -11   -1    0    0    0    0  0.00000000000E+00  0.00000000000E+00  0.45593999997E+02  0.45594000000E+02  0.51100000000E-03 0. -1.
         11   -1    0    0    0    0 -0.00000000000E+00 -0.00000000000E+00 -0.45593999997E+02  0.45594000000E+02  0.51100000000E-03 0.  1.
    9900012    2    1    2    0    0 -0.24971618942E+02 -0.82519051895E+01  0.18029055387E+02  0.59301913222E+02  0.49999943818E+02 0.  0.
        -12    1    1    2    0    0  0.24971618942E+02  0.82519051895E+01 -0.18029055387E+02  0.31886086778E+02  0.00000000000E+00 0.  1.
         11    1    3    3    0    0 -0.80776471907E+01 -0.17637335724E+01  0.28815400625E+00  0.82729784989E+01  0.51100000000E-03 0. -1.
        -11    1    3    3    0    0  0.76016999580E+01  0.12397861293E+02 -0.14712571567E+01  0.14617024484E+02  0.51100000000E-03 0.  1.
        -12    1    3    3    0    0 -0.24495671709E+02 -0.18886032910E+02  0.19212158538E+02  0.36411910239E+02  0.00000000000E+00 0.  1.
</event>
<event>
 7    1  0.1139627E-011  0.5930195E+02  0.7816164E-02  0.1266605E+00
        -11   -1    0    0    0    0  0.00000000000E+00  0.00000000000E+00  0.45593999997E+02  0.45594000000E+02  0.51100000000E-03 0. -1.
         11   -1    0    0    0    0 -0.00000000000E+00 -0.00000000000E+00 -0.45593999997E+02  0.45594000000E+02  0.51100000000E-03 0.  1.
    9900012    2    1    2    0    0 -0.82299813332E+01  0.41588553106E+01  0.30523627340E+02  0.59301945113E+02  0.50000001980E+02 0.  0.
        -12    1    1    2    0    0  0.82299813332E+01 -0.41588553106E+01 -0.30523627340E+02  0.31886054887E+02  0.00000000000E+00 0.  1.
         11    1    3    3    0    0  0.14017975780E+02  0.30145970888E+01  0.19136462514E+02  0.23912248710E+02  0.51100000000E-03 0. -1.
        -11    1    3    3    0    0 -0.16575252715E+02 -0.96543320347E+01  0.73604892333E+00  0.19196012551E+02  0.51100000000E-03 0.  1.
        -12    1    3    3    0    0 -0.56727043984E+01  0.10798590256E+02  0.10651115903E+02  0.16193683852E+02  0.00000000000E+00 0.  1.
</event>
<event>
 7    1  0.1139627E-011  0.5930197E+02  0.7816164E-02  0.1266605E+00
        -11   -1    0    0    0    0  0.00000000000E+00  0.00000000000E+00  0.45593999997E+02  0.45594000000E+02  0.51100000000E-03 0.  1.
         11   -1    0    0    0    0 -0.00000000000E+00 -0.00000000000E+00 -0.45593999997E+02  0.45594000000E+02  0.51100000000E-03 0. -1.
    9900012    2    1    2    0    0 -0.20581689953E+02  0.15194591314E+02 -0.19032534723E+02  0.59301969446E+02  0.50000046357E+02 0.  0.
        -12    1    1    2    0    0  0.20581689953E+02 -0.15194591314E+02  0.19032534723E+02  0.31886030554E+02  0.00000000000E+00 0.  1.
         11    1    3    3    0    0 -0.11278829938E+02  0.10724854052E+02 -0.19640098359E+02  0.25059288957E+02  0.51100000000E-03 0. -1.
        -11    1    3    3    0    0  0.64201102846E+01 -0.10148519732E+02  0.36691169725E+01  0.12556778585E+02  0.51100000000E-03 0.  1.
        -12    1    3    3    0    0 -0.15722970300E+02  0.14618256993E+02 -0.30615533367E+01  0.21685901904E+02  0.00000000000E+00 0.  1.
</event>
<event>
 7    1  0.1240246E-011  0.5930195E+02  0.7816164E-02  0.1266605E+00
        -11   -1    0    0    0    0  0.00000000000E+00  0.00000000000E+00  0.45593999997E+02  0.45594000000E+02  0.51100000000E-03 0. -1.
         11   -1    0    0    0    0 -0.00000000000E+00 -0.00000000000E+00 -0.45593999997E+02  0.45594000000E+02  0.51100000000E-03 0.  1.
    9900012    2    1    2    0    0 -0.11470635376E+02 -0.32181094038E+01  0.29576819129E+02  0.59301953932E+02  0.50000018062E+02 0.  0.
        -12    1    1    2    0    0  0.11470635376E+02  0.32181094038E+01 -0.29576819129E+02  0.31886046068E+02  0.00000000000E+00 0.  1.
         11    1    3    3    0    0 -0.97153489424E+01 -0.47298913099E+01  0.38758981993E+02  0.40237029740E+02  0.51100000000E-03 0. -1.
        -11    1    3    3    0    0 -0.79250995118E+01  0.51375654640E+01 -0.41485604596E+01  0.10315635478E+02  0.51100000000E-03 0.  1.
         12    1    3    3    0    0  0.61698130780E+01 -0.36257835579E+01 -0.50336024044E+01  0.87492887135E+01  0.00000000000E+00 0. -1.
</event>
<event>
 7    1  0.1139627E-011  0.5930206E+02  0.7816164E-02  0.1266604E+00
        -11   -1    0    0    0    0  0.00000000000E+00  0.00000000000E+00  0.45593999997E+02  0.45594000000E+02  0.51100000000E-03 0. -1.
         11   -1    0    0    0    0 -0.00000000000E+00 -0.00000000000E+00 -0.45593999997E+02  0.45594000000E+02  0.51100000000E-03 0.  1.
    9900012    2    1    2    0    0  0.21906936310E+02  0.87641873190E+01  0.21447336472E+02  0.59302061412E+02  0.50000214080E+02 0.  0.
        -12    1    1    2    0    0 -0.21906936310E+02 -0.87641873190E+01 -0.21447336472E+02  0.31885938588E+02  0.00000000000E+00 0.  1.
         11    1    3    3    0    0  0.25400786677E+01 -0.80850096626E+01  0.10628901037E+02  0.13593855906E+02  0.51100000000E-03 0. -1.
        -11    1    3    3    0    0  0.21076601837E+02  0.26915581277E+02  0.78616483041E+01  0.35078158087E+02  0.51100000000E-03 0.  1.
        -12    1    3    3    0    0 -0.17097441945E+01 -0.10066384295E+02  0.29567871310E+01  0.10630047419E+02  0.00000000000E+00 0.  1.
</event>
<event>
 7    1  0.1139627E-011  0.5930193E+02  0.7816164E-02  0.1266605E+00
        -11   -1    0    0    0    0  0.00000000000E+00  0.00000000000E+00  0.45593999997E+02  0.45594000000E+02  0.51100000000E-03 0. -1.
         11   -1    0    0    0    0 -0.00000000000E+00 -0.00000000000E+00 -0.45593999997E+02  0.45594000000E+02  0.51100000000E-03 0.  1.
    9900012    2    1    2    0    0  0.15391428140E+02 -0.94905843853E+01  0.26263176522E+02  0.59301926344E+02  0.49999967749E+02 0.  0.
        -12    1    1    2    0    0 -0.15391428140E+02  0.94905843853E+01 -0.26263176522E+02  0.31886073656E+02  0.00000000000E+00 0.  1.
         11    1    3    3    0    0  0.11285929202E+02  0.83317033026E+01  0.82645038583E+01  0.16281630820E+02  0.51100000000E-03 0. -1.
        -11    1    3    3    0    0 -0.71801307187E+01 -0.17120872498E+02 -0.33468525403E+01  0.18864781324E+02  0.51100000000E-03 0.  1.
        -12    1    3    3    0    0  0.11285629656E+02 -0.70141519019E+00  0.21345525204E+02  0.24155514200E+02  0.00000000000E+00 0.  1.
</event>
<event>
 7    1  0.1139627E-011  0.5930194E+02  0.7816164E-02  0.1266605E+00
        -11   -1    0    0    0    0  0.00000000000E+00  0.00000000000E+00  0.45593999997E+02  0.45594000000E+02  0.51100000000E-03 0. -1.
         11   -1    0    0    0    0 -0.00000000000E+00 -0.00000000000E+00 -0.45593999997E+02  0.45594000000E+02  0.51100000000E-03 0.  1.
    9900012    2    1    2    0    0 -0.21314435856E+02  0.15336356584E+02  0.18089001543E+02  0.59301937434E+02  0.49999987975E+02 0.  0.
        -12    1    1    2    0    0  0.21314435856E+02 -0.15336356584E+02 -0.18089001543E+02  0.31886062566E+02  0.00000000000E+00 0.  1.
         11    1    3    3    0    0 -0.12771715991E+02 -0.93053494645E+01  0.22948473137E+02  0.27862854800E+02  0.51100000000E-03 0. -1.
        -11    1    3    3    0    0 -0.11332963098E+02  0.23829890339E+02 -0.74008578592E+00  0.26397868349E+02  0.51100000000E-03 0.  1.
         12    1    3    3    0    0  0.27902432326E+01  0.81181570952E+00 -0.41193858077E+01  0.50412142859E+01  0.00000000000E+00 0. -1.
</event>
<event>
 7    1  0.1139627E-011  0.5930194E+02  0.7816164E-02  0.1266605E+00
        -11   -1    0    0    0    0  0.00000000000E+00  0.00000000000E+00  0.45593999997E+02  0.45594000000E+02  0.51100000000E-03 0. -1.
         11   -1    0    0    0    0 -0.00000000000E+00 -0.00000000000E+00 -0.45593999997E+02  0.45594000000E+02  0.51100000000E-03 0.  1.
    9900012    2    1    2    0    0 -0.19476644301E+02  0.23100681536E+02  0.10185277337E+02  0.59301936664E+02  0.49999986570E+02 0.  0.
        -12    1    1    2    0    0  0.19476644301E+02 -0.23100681536E+02 -0.10185277337E+02  0.31886063336E+02  0.00000000000E+00 0.  1.
         11    1    3    3    0    0 -0.64887534215E+00  0.26374938410E+02  0.15913395554E+02  0.30810624363E+02  0.51100000000E-03 0. -1.
        -11    1    3    3    0    0 -0.14601477858E+02  0.52013081561E+01 -0.96300909007E+01  0.18248161913E+02  0.51100000000E-03 0.  1.
         12    1    3    3    0    0 -0.42262911001E+01 -0.84755650302E+01  0.39019726836E+01  0.10243150388E+02  0.00000000000E+00 0. -1.
</event>
<event>
 7    1  0.1139627E-011  0.5930192E+02  0.7816164E-02  0.1266605E+00
        -11   -1    0    0    0    0  0.00000000000E+00  0.00000000000E+00  0.45593999997E+02  0.45594000000E+02  0.51100000000E-03 0.  1.
         11   -1    0    0    0    0 -0.00000000000E+00 -0.00000000000E+00 -0.45593999997E+02  0.45594000000E+02  0.51100000000E-03 0. -1.
    9900012    2    1    2    0    0 -0.19630662593E+02  0.19344434920E+02 -0.16035958499E+02  0.59301920887E+02  0.49999957797E+02 0.  0.
        -12    1    1    2    0    0  0.19630662593E+02 -0.19344434920E+02  0.16035958499E+02  0.31886079113E+02  0.00000000000E+00 0.  1.
         11    1    3    3    0    0 -0.82663573213E+01  0.27077788797E+02 -0.88743764239E+01  0.29669746656E+02  0.51100000000E-03 0. -1.
        -11    1    3    3    0    0 -0.50696157446E+01 -0.16015113475E+02 -0.90171864161E+01  0.19065532108E+02  0.51100000000E-03 0.  1.
        -12    1    3    3    0    0 -0.62946895269E+01  0.82817595986E+01  0.18556043408E+01  0.10566642123E+02  0.00000000000E+00 0.  1.
</event>
<event>
 7    1  0.1139627E-011  0.5930195E+02  0.7816164E-02  0.1266605E+00
        -11   -1    0    0    0    0  0.00000000000E+00  0.00000000000E+00  0.45593999997E+02  0.45594000000E+02  0.51100000000E-03 0.  1.
         11   -1    0    0    0    0 -0.00000000000E+00 -0.00000000000E+00 -0.45593999997E+02  0.45594000000E+02  0.51100000000E-03 0. -1.
    9900012    2    1    2    0    0 -0.11667364815E+02  0.27821938596E+02 -0.10321472096E+02  0.59301945757E+02  0.50000003154E+02 0.  0.
        -12    1    1    2    0    0  0.11667364815E+02 -0.27821938596E+02  0.10321472096E+02  0.31886054243E+02  0.00000000000E+00 0.  1.
         11    1    3    3    0    0 -0.15885124177E+02 -0.14070976968E+01 -0.12786109682E+02  0.20440198020E+02  0.51100000000E-03 0.  1.
        -11    1    3    3    0    0 -0.49370103300E+01  0.24035660737E+02  0.93786320457E+01  0.26268722796E+02  0.51100000000E-03 0. -1.
         12    1    3    3    0    0  0.91547696915E+01  0.51933755559E+01 -0.69139944598E+01  0.12593024941E+02  0.00000000000E+00 0. -1.
</event>
<event>
 7    1  0.1139627E-011  0.5930197E+02  0.7816164E-02  0.1266605E+00
        -11   -1    0    0    0    0  0.00000000000E+00  0.00000000000E+00  0.45593999997E+02  0.45594000000E+02  0.51100000000E-03 0.  1.
         11   -1    0    0    0    0 -0.00000000000E+00 -0.00000000000E+00 -0.45593999997E+02  0.45594000000E+02  0.51100000000E-03 0. -1.
    9900012    2    1    2    0    0 -0.30602086925E+01  0.27242715266E+02 -0.16284604902E+02  0.59301972196E+02  0.50000051373E+02 0.  0.
        -12    1    1    2    0    0  0.30602086925E+01 -0.27242715266E+02  0.16284604902E+02  0.31886027804E+02  0.00000000000E+00 0.  1.
         11    1    3    3    0    0  0.88385542193E+00  0.28828500777E+02 -0.10604640905E+02  0.30729823729E+02  0.51100000000E-03 0. -1.
        -11    1    3    3    0    0 -0.13282012634E+02  0.21176177923E+01  0.45848360764E+01  0.14209746191E+02  0.51100000000E-03 0.  1.
        -12    1    3    3    0    0  0.93379485193E+01 -0.37034033038E+01 -0.10264800073E+02  0.14362402276E+02  0.00000000000E+00 0.  1.
</event>
<event>
 7    1  0.1139627E-011  0.5930193E+02  0.7816164E-02  0.1266605E+00
        -11   -1    0    0    0    0  0.00000000000E+00  0.00000000000E+00  0.45593999997E+02  0.45594000000E+02  0.51100000000E-03 0.  1.
         11   -1    0    0    0    0 -0.00000000000E+00 -0.00000000000E+00 -0.45593999997E+02  0.45594000000E+02  0.51100000000E-03 0. -1.
    9900012    2    1    2    0    0 -0.18766092137E+01  0.13187047249E+02 -0.28970706711E+02  0.59301925851E+02  0.49999966850E+02 0.  0.
        -12    1    1    2    0    0  0.18766092137E+01 -0.13187047249E+02  0.28970706711E+02  0.31886074149E+02  0.00000000000E+00 0.  1.
         11    1    3    3    0    0  0.42112628844E+01  0.63253134366E+01  0.64346247287E+01  0.99573450685E+01  0.51100000000E-03 0. -1.
        -11    1    3    3    0    0 -0.16175687037E+02  0.14411968617E+02 -0.20491752933E+02  0.29820624223E+02  0.51100000000E-03 0.  1.
         12    1    3    3    0    0  0.10087814939E+02 -0.75502348046E+01 -0.14913578507E+02  0.19523956559E+02  0.00000000000E+00 0. -1.
</event>
<event>
 7    1  0.1139627E-011  0.5930195E+02  0.7816164E-02  0.1266605E+00
        -11   -1    0    0    0    0  0.00000000000E+00  0.00000000000E+00  0.45593999997E+02  0.45594000000E+02  0.51100000000E-03 0. -1.
         11   -1    0    0    0    0 -0.00000000000E+00 -0.00000000000E+00 -0.45593999997E+02  0.45594000000E+02  0.51100000000E-03 0.  1.
    9900012    2    1    2    0    0  0.26267396805E+02  0.32929726833E+00 -0.18073071896E+02  0.59301945065E+02  0.50000001891E+02 0.  0.
        -12    1    1    2    0    0 -0.26267396805E+02 -0.32929726833E+00  0.18073071896E+02  0.31886054935E+02  0.00000000000E+00 0.  1.
         11    1    3    3    0    0  0.18069588463E+02 -0.19348193713E+02 -0.32964695728E+01  0.26678255923E+02  0.51100000000E-03 0. -1.
        -11    1    3    3    0    0  0.14486113496E+02  0.14256616706E+02 -0.13020187930E+02  0.24137603405E+02  0.51100000000E-03 0.  1.
         12    1    3    3    0    0 -0.62883051543E+01  0.54208742747E+01 -0.17564143933E+01  0.84860857370E+01  0.00000000000E+00 0. -1.
</event>
<event>
 7    1  0.1139627E-011  0.5930196E+02  0.7816164E-02  0.1266605E+00
        -11   -1    0    0    0    0  0.00000000000E+00  0.00000000000E+00  0.45593999997E+02  0.45594000000E+02  0.51100000000E-03 0. -1.
         11   -1    0    0    0    0 -0.00000000000E+00 -0.00000000000E+00 -0.45593999997E+02  0.45594000000E+02  0.51100000000E-03 0.  1.
    9900012    2    1    2    0    0 -0.21637836813E+02 -0.23145897310E+02  0.35764803511E+01  0.59301956722E+02  0.50000023151E+02 0.  0.
        -12    1    1    2    0    0  0.21637836813E+02  0.23145897310E+02 -0.35764803511E+01  0.31886043278E+02  0.00000000000E+00 0.  1.
         11    1    3    3    0    0  0.13911744958E+02  0.29322766192E+01 -0.34169321945E+01  0.14622254266E+02  0.51100000000E-03 0. -1.
        -11    1    3    3    0    0 -0.10628764878E+02 -0.87830772356E+01  0.18281937479E+01  0.13908823861E+02  0.51100000000E-03 0.  1.
         12    1    3    3    0    0 -0.24920816893E+02 -0.17295096694E+02  0.51652187976E+01  0.30770878595E+02  0.00000000000E+00 0. -1.
</event>
<event>
 7    1  0.1139627E-011  0.5930194E+02  0.7816164E-02  0.1266605E+00
        -11   -1    0    0    0    0  0.00000000000E+00  0.00000000000E+00  0.45593999997E+02  0.45594000000E+02  0.51100000000E-03 0.  1.
         11   -1    0    0    0    0 -0.00000000000E+00 -0.00000000000E+00 -0.45593999997E+02  0.45594000000E+02  0.51100000000E-03 0. -1.
    9900012    2    1    2    0    0  0.16117159184E+02 -0.83949269442E+01 -0.26200824472E+02  0.59301940011E+02  0.49999992675E+02 0.  0.
        -12    1    1    2    0    0 -0.16117159184E+02  0.83949269442E+01  0.26200824472E+02  0.31886059989E+02  0.00000000000E+00 0.  1.
         11    1    3    3    0    0 -0.97365586623E+01 -0.23160955919E+01  0.25484094651E+00  0.10011484283E+02  0.51100000000E-03 0. -1.
        -11    1    3    3    0    0  0.15642941731E+02 -0.52280422888E+01 -0.33167209394E+02  0.37041838932E+02  0.51100000000E-03 0.  1.
        -12    1    3    3    0    0  0.10210776115E+02 -0.85078906360E+00  0.67115439753E+01  0.12248616797E+02  0.00000000000E+00 0.  1.
</event>
<event>
 7    1  0.1139627E-011  0.5930195E+02  0.7816164E-02  0.1266605E+00
        -11   -1    0    0    0    0  0.00000000000E+00  0.00000000000E+00  0.45593999997E+02  0.45594000000E+02  0.51100000000E-03 0. -1.
         11   -1    0    0    0    0 -0.00000000000E+00 -0.00000000000E+00 -0.45593999997E+02  0.45594000000E+02  0.51100000000E-03 0.  1.
    9900012    2    1    2    0    0 -0.12635346370E+02  0.18553250775E+02  0.22646079600E+02  0.59301952683E+02  0.50000015786E+02 0.  0.
        -12    1    1    2    0    0  0.12635346370E+02 -0.18553250775E+02 -0.22646079600E+02  0.31886047317E+02  0.00000000000E+00 0.  1.
         11    1    3    3    0    0 -0.14202545611E+02 -0.10533960100E+02 -0.39800894119E+01  0.18125058047E+02  0.51100000000E-03 0. -1.
        -11    1    3    3    0    0  0.54777471643E+01  0.12631316558E+02  0.76261284270E+01  0.15738923312E+02  0.51100000000E-03 0.  1.
         12    1    3    3    0    0 -0.39105479239E+01  0.16455894317E+02  0.19000040585E+02  0.25437971324E+02  0.00000000000E+00 0. -1.
</event>
<event>
 7    1  0.1139627E-011  0.5930194E+02  0.7816164E-02  0.1266605E+00
        -11   -1    0    0    0    0  0.00000000000E+00  0.00000000000E+00  0.45593999997E+02  0.45594000000E+02  0.51100000000E-03 0.  1.
         11   -1    0    0    0    0 -0.00000000000E+00 -0.00000000000E+00 -0.45593999997E+02  0.45594000000E+02  0.51100000000E-03 0. -1.
    9900012    2    1    2    0    0  0.15282297545E+01 -0.31672369322E+02 -0.33535439288E+01  0.59301941580E+02  0.49999995537E+02 0.  0.
        -12    1    1    2    0    0 -0.15282297545E+01  0.31672369322E+02  0.33535439288E+01  0.31886058420E+02  0.00000000000E+00 0.  1.
         11    1    3    3    0    0  0.82698909498E+01 -0.27876989949E+02  0.13182123319E+02  0.31926259417E+02  0.51100000000E-03 0. -1.
        -11    1    3    3    0    0  0.42679728692E+01 -0.35792718340E+01 -0.15314969614E+02  0.16296474275E+02  0.51100000000E-03 0.  1.
         12    1    3    3    0    0 -0.11009634065E+02 -0.21610753940E+00 -0.12206976342E+01  0.11079207888E+02  0.00000000000E+00 0. -1.
</event>
<event>
 7    1  0.1669829E-011  0.5930194E+02  0.7816164E-02  0.1266605E+00
        -11   -1    0    0    0    0  0.00000000000E+00  0.00000000000E+00  0.45593999997E+02  0.45594000000E+02  0.51100000000E-03 0. -1.
         11   -1    0    0    0    0 -0.00000000000E+00 -0.00000000000E+00 -0.45593999997E+02  0.45594000000E+02  0.51100000000E-03 0.  1.
    9900012    2    1    2    0    0  0.32366319415E+00  0.22506692640E+02  0.22584613529E+02  0.59301941295E+02  0.49999995017E+02 0.  0.
        -12    1    1    2    0    0 -0.32366319415E+00 -0.22506692640E+02 -0.22584613529E+02  0.31886058705E+02  0.00000000000E+00 0.  1.
         11    1    3    3    0    0  0.12632236414E+02  0.11046849839E+02  0.22224805505E+02  0.27848667261E+02  0.51100000000E-03 0. -1.
        -11    1    3    3    0    0 -0.13541357660E+02 -0.43873982070E+01  0.46756855901E+01  0.14982645504E+02  0.51100000000E-03 0.  1.
        -12    1    3    3    0    0  0.12327844401E+01  0.15847241007E+02 -0.43158775660E+01  0.16470628530E+02  0.00000000000E+00 0.  1.
</event>
<event>
 7    1  0.1139627E-011  0.5930194E+02  0.7816164E-02  0.1266605E+00
        -11   -1    0    0    0    0  0.00000000000E+00  0.00000000000E+00  0.45593999997E+02  0.45594000000E+02  0.51100000000E-03 0.  1.
         11   -1    0    0    0    0 -0.00000000000E+00 -0.00000000000E+00 -0.45593999997E+02  0.45594000000E+02  0.51100000000E-03 0. -1.
    9900012    2    1    2    0    0  0.28543817441E+02  0.24271754678E+01  0.14002858937E+02  0.59301941083E+02  0.49999994630E+02 0.  0.
        -12    1    1    2    0    0 -0.28543817441E+02 -0.24271754678E+01 -0.14002858937E+02  0.31886058917E+02  0.00000000000E+00 0.  1.
         11    1    3    3    0    0  0.11624926931E+02 -0.14898505934E+01 -0.12482184689E+02  0.17122018450E+02  0.51100000000E-03 0. -1.
        -11    1    3    3    0    0  0.20502314504E+02 -0.57991407674E+01  0.22753966873E+02  0.31172390707E+02  0.51100000000E-03 0.  1.
        -12    1    3    3    0    0 -0.35834239942E+01  0.97161668286E+01  0.37310767533E+01  0.11007531926E+02  0.00000000000E+00 0.  1.
</event>
<event>
 7    1  0.1139627E-011  0.5930195E+02  0.7816164E-02  0.1266605E+00
        -11   -1    0    0    0    0  0.00000000000E+00  0.00000000000E+00  0.45593999997E+02  0.45594000000E+02  0.51100000000E-03 0.  1.
         11   -1    0    0    0    0 -0.00000000000E+00 -0.00000000000E+00 -0.45593999997E+02  0.45594000000E+02  0.51100000000E-03 0. -1.
    9900012    2    1    2    0    0  0.11774444815E+02  0.20960086834E+02 -0.20946531579E+02  0.59301953272E+02  0.50000016859E+02 0.  0.
        -12    1    1    2    0    0 -0.11774444815E+02 -0.20960086834E+02  0.20946531579E+02  0.31886046728E+02  0.00000000000E+00 0.  1.
         11    1    3    3    0    0 -0.29991261948E+01 -0.73487538597E+01 -0.20356078863E+02  0.21848773150E+02  0.51100000000E-03 0. -1.
        -11    1    3    3    0    0  0.14732253281E+02  0.10690862236E+02 -0.57603339328E+01  0.19092282979E+02  0.51100000000E-03 0.  1.
         12    1    3    3    0    0  0.41317728887E-01  0.17617978457E+02  0.51698812172E+01  0.18360897143E+02  0.00000000000E+00 0. -1.
</event>
<event>
 7    1  0.1139627E-011  0.5930189E+02  0.7816164E-02  0.1266605E+00
        -11   -1    0    0    0    0  0.00000000000E+00  0.00000000000E+00  0.45593999997E+02  0.45594000000E+02  0.51100000000E-03 0.  1.
         11   -1    0    0    0    0 -0.00000000000E+00 -0.00000000000E+00 -0.45593999997E+02  0.45594000000E+02  0.51100000000E-03 0. -1.
    9900012    2    1    2    0    0 -0.24473330979E+02 -0.17426480126E+02 -0.10681662054E+02  0.59301889497E+02  0.49999900548E+02 0.  0.
        -12    1    1    2    0    0  0.24473330979E+02  0.17426480126E+02  0.10681662054E+02  0.31886110503E+02  0.00000000000E+00 0.  1.
         11    1    3    3    0    0 -0.17095159999E+02  0.53006920776E+01 -0.12746544483E+02  0.21973079629E+02  0.51100000000E-03 0. -1.
        -11    1    3    3    0    0 -0.91749285783E+01 -0.10523221702E+02  0.14278457051E+02  0.19969773294E+02  0.51100000000E-03 0.  1.
         12    1    3    3    0    0  0.17967575974E+01 -0.12203950502E+02 -0.12213574622E+02  0.17359036573E+02  0.00000000000E+00 0. -1.
</event>
<event>
 7    1  0.1139627E-011  0.5930198E+02  0.7816164E-02  0.1266605E+00
        -11   -1    0    0    0    0  0.00000000000E+00  0.00000000000E+00  0.45593999997E+02  0.45594000000E+02  0.51100000000E-03 0.  1.
         11   -1    0    0    0    0 -0.00000000000E+00 -0.00000000000E+00 -0.45593999997E+02  0.45594000000E+02  0.51100000000E-03 0. -1.
    9900012    2    1    2    0    0  0.25839069980E+02  0.75338428000E+00 -0.18667975417E+02  0.59301977490E+02  0.50000061027E+02 0.  0.
        -12    1    1    2    0    0 -0.25839069980E+02 -0.75338428000E+00  0.18667975417E+02  0.31886022510E+02  0.00000000000E+00 0.  1.
         11    1    3    3    0    0  0.11884311548E+02  0.19742383006E+02 -0.14146166183E+02  0.27039093285E+02  0.51100000000E-03 0. -1.
        -11    1    3    3    0    0  0.19815903397E+02 -0.14292160309E+02 -0.35811851533E+01  0.24693334345E+02  0.51100000000E-03 0.  1.
        -12    1    3    3    0    0 -0.58611449651E+01 -0.46968384171E+01 -0.94062408114E+00  0.75695498598E+01  0.00000000000E+00 0.  1.
</event>
<event>
 7    1  0.1139627E-011  0.5930197E+02  0.7816164E-02  0.1266605E+00
        -11   -1    0    0    0    0  0.00000000000E+00  0.00000000000E+00  0.45593999997E+02  0.45594000000E+02  0.51100000000E-03 0. -1.
         11   -1    0    0    0    0 -0.00000000000E+00 -0.00000000000E+00 -0.45593999997E+02  0.45594000000E+02  0.51100000000E-03 0.  1.
    9900012    2    1    2    0    0 -0.19775317811E+02 -0.17992493803E+02  0.17376005605E+02  0.59301974870E+02  0.50000056249E+02 0.  0.
        -12    1    1    2    0    0  0.19775317811E+02  0.17992493803E+02 -0.17376005605E+02  0.31886025130E+02  0.00000000000E+00 0.  1.
         11    1    3    3    0    0 -0.23652651578E+02 -0.20628669206E+02  0.24492695953E+02  0.39810577429E+02  0.51100000000E-03 0. -1.
        -11    1    3    3    0    0  0.71883062651E+01 -0.30556401477E+01  0.21704386320E+01  0.81067556882E+01  0.51100000000E-03 0.  1.
        -12    1    3    3    0    0 -0.33109724986E+01  0.56918155510E+01 -0.92871289800E+01  0.11384641753E+02  0.00000000000E+00 0.  1.
</event>
<event>
 7    1  0.1139627E-011  0.5930194E+02  0.7816164E-02  0.1266605E+00
        -11   -1    0    0    0    0  0.00000000000E+00  0.00000000000E+00  0.45593999997E+02  0.45594000000E+02  0.51100000000E-03 0.  1.
         11   -1    0    0    0    0 -0.00000000000E+00 -0.00000000000E+00 -0.45593999997E+02  0.45594000000E+02  0.51100000000E-03 0. -1.
    9900012    2    1    2    0    0  0.11877129402E+02 -0.20124302722E+02 -0.21694857058E+02  0.59301943711E+02  0.49999999423E+02 0.  0.
        -12    1    1    2    0    0 -0.11877129402E+02  0.20124302722E+02  0.21694857058E+02  0.31886056289E+02  0.00000000000E+00 0.  1.
         11    1    3    3    0    0 -0.37229489642E+01  0.13176117222E+02 -0.18245310868E+01  0.13813012994E+02  0.51100000000E-03 0. -1.
        -11    1    3    3    0    0 -0.21439068481E+01 -0.84959517768E+01 -0.10304342894E+02  0.13526160427E+02  0.51100000000E-03 0.  1.
         12    1    3    3    0    0  0.17743985214E+02 -0.24804468167E+02 -0.95659830774E+01  0.31962770290E+02  0.00000000000E+00 0. -1.
</event>
<event>
 7    1  0.1139627E-011  0.5930197E+02  0.7816164E-02  0.1266605E+00
        -11   -1    0    0    0    0  0.00000000000E+00  0.00000000000E+00  0.45593999997E+02  0.45594000000E+02  0.51100000000E-03 0.  1.
         11   -1    0    0    0    0 -0.00000000000E+00 -0.00000000000E+00 -0.45593999997E+02  0.45594000000E+02  0.51100000000E-03 0. -1.
    9900012    2    1    2    0    0  0.19749257484E+02  0.18927745260E+02 -0.16383708734E+02  0.59301974477E+02  0.50000055532E+02 0.  0.
        -12    1    1    2    0    0 -0.19749257484E+02 -0.18927745260E+02  0.16383708734E+02  0.31886025523E+02  0.00000000000E+00 0.  1.
         11    1    3    3    0    0  0.12165330491E+02  0.18590665979E+02 -0.45649818278E+01  0.22681428236E+02  0.51100000000E-03 0. -1.
        -11    1    3    3    0    0  0.11557980314E+02 -0.36877703690E+01 -0.21914327356E+02  0.25048439132E+02  0.51100000000E-03 0.  1.
        -12    1    3    3    0    0 -0.39740533217E+01  0.40248496498E+01  0.10095600449E+02  0.11572107109E+02  0.00000000000E+00 0.  1.
</event>
<event>
 7    1  0.1139627E-011  0.5930194E+02  0.7816164E-02  0.1266605E+00
        -11   -1    0    0    0    0  0.00000000000E+00  0.00000000000E+00  0.45593999997E+02  0.45594000000E+02  0.51100000000E-03 0.  1.
         11   -1    0    0    0    0 -0.00000000000E+00 -0.00000000000E+00 -0.45593999997E+02  0.45594000000E+02  0.51100000000E-03 0. -1.
    9900012    2    1    2    0    0 -0.28931136628E+02  0.12588277137E+02  0.46092564108E+01  0.59301942976E+02  0.49999998082E+02 0.  0.
        -12    1    1    2    0    0  0.28931136628E+02 -0.12588277137E+02 -0.46092564108E+01  0.31886057024E+02  0.00000000000E+00 0.  1.
         11    1    3    3    0    0 -0.25731877079E+02  0.24171974678E+02  0.49095655517E+01  0.35644322016E+02  0.51100000000E-03 0. -1.
        -11    1    3    3    0    0  0.27696635148E+01  0.14603754710E+00  0.77488508458E+01  0.82302522830E+01  0.51100000000E-03 0.  1.
         12    1    3    3    0    0 -0.59689230644E+01 -0.11729735089E+02 -0.80491599866E+01  0.15427368677E+02  0.00000000000E+00 0. -1.
</event>
<event>
 7    1  0.1139627E-011  0.5930197E+02  0.7816164E-02  0.1266605E+00
        -11   -1    0    0    0    0  0.00000000000E+00  0.00000000000E+00  0.45593999997E+02  0.45594000000E+02  0.51100000000E-03 0.  1.
         11   -1    0    0    0    0 -0.00000000000E+00 -0.00000000000E+00 -0.45593999997E+02  0.45594000000E+02  0.51100000000E-03 0. -1.
    9900012    2    1    2    0    0 -0.15759058596E+02  0.64721721576E+01 -0.26953333547E+02  0.59301966544E+02  0.50000041064E+02 0.  0.
        -12    1    1    2    0    0  0.15759058596E+02 -0.64721721576E+01  0.26953333547E+02  0.31886033456E+02  0.00000000000E+00 0.  1.
         11    1    3    3    0    0 -0.13588669218E+02  0.13165780314E+02 -0.11725296260E+02  0.22259206523E+02  0.51100000000E-03 0. -1.
        -11    1    3    3    0    0  0.98868213307E+01 -0.58127861242E+01 -0.20783554809E+02  0.23738025809E+02  0.51100000000E-03 0.  1.
        -12    1    3    3    0    0 -0.12057210708E+02 -0.88082203207E+00  0.55555175219E+01  0.13304734212E+02  0.00000000000E+00 0.  1.
</event>
<event>
 7    1  0.1139627E-011  0.5930197E+02  0.7816164E-02  0.1266605E+00
        -11   -1    0    0    0    0  0.00000000000E+00  0.00000000000E+00  0.45593999997E+02  0.45594000000E+02  0.51100000000E-03 0. -1.
         11   -1    0    0    0    0 -0.00000000000E+00 -0.00000000000E+00 -0.45593999997E+02  0.45594000000E+02  0.51100000000E-03 0.  1.
    9900012    2    1    2    0    0 -0.14457049005E+02  0.74347140340E+01  0.27430601275E+02  0.59301966615E+02  0.50000041195E+02 0.  0.
        -12    1    1    2    0    0  0.14457049005E+02 -0.74347140340E+01 -0.27430601275E+02  0.31886033385E+02  0.00000000000E+00 0.  1.
         11    1    3    3    0    0 -0.17525743660E+02  0.99911956961E+01  0.13697025600E+02  0.24384097129E+02  0.51100000000E-03 0. -1.
        -11    1    3    3    0    0  0.75542007903E+01 -0.75538572898E+01 -0.72335919208E+01  0.12901610825E+02  0.51100000000E-03 0.  1.
        -12    1    3    3    0    0 -0.44855061359E+01  0.49973756277E+01  0.20967167596E+02  0.22016258661E+02  0.00000000000E+00 0.  1.
</event>
<event>
 7    1  0.1139627E-011  0.5930195E+02  0.7816164E-02  0.1266605E+00
        -11   -1    0    0    0    0  0.00000000000E+00  0.00000000000E+00  0.45593999997E+02  0.45594000000E+02  0.51100000000E-03 0.  1.
         11   -1    0    0    0    0 -0.00000000000E+00 -0.00000000000E+00 -0.45593999997E+02  0.45594000000E+02  0.51100000000E-03 0. -1.
    9900012    2    1    2    0    0  0.86663317610E+00 -0.53060648594E+01 -0.31429524895E+02  0.59301946427E+02  0.50000004375E+02 0.  0.
        -12    1    1    2    0    0 -0.86663317610E+00  0.53060648594E+01  0.31429524895E+02  0.31886053573E+02  0.00000000000E+00 0.  1.
         11    1    3    3    0    0  0.42669444147E+01  0.13203857742E+02 -0.18884206614E+02  0.23434204352E+02  0.51100000000E-03 0. -1.
        -11    1    3    3    0    0  0.64082947437E+01 -0.62808833892E+01  0.65883505139E+01  0.11132030382E+02  0.51100000000E-03 0.  1.
         12    1    3    3    0    0 -0.98086059823E+01 -0.12229039212E+02 -0.19133668795E+02  0.24735711693E+02  0.00000000000E+00 0. -1.
</event>
<event>
 7    1  0.1139627E-011  0.5930201E+02  0.7816164E-02  0.1266605E+00
        -11   -1    0    0    0    0  0.00000000000E+00  0.00000000000E+00  0.45593999997E+02  0.45594000000E+02  0.51100000000E-03 0. -1.
         11   -1    0    0    0    0 -0.00000000000E+00 -0.00000000000E+00 -0.45593999997E+02  0.45594000000E+02  0.51100000000E-03 0.  1.
    9900012    2    1    2    0    0 -0.22810023417E+02  0.21304652887E+02  0.65215805517E+01  0.59302009098E+02  0.50000118672E+02 0.  0.
        -12    1    1    2    0    0  0.22810023417E+02 -0.21304652887E+02 -0.65215805517E+01  0.31885990902E+02  0.00000000000E+00 0.  1.
         11    1    3    3    0    0 -0.80775884466E+01 -0.55817783629E+01  0.67624929440E+01  0.11922038244E+02  0.51100000000E-03 0. -1.
        -11    1    3    3    0    0 -0.22425177895E+02  0.23330528612E+02 -0.10547916904E+02  0.34036167825E+02  0.51100000000E-03 0.  1.
        -12    1    3    3    0    0  0.76927429242E+01  0.35559026383E+01  0.10307004512E+02  0.13343803029E+02  0.00000000000E+00 0.  1.
</event>
<event>
 7    1  0.1139627E-011  0.5930196E+02  0.7816164E-02  0.1266605E+00
        -11   -1    0    0    0    0  0.00000000000E+00  0.00000000000E+00  0.45593999997E+02  0.45594000000E+02  0.51100000000E-03 0.  1.
         11   -1    0    0    0    0 -0.00000000000E+00 -0.00000000000E+00 -0.45593999997E+02  0.45594000000E+02  0.51100000000E-03 0. -1.
    9900012    2    1    2    0    0 -0.18487982530E+02 -0.69116175570E+01 -0.25042841374E+02  0.59301955099E+02  0.50000020192E+02 0.  0.
        -12    1    1    2    0    0  0.18487982530E+02  0.69116175570E+01  0.25042841374E+02  0.31886044901E+02  0.00000000000E+00 0.  1.
         11    1    3    3    0    0  0.13181692100E+02 -0.13775391300E+01 -0.12728611519E+02  0.18375858406E+02  0.51100000000E-03 0. -1.
        -11    1    3    3    0    0 -0.23674427042E+02  0.79463460861E+00 -0.17533678950E+02  0.29470999944E+02  0.51100000000E-03 0.  1.
         12    1    3    3    0    0 -0.79952475890E+01 -0.63287130356E+01  0.52194490948E+01  0.11455096750E+02  0.00000000000E+00 0. -1.
</event>
<event>
 7    1  0.1139627E-011  0.5930199E+02  0.7816164E-02  0.1266605E+00
        -11   -1    0    0    0    0  0.00000000000E+00  0.00000000000E+00  0.45593999997E+02  0.45594000000E+02  0.51100000000E-03 0. -1.
         11   -1    0    0    0    0 -0.00000000000E+00 -0.00000000000E+00 -0.45593999997E+02  0.45594000000E+02  0.51100000000E-03 0.  1.
    9900012    2    1    2    0    0 -0.30308566930E+02  0.58907735319E+01  0.79628767841E+01  0.59301986627E+02  0.50000077691E+02 0.  0.
        -12    1    1    2    0    0  0.30308566930E+02 -0.58907735319E+01 -0.79628767841E+01  0.31886013373E+02  0.00000000000E+00 0.  1.
         11    1    3    3    0    0  0.19247382066E+01 -0.67848899689E+01  0.93165697161E+00  0.71138831891E+01  0.51100000000E-03 0. -1.
        -11    1    3    3    0    0 -0.36600386177E+02  0.95963983717E+01 -0.58085697054E+01  0.38280786464E+02  0.51100000000E-03 0.  1.
        -12    1    3    3    0    0  0.43670810405E+01  0.30792651291E+01  0.12839789518E+02  0.13907316974E+02  0.00000000000E+00 0.  1.
</event>
<event>
 7    1  0.1139627E-011  0.5930196E+02  0.7816164E-02  0.1266605E+00
        -11   -1    0    0    0    0  0.00000000000E+00  0.00000000000E+00  0.45593999997E+02  0.45594000000E+02  0.51100000000E-03 0.  1.
         11   -1    0    0    0    0 -0.00000000000E+00 -0.00000000000E+00 -0.45593999997E+02  0.45594000000E+02  0.51100000000E-03 0. -1.
    9900012    2    1    2    0    0  0.31566372229E+02 -0.34959391763E+01 -0.28394341600E+01  0.59301955517E+02  0.50000020954E+02 0.  0.
        -12    1    1    2    0    0 -0.31566372229E+02  0.34959391763E+01  0.28394341600E+01  0.31886044483E+02  0.00000000000E+00 0.  1.
         11    1    3    3    0    0  0.25141081689E+02  0.13495158057E+02 -0.11652370061E+02  0.30821599695E+02  0.51100000000E-03 0. -1.
        -11    1    3    3    0    0  0.11260174191E+02 -0.73763302309E+01  0.11136230187E+02  0.17470472046E+02  0.51100000000E-03 0.  1.
        -12    1    3    3    0    0 -0.48348836514E+01 -0.96147670019E+01 -0.23232942851E+01  0.11009883776E+02  0.00000000000E+00 0.  1.
</event>
<event>
 7    1  0.1139627E-011  0.5930193E+02  0.7816164E-02  0.1266605E+00
        -11   -1    0    0    0    0  0.00000000000E+00  0.00000000000E+00  0.45593999997E+02  0.45594000000E+02  0.51100000000E-03 0. -1.
         11   -1    0    0    0    0 -0.00000000000E+00 -0.00000000000E+00 -0.45593999997E+02  0.45594000000E+02  0.51100000000E-03 0.  1.
    9900012    2    1    2    0    0 -0.21151436945E+02 -0.23709160875E+02 -0.26858306774E+01  0.59301932813E+02  0.49999979546E+02 0.  0.
        -12    1    1    2    0    0  0.21151436945E+02  0.23709160875E+02  0.26858306774E+01  0.31886067187E+02  0.00000000000E+00 0.  1.
         11    1    3    3    0    0  0.97958169188E+00 -0.11094003721E+02  0.35945923203E+01  0.11702888236E+02  0.51100000000E-03 0. -1.
        -11    1    3    3    0    0  0.38984748889E+01 -0.41763714330E+01 -0.17210183497E+02  0.18133686913E+02  0.51100000000E-03 0.  1.
        -12    1    3    3    0    0 -0.26029493526E+02 -0.84387857206E+01  0.10929760499E+02  0.29465357663E+02  0.00000000000E+00 0.  1.
</event>
<event>
 7    1  0.1139627E-011  0.5930190E+02  0.7816164E-02  0.1266605E+00
        -11   -1    0    0    0    0  0.00000000000E+00  0.00000000000E+00  0.45593999997E+02  0.45594000000E+02  0.51100000000E-03 0.  1.
         11   -1    0    0    0    0 -0.00000000000E+00 -0.00000000000E+00 -0.45593999997E+02  0.45594000000E+02  0.51100000000E-03 0. -1.
    9900012    2    1    2    0    0  0.87143954232E+01  0.18908341953E+02 -0.24150715898E+02  0.59301903322E+02  0.49999925762E+02 0.  0.
        -12    1    1    2    0    0 -0.87143954232E+01 -0.18908341953E+02  0.24150715898E+02  0.31886096678E+02  0.00000000000E+00 0.  1.
         11    1    3    3    0    0  0.15637253139E+01 -0.56179463487E+01 -0.27619052344E+02  0.28227975674E+02  0.51100000000E-03 0. -1.
        -11    1    3    3    0    0 -0.26071470304E+01  0.19911200234E+02  0.25066506529E+01  0.20237005909E+02  0.51100000000E-03 0.  1.
         12    1    3    3    0    0  0.97578171397E+01  0.46150880673E+01  0.96168579332E+00  0.10836921738E+02  0.00000000000E+00 0. -1.
</event>
<event>
 7    1  0.1139627E-011  0.5930194E+02  0.7816164E-02  0.1266605E+00
        -11   -1    0    0    0    0  0.00000000000E+00  0.00000000000E+00  0.45593999997E+02  0.45594000000E+02  0.51100000000E-03 0. -1.
         11   -1    0    0    0    0 -0.00000000000E+00 -0.00000000000E+00 -0.45593999997E+02  0.45594000000E+02  0.51100000000E-03 0.  1.
    9900012    2    1    2    0    0  0.26584392787E+02  0.11661211602E+02  0.13191178808E+02  0.59301937305E+02  0.49999987739E+02 0.  0.
        -12    1    1    2    0    0 -0.26584392787E+02 -0.11661211602E+02 -0.13191178808E+02  0.31886062695E+02  0.00000000000E+00 0.  1.
         11    1    3    3    0    0  0.29759465834E+02  0.25378103988E+02  0.11775635668E+02  0.40845312637E+02  0.51100000000E-03 0. -1.
        -11    1    3    3    0    0  0.11866900892E+01 -0.67807222277E+00 -0.35769892724E+01  0.38292124286E+01  0.51100000000E-03 0.  1.
         12    1    3    3    0    0 -0.43617631368E+01 -0.13038820163E+02  0.49925324120E+01  0.14627412239E+02  0.00000000000E+00 0. -1.
</event>
<event>
 7    1  0.1139627E-011  0.5930192E+02  0.7816164E-02  0.1266605E+00
        -11   -1    0    0    0    0  0.00000000000E+00  0.00000000000E+00  0.45593999997E+02  0.45594000000E+02  0.51100000000E-03 0.  1.
         11   -1    0    0    0    0 -0.00000000000E+00 -0.00000000000E+00 -0.45593999997E+02  0.45594000000E+02  0.51100000000E-03 0. -1.
    9900012    2    1    2    0    0 -0.23076299213E+02  0.19848982343E+02 -0.94986582019E+01  0.59301918506E+02  0.49999953454E+02 0.  0.
        -12    1    1    2    0    0  0.23076299213E+02 -0.19848982343E+02  0.94986582019E+01  0.31886081494E+02  0.00000000000E+00 0.  1.
         11    1    3    3    0    0 -0.10407056456E+02  0.20042673549E+02 -0.13599770768E+02  0.26362271379E+02  0.51100000000E-03 0. -1.
        -11    1    3    3    0    0 -0.20130552324E+02  0.22458312705E+01  0.10497126686E+02  0.22813867798E+02  0.51100000000E-03 0.  1.
        -12    1    3    3    0    0  0.74613095679E+01 -0.24395224765E+01 -0.63960141201E+01  0.10125779328E+02  0.00000000000E+00 0.  1.
</event>
<event>
 7    1  0.1139627E-011  0.5930195E+02  0.7816164E-02  0.1266605E+00
        -11   -1    0    0    0    0  0.00000000000E+00  0.00000000000E+00  0.45593999997E+02  0.45594000000E+02  0.51100000000E-03 0.  1.
         11   -1    0    0    0    0 -0.00000000000E+00 -0.00000000000E+00 -0.45593999997E+02  0.45594000000E+02  0.51100000000E-03 0. -1.
    9900012    2    1    2    0    0 -0.31196527130E+02  0.55653693565E+01  0.35388209544E+01  0.59301954544E+02  0.50000019180E+02 0.  0.
        -12    1    1    2    0    0  0.31196527130E+02 -0.55653693565E+01 -0.35388209544E+01  0.31886045456E+02  0.00000000000E+00 0.  1.
         11    1    3    3    0    0 -0.62953228304E+01  0.18760323394E+02 -0.50671059792E+01  0.20426854546E+02  0.51100000000E-03 0. -1.
        -11    1    3    3    0    0 -0.13749800892E+02 -0.20338090055E+02  0.41216212033E+01  0.24893426708E+02  0.51100000000E-03 0.  1.
         12    1    3    3    0    0 -0.11151403407E+02  0.71431360171E+01  0.44843057303E+01  0.13981673290E+02  0.00000000000E+00 0. -1.
</event>
<event>
 7    1  0.1139627E-011  0.5930194E+02  0.7816164E-02  0.1266605E+00
        -11   -1    0    0    0    0  0.00000000000E+00  0.00000000000E+00  0.45593999997E+02  0.45594000000E+02  0.51100000000E-03 0.  1.
         11   -1    0    0    0    0 -0.00000000000E+00 -0.00000000000E+00 -0.45593999997E+02  0.45594000000E+02  0.51100000000E-03 0. -1.
    9900012    2    1    2    0    0  0.26775499825E+02 -0.16194606421E+02  0.61260061629E+01  0.59301943180E+02  0.49999998454E+02 0.  0.
        -12    1    1    2    0    0 -0.26775499825E+02  0.16194606421E+02 -0.61260061629E+01  0.31886056820E+02  0.00000000000E+00 0.  1.
         11    1    3    3    0    0  0.24175892930E+02 -0.20388075970E+01 -0.61725267277E+01  0.25034588510E+02  0.51100000000E-03 0. -1.
        -11    1    3    3    0    0  0.71651010143E+00 -0.65933888559E+01  0.21330554725E+02  0.22337831776E+02  0.51100000000E-03 0.  1.
        -12    1    3    3    0    0  0.18830967932E+01 -0.75624099684E+01 -0.90320218345E+01  0.11929522894E+02  0.00000000000E+00 0.  1.
</event>
<event>
 7    1  0.1139627E-011  0.5930197E+02  0.7816164E-02  0.1266605E+00
        -11   -1    0    0    0    0  0.00000000000E+00  0.00000000000E+00  0.45593999997E+02  0.45594000000E+02  0.51100000000E-03 0. -1.
         11   -1    0    0    0    0 -0.00000000000E+00 -0.00000000000E+00 -0.45593999997E+02  0.45594000000E+02  0.51100000000E-03 0.  1.
    9900012    2    1    2    0    0 -0.10879289332E+02 -0.29666642522E+02  0.42720215911E+01  0.59301971973E+02  0.50000050965E+02 0.  0.
        -12    1    1    2    0    0  0.10879289332E+02  0.29666642522E+02 -0.42720215911E+01  0.31886028027E+02  0.00000000000E+00 0.  1.
         11    1    3    3    0    0 -0.85451350141E+01 -0.18811489209E+02  0.94956053520E+01  0.22738908943E+02  0.51100000000E-03 0. -1.
        -11    1    3    3    0    0 -0.13117707151E+02  0.69211099264E+01 -0.53624677344E+01  0.15771241675E+02  0.51100000000E-03 0.  1.
        -12    1    3    3    0    0  0.10783552833E+02 -0.17776263240E+02  0.13888397348E+00  0.20791821355E+02  0.00000000000E+00 0.  1.
</event>
<event>
 7    1  0.1139627E-011  0.5930195E+02  0.7816164E-02  0.1266605E+00
        -11   -1    0    0    0    0  0.00000000000E+00  0.00000000000E+00  0.45593999997E+02  0.45594000000E+02  0.51100000000E-03 0.  1.
         11   -1    0    0    0    0 -0.00000000000E+00 -0.00000000000E+00 -0.45593999997E+02  0.45594000000E+02  0.51100000000E-03 0. -1.
    9900012    2    1    2    0    0  0.30550377231E+02 -0.88871994657E+01  0.21004979095E+01  0.59301953604E+02  0.50000017465E+02 0.  0.
        -12    1    1    2    0    0 -0.30550377231E+02  0.88871994657E+01 -0.21004979095E+01  0.31886046396E+02  0.00000000000E+00 0.  1.
         11    1    3    3    0    0  0.12277288700E+02  0.79541441483E+01  0.13398980425E+02  0.19837663764E+02  0.51100000000E-03 0. -1.
        -11    1    3    3    0    0  0.24788828572E+02 -0.15559965045E+02 -0.39059823582E+01  0.29527194798E+02  0.51100000000E-03 0.  1.
         12    1    3    3    0    0 -0.65157400402E+01 -0.12813785689E+01 -0.73925001568E+01  0.99370950421E+01  0.00000000000E+00 0. -1.
</event>
<event>
 7    1  0.1139627E-011  0.5930195E+02  0.7816164E-02  0.1266605E+00
        -11   -1    0    0    0    0  0.00000000000E+00  0.00000000000E+00  0.45593999997E+02  0.45594000000E+02  0.51100000000E-03 0.  1.
         11   -1    0    0    0    0 -0.00000000000E+00 -0.00000000000E+00 -0.45593999997E+02  0.45594000000E+02  0.51100000000E-03 0. -1.
    9900012    2    1    2    0    0 -0.25112084537E+02 -0.90529452593E+01  0.17439835268E+02  0.59301945653E+02  0.50000002964E+02 0.  0.
        -12    1    1    2    0    0  0.25112084537E+02  0.90529452593E+01 -0.17439835268E+02  0.31886054347E+02  0.00000000000E+00 0.  1.
         11    1    3    3    0    0 -0.15212374658E+02  0.33291192588E+01 -0.11097494300E+02  0.19122075143E+02  0.51100000000E-03 0. -1.
        -11    1    3    3    0    0  0.16411749172E+01 -0.15652906050E+02  0.12209248460E+02  0.19919153374E+02  0.51100000000E-03 0.  1.
         12    1    3    3    0    0 -0.11540884796E+02  0.32708415316E+01  0.16328081109E+02  0.20260717137E+02  0.00000000000E+00 0. -1.
</event>
<event>
 7    1  0.1139627E-011  0.5930197E+02  0.7816164E-02  0.1266605E+00
        -11   -1    0    0    0    0  0.00000000000E+00  0.00000000000E+00  0.45593999997E+02  0.45594000000E+02  0.51100000000E-03 0.  1.
         11   -1    0    0    0    0 -0.00000000000E+00 -0.00000000000E+00 -0.45593999997E+02  0.45594000000E+02  0.51100000000E-03 0. -1.
    9900012    2    1    2    0    0  0.15361152730E+02 -0.18850126654E+02 -0.20625865346E+02  0.59301974702E+02  0.50000055942E+02 0.  0.
        -12    1    1    2    0    0 -0.15361152730E+02  0.18850126654E+02  0.20625865346E+02  0.31886025298E+02  0.00000000000E+00 0.  1.
         11    1    3    3    0    0  0.16332542462E+02 -0.34048424133E+02 -0.10010841349E+02  0.39067429836E+02  0.51100000000E-03 0. -1.
        -11    1    3    3    0    0 -0.18282267830E+01  0.82154107881E+01 -0.12306255510E+01  0.85058701551E+01  0.51100000000E-03 0.  1.
         12    1    3    3    0    0  0.85683705117E+00  0.69828866911E+01 -0.93843984463E+01  0.11728674711E+02  0.00000000000E+00 0. -1.
</event>
<event>
 7    1  0.1139627E-011  0.5930195E+02  0.7816164E-02  0.1266605E+00
        -11   -1    0    0    0    0  0.00000000000E+00  0.00000000000E+00  0.45593999997E+02  0.45594000000E+02  0.51100000000E-03 0.  1.
         11   -1    0    0    0    0 -0.00000000000E+00 -0.00000000000E+00 -0.45593999997E+02  0.45594000000E+02  0.51100000000E-03 0. -1.
    9900012    2    1    2    0    0 -0.89947709428E+01 -0.10797090491E+02 -0.28622314382E+02  0.59301953711E+02  0.50000017659E+02 0.  0.
        -12    1    1    2    0    0  0.89947709428E+01  0.10797090491E+02  0.28622314382E+02  0.31886046289E+02  0.00000000000E+00 0.  1.
         11    1    3    3    0    0 -0.79923134738E+01 -0.25976743987E+02 -0.30166873848E+02  0.40604292641E+02  0.51100000000E-03 0. -1.
        -11    1    3    3    0    0  0.14330027732E+01  0.16525716482E+01  0.41660072827E+01  0.47053275063E+01  0.51100000000E-03 0.  1.
         12    1    3    3    0    0 -0.24354602422E+01  0.13527081847E+02 -0.26214478162E+01  0.13992333563E+02  0.00000000000E+00 0. -1.
</event>
<event>
 7    1  0.1139627E-011  0.5930194E+02  0.7816164E-02  0.1266605E+00
        -11   -1    0    0    0    0  0.00000000000E+00  0.00000000000E+00  0.45593999997E+02  0.45594000000E+02  0.51100000000E-03 0. -1.
         11   -1    0    0    0    0 -0.00000000000E+00 -0.00000000000E+00 -0.45593999997E+02  0.45594000000E+02  0.51100000000E-03 0.  1.
    9900012    2    1    2    0    0  0.48149722981E+01 -0.15597353595E+02  0.27390861087E+02  0.59301942413E+02  0.49999997054E+02 0.  0.
        -12    1    1    2    0    0 -0.48149722981E+01  0.15597353595E+02 -0.27390861087E+02  0.31886057587E+02  0.00000000000E+00 0.  1.
         11    1    3    3    0    0  0.10731880796E+02  0.10355712845E+02  0.71741393787E+01  0.16549390624E+02  0.51100000000E-03 0. -1.
        -11    1    3    3    0    0 -0.16009602706E+02 -0.17760238033E+02  0.88878963150E+01  0.25509373472E+02  0.51100000000E-03 0.  1.
         12    1    3    3    0    0  0.10092694208E+02 -0.81928284071E+01  0.11328825393E+02  0.17243178317E+02  0.00000000000E+00 0. -1.
</event>
<event>
 7    1  0.1139627E-011  0.5930196E+02  0.7816164E-02  0.1266605E+00
        -11   -1    0    0    0    0  0.00000000000E+00  0.00000000000E+00  0.45593999997E+02  0.45594000000E+02  0.51100000000E-03 0.  1.
         11   -1    0    0    0    0 -0.00000000000E+00 -0.00000000000E+00 -0.45593999997E+02  0.45594000000E+02  0.51100000000E-03 0. -1.
    9900012    2    1    2    0    0 -0.24135771278E+02 -0.65228352112E+01 -0.19789818978E+02  0.59301956509E+02  0.50000022762E+02 0.  0.
        -12    1    1    2    0    0  0.24135771278E+02  0.65228352112E+01  0.19789818978E+02  0.31886043491E+02  0.00000000000E+00 0.  1.
         11    1    3    3    0    0 -0.25823199202E+02 -0.31692343788E+01  0.10138101565E+02  0.27922441998E+02  0.51100000000E-03 0. -1.
        -11    1    3    3    0    0  0.40054225548E+01  0.72699984148E-01 -0.68638312686E+01  0.79473816491E+01  0.51100000000E-03 0.  1.
         12    1    3    3    0    0 -0.23179946309E+01 -0.34263008166E+01 -0.23064089274E+02  0.23432132861E+02  0.00000000000E+00 0. -1.
</event>
<event>
 7    1  0.1139627E-011  0.5930195E+02  0.7816164E-02  0.1266605E+00
        -11   -1    0    0    0    0  0.00000000000E+00  0.00000000000E+00  0.45593999997E+02  0.45594000000E+02  0.51100000000E-03 0. -1.
         11   -1    0    0    0    0 -0.00000000000E+00 -0.00000000000E+00 -0.45593999997E+02  0.45594000000E+02  0.51100000000E-03 0.  1.
    9900012    2    1    2    0    0  0.16620897596E+02  0.25508228551E+02 -0.94760872731E+01  0.59301949904E+02  0.50000010717E+02 0.  0.
        -12    1    1    2    0    0 -0.16620897596E+02 -0.25508228551E+02  0.94760872731E+01  0.31886050096E+02  0.00000000000E+00 0.  1.
         11    1    3    3    0    0 -0.10100448205E+02  0.45512640769E+01  0.77575010710E+01  0.13524491922E+02  0.51100000000E-03 0. -1.
        -11    1    3    3    0    0  0.26002794478E+02  0.25313002623E+02 -0.10593554818E+02  0.37803661547E+02  0.51100000000E-03 0.  1.
         12    1    3    3    0    0  0.71855132234E+00 -0.43560381484E+01 -0.66400335263E+01  0.79737964348E+01  0.00000000000E+00 0. -1.
</event>
<event>
 7    1  0.1139627E-011  0.5930193E+02  0.7816164E-02  0.1266605E+00
        -11   -1    0    0    0    0  0.00000000000E+00  0.00000000000E+00  0.45593999997E+02  0.45594000000E+02  0.51100000000E-03 0.  1.
         11   -1    0    0    0    0 -0.00000000000E+00 -0.00000000000E+00 -0.45593999997E+02  0.45594000000E+02  0.51100000000E-03 0. -1.
    9900012    2    1    2    0    0  0.19873143299E+02  0.20365299819E+02 -0.14388680755E+02  0.59301931017E+02  0.49999976272E+02 0.  0.
        -12    1    1    2    0    0 -0.19873143299E+02 -0.20365299819E+02  0.14388680755E+02  0.31886068983E+02  0.00000000000E+00 0.  1.
         11    1    3    3    0    0 -0.37339439801E+01 -0.31615310593E+01 -0.95141498870E+01  0.10698442159E+02  0.51100000000E-03 0. -1.
        -11    1    3    3    0    0  0.30691674110E+02  0.88653982535E+01 -0.49003014396E+01  0.32320072715E+02  0.51100000000E-03 0.  1.
        -12    1    3    3    0    0 -0.70845868305E+01  0.14661432625E+02  0.25770571477E-01  0.16283416143E+02  0.00000000000E+00 0.  1.
</event>
<event>
 7    1  0.1139627E-011  0.5930196E+02  0.7816164E-02  0.1266605E+00
        -11   -1    0    0    0    0  0.00000000000E+00  0.00000000000E+00  0.45593999997E+02  0.45594000000E+02  0.51100000000E-03 0.  1.
         11   -1    0    0    0    0 -0.00000000000E+00 -0.00000000000E+00 -0.45593999997E+02  0.45594000000E+02  0.51100000000E-03 0. -1.
    9900012    2    1    2    0    0  0.27633625053E+02  0.37535927860E+00 -0.15904763436E+02  0.59301958726E+02  0.50000026807E+02 0.  0.
        -12    1    1    2    0    0 -0.27633625053E+02 -0.37535927860E+00  0.15904763436E+02  0.31886041274E+02  0.00000000000E+00 0.  1.
         11    1    3    3    0    0  0.87826709879E+01 -0.12022731905E+02 -0.26373094506E+02  0.30285665029E+02  0.51100000000E-03 0. -1.
        -11    1    3    3    0    0  0.12799395796E+02  0.15237584281E+02  0.53770901800E+01  0.20613626720E+02  0.51100000000E-03 0.  1.
        -12    1    3    3    0    0  0.60515582687E+01 -0.28394930979E+01  0.50912408903E+01  0.84026669776E+01  0.00000000000E+00 0.  1.
</event>
<event>
 7    1  0.1139627E-011  0.5930195E+02  0.7816164E-02  0.1266605E+00
        -11   -1    0    0    0    0  0.00000000000E+00  0.00000000000E+00  0.45593999997E+02  0.45594000000E+02  0.51100000000E-03 0.  1.
         11   -1    0    0    0    0 -0.00000000000E+00 -0.00000000000E+00 -0.45593999997E+02  0.45594000000E+02  0.51100000000E-03 0. -1.
    9900012    2    1    2    0    0  0.28878277355E+02 -0.11371635287E+02 -0.73110342245E+01  0.59301949547E+02  0.50000010066E+02 0.  0.
        -12    1    1    2    0    0 -0.28878277355E+02  0.11371635287E+02  0.73110342245E+01  0.31886050453E+02  0.00000000000E+00 0.  1.
         11    1    3    3    0    0  0.15420115175E+02 -0.27902438943E+02 -0.16382078222E+02  0.35842691558E+02  0.51100000000E-03 0. -1.
        -11    1    3    3    0    0  0.12355933470E+02  0.13675995100E+02  0.86851132122E+01  0.20374815966E+02  0.51100000000E-03 0.  1.
         12    1    3    3    0    0  0.11022287097E+01  0.28548085565E+01  0.38593078529E+00  0.30844420231E+01  0.00000000000E+00 0. -1.
</event>
<event>
 7    1  0.1139627E-011  0.5930192E+02  0.7816164E-02  0.1266605E+00
        -11   -1    0    0    0    0  0.00000000000E+00  0.00000000000E+00  0.45593999997E+02  0.45594000000E+02  0.51100000000E-03 0.  1.
         11   -1    0    0    0    0 -0.00000000000E+00 -0.00000000000E+00 -0.45593999997E+02  0.45594000000E+02  0.51100000000E-03 0. -1.
    9900012    2    1    2    0    0  0.27280037163E+02  0.16079269753E+02 -0.37388440702E+01  0.59301916854E+02  0.49999950442E+02 0.  0.
        -12    1    1    2    0    0 -0.27280037163E+02 -0.16079269753E+02  0.37388440702E+01  0.31886083146E+02  0.00000000000E+00 0.  1.
         11    1    3    3    0    0 -0.98450452858E+01  0.25130218024E+01 -0.13228922652E+02  0.16680665156E+02  0.51100000000E-03 0. -1.
        -11    1    3    3    0    0  0.42734551534E+01 -0.15559918183E+01 -0.15562265046E+01  0.48068046228E+01  0.51100000000E-03 0.  1.
         12    1    3    3    0    0  0.32851627295E+02  0.15122239769E+02  0.11046305086E+02  0.37814447075E+02  0.00000000000E+00 0. -1.
</event>
<event>
 7    1  0.1139627E-011  0.5930197E+02  0.7816164E-02  0.1266605E+00
        -11   -1    0    0    0    0  0.00000000000E+00  0.00000000000E+00  0.45593999997E+02  0.45594000000E+02  0.51100000000E-03 0. -1.
         11   -1    0    0    0    0 -0.00000000000E+00 -0.00000000000E+00 -0.45593999997E+02  0.45594000000E+02  0.51100000000E-03 0.  1.
    9900012    2    1    2    0    0  0.10969449017E+02  0.27473462621E+02 -0.11899541160E+02  0.59301967949E+02  0.50000043627E+02 0.  0.
        -12    1    1    2    0    0 -0.10969449017E+02 -0.27473462621E+02  0.11899541160E+02  0.31886032051E+02  0.00000000000E+00 0.  1.
         11    1    3    3    0    0 -0.10697657929E+02 -0.44250558386E+01 -0.11963272486E+02  0.16647549164E+02  0.51100000000E-03 0. -1.
        -11    1    3    3    0    0  0.99557748120E+01  0.10575951095E+02 -0.85416470404E+01  0.16850161071E+02  0.51100000000E-03 0.  1.
         12    1    3    3    0    0  0.11711332133E+02  0.21322567365E+02  0.86053783667E+01  0.25804257715E+02  0.00000000000E+00 0. -1.
</event>
<event>
 7    1  0.1139627E-011  0.5930196E+02  0.7816164E-02  0.1266605E+00
        -11   -1    0    0    0    0  0.00000000000E+00  0.00000000000E+00  0.45593999997E+02  0.45594000000E+02  0.51100000000E-03 0.  1.
         11   -1    0    0    0    0 -0.00000000000E+00 -0.00000000000E+00 -0.45593999997E+02  0.45594000000E+02  0.51100000000E-03 0. -1.
    9900012    2    1    2    0    0  0.18601503023E+01  0.34701750494E+01 -0.31642019772E+02  0.59301957767E+02  0.50000025058E+02 0.  0.
        -12    1    1    2    0    0 -0.18601503023E+01 -0.34701750494E+01  0.31642019772E+02  0.31886042233E+02  0.00000000000E+00 0.  1.
         11    1    3    3    0    0  0.12718588686E+02  0.51834387660E+01 -0.34551289696E+02  0.37180938066E+02  0.51100000000E-03 0. -1.
        -11    1    3    3    0    0  0.12815164092E+01  0.67212664732E+01  0.26463359856E+01  0.73362661975E+01  0.51100000000E-03 0.  1.
         12    1    3    3    0    0 -0.12139954793E+02 -0.84345301898E+01  0.26293393813E+00  0.14784753503E+02  0.00000000000E+00 0. -1.
</event>
<event>
 7    1  0.1139627E-011  0.5930188E+02  0.7816164E-02  0.1266605E+00
        -11   -1    0    0    0    0  0.00000000000E+00  0.00000000000E+00  0.45593999997E+02  0.45594000000E+02  0.51100000000E-03 0. -1.
         11   -1    0    0    0    0 -0.00000000000E+00 -0.00000000000E+00 -0.45593999997E+02  0.45594000000E+02  0.51100000000E-03 0.  1.
    9900012    2    1    2    0    0  0.90167112371E+01 -0.16962124455E+02  0.25450141892E+02  0.59301882803E+02  0.49999888340E+02 0.  0.
        -12    1    1    2    0    0 -0.90167112371E+01  0.16962124455E+02 -0.25450141892E+02  0.31886117197E+02  0.00000000000E+00 0.  1.
         11    1    3    3    0    0  0.26385006173E+02 -0.29712854516E+01  0.17359107258E+02  0.31722794534E+02  0.51100000000E-03 0. -1.
        -11    1    3    3    0    0 -0.11544932378E+02 -0.15735471303E+02  0.88935152480E+01  0.21447264032E+02  0.51100000000E-03 0.  1.
        -12    1    3    3    0    0 -0.58233625577E+01  0.17446322992E+01 -0.80248061360E+00  0.61318242369E+01  0.00000000000E+00 0.  1.
</event>
<event>
 7    1  0.1139627E-011  0.5930199E+02  0.7816164E-02  0.1266605E+00
        -11   -1    0    0    0    0  0.00000000000E+00  0.00000000000E+00  0.45593999997E+02  0.45594000000E+02  0.51100000000E-03 0.  1.
         11   -1    0    0    0    0 -0.00000000000E+00 -0.00000000000E+00 -0.45593999997E+02  0.45594000000E+02  0.51100000000E-03 0. -1.
    9900012    2    1    2    0    0  0.79281792924E+01 -0.16730110262E+02 -0.25960832146E+02  0.59301993320E+02  0.50000089897E+02 0.  0.
        -12    1    1    2    0    0 -0.79281792924E+01  0.16730110262E+02  0.25960832146E+02  0.31886006680E+02  0.00000000000E+00 0.  1.
         11    1    3    3    0    0 -0.50619287687E+00 -0.14850965912E+02 -0.30687705141E+02  0.34096079933E+02  0.51100000000E-03 0. -1.
        -11    1    3    3    0    0  0.69774226273E+01  0.10099670486E+02  0.82099570233E-01  0.12275769265E+02  0.51100000000E-03 0.  1.
         12    1    3    3    0    0  0.14569495420E+01 -0.11978814836E+02  0.46447734246E+01  0.12930144122E+02  0.00000000000E+00 0. -1.
</event>
<event>
 7    1  0.1139627E-011  0.5930191E+02  0.7816164E-02  0.1266605E+00
        -11   -1    0    0    0    0  0.00000000000E+00  0.00000000000E+00  0.45593999997E+02  0.45594000000E+02  0.51100000000E-03 0.  1.
         11   -1    0    0    0    0 -0.00000000000E+00 -0.00000000000E+00 -0.45593999997E+02  0.45594000000E+02  0.51100000000E-03 0. -1.
    9900012    2    1    2    0    0 -0.98253949394E+01  0.29458393069E+02 -0.72378972914E+01  0.59301914239E+02  0.49999945673E+02 0.  0.
        -12    1    1    2    0    0  0.98253949394E+01 -0.29458393069E+02  0.72378972914E+01  0.31886085761E+02  0.00000000000E+00 0.  1.
         11    1    3    3    0    0 -0.20094538766E+02  0.28901710908E+02 -0.12414297107E+02  0.37325784044E+02  0.51100000000E-03 0. -1.
        -11    1    3    3    0    0  0.92969071009E+00 -0.23513842506E+01  0.10527160498E+02  0.10826561833E+02  0.51100000000E-03 0.  1.
         12    1    3    3    0    0  0.93394531163E+01  0.29080664120E+01 -0.53507606824E+01  0.11149568362E+02  0.00000000000E+00 0. -1.
</event>
<event>
 7    1  0.1139627E-011  0.5930187E+02  0.7816164E-02  0.1266605E+00
        -11   -1    0    0    0    0  0.00000000000E+00  0.00000000000E+00  0.45593999997E+02  0.45594000000E+02  0.51100000000E-03 0. -1.
         11   -1    0    0    0    0 -0.00000000000E+00 -0.00000000000E+00 -0.45593999997E+02  0.45594000000E+02  0.51100000000E-03 0.  1.
    9900012    2    1    2    0    0  0.21308427286E+02  0.53333417099E+01  0.23113449725E+02  0.59301871898E+02  0.49999868452E+02 0.  0.
        -12    1    1    2    0    0 -0.21308427286E+02 -0.53333417099E+01 -0.23113449725E+02  0.31886128102E+02  0.00000000000E+00 0.  1.
         11    1    3    3    0    0  0.24779915032E+02 -0.73025256558E+01 -0.10825314470E+01  0.25856197411E+02  0.51100000000E-03 0. -1.
        -11    1    3    3    0    0 -0.91402303589E+01  0.12105695744E+02  0.23119293467E+02  0.27651282270E+02  0.51100000000E-03 0.  1.
        -12    1    3    3    0    0  0.56687426123E+01  0.53017162150E+00  0.10766877046E+01  0.57943922171E+01  0.00000000000E+00 0.  1.
</event>
<event>
 7    1  0.1139627E-011  0.5930194E+02  0.7816164E-02  0.1266605E+00
        -11   -1    0    0    0    0  0.00000000000E+00  0.00000000000E+00  0.45593999997E+02  0.45594000000E+02  0.51100000000E-03 0.  1.
         11   -1    0    0    0    0 -0.00000000000E+00 -0.00000000000E+00 -0.45593999997E+02  0.45594000000E+02  0.51100000000E-03 0. -1.
    9900012    2    1    2    0    0 -0.44176023850E+01 -0.29390518690E+02  0.11550023952E+02  0.59301939519E+02  0.49999991778E+02 0.  0.
        -12    1    1    2    0    0  0.44176023850E+01  0.29390518690E+02 -0.11550023952E+02  0.31886060481E+02  0.00000000000E+00 0.  1.
         11    1    3    3    0    0 -0.60503749418E+01 -0.29243967026E+02 -0.48066829493E+01  0.30247658514E+02  0.51100000000E-03 0. -1.
        -11    1    3    3    0    0  0.11706300116E+02  0.21563398466E+00  0.25892636030E+01  0.11991173700E+02  0.51100000000E-03 0.  1.
         12    1    3    3    0    0 -0.10073527559E+02 -0.36218564822E+00  0.13767443299E+02  0.17063107305E+02  0.00000000000E+00 0. -1.
</event>
<event>
 7    1  0.1139627E-011  0.5930195E+02  0.7816164E-02  0.1266605E+00
        -11   -1    0    0    0    0  0.00000000000E+00  0.00000000000E+00  0.45593999997E+02  0.45594000000E+02  0.51100000000E-03 0.  1.
         11   -1    0    0    0    0 -0.00000000000E+00 -0.00000000000E+00 -0.45593999997E+02  0.45594000000E+02  0.51100000000E-03 0. -1.
    9900012    2    1    2    0    0 -0.25720734552E+02  0.17594768549E+02  0.67519123757E+01  0.59301946828E+02  0.50000005107E+02 0.  0.
        -12    1    1    2    0    0  0.25720734552E+02 -0.17594768549E+02 -0.67519123757E+01  0.31886053172E+02  0.00000000000E+00 0.  1.
         11    1    3    3    0    0 -0.18383042589E+02  0.13002512403E+02  0.17173237405E+02  0.28318221463E+02  0.51100000000E-03 0. -1.
        -11    1    3    3    0    0  0.27538809824E+00  0.70647119511E+01 -0.18381896437E+02  0.19694672133E+02  0.51100000000E-03 0.  1.
        -12    1    3    3    0    0 -0.76130800609E+01 -0.24724558059E+01  0.79605714077E+01  0.11289053231E+02  0.00000000000E+00 0.  1.
</event>
<event>
 7    1  0.1139627E-011  0.5930193E+02  0.7816164E-02  0.1266605E+00
        -11   -1    0    0    0    0  0.00000000000E+00  0.00000000000E+00  0.45593999997E+02  0.45594000000E+02  0.51100000000E-03 0. -1.
         11   -1    0    0    0    0 -0.00000000000E+00 -0.00000000000E+00 -0.45593999997E+02  0.45594000000E+02  0.51100000000E-03 0.  1.
    9900012    2    1    2    0    0  0.88503369115E+01 -0.27227534248E+02  0.14037599187E+02  0.59301932892E+02  0.49999979690E+02 0.  0.
        -12    1    1    2    0    0 -0.88503369115E+01  0.27227534248E+02 -0.14037599187E+02  0.31886067108E+02  0.00000000000E+00 0.  1.
         11    1    3    3    0    0 -0.10632868918E+02 -0.23340732047E+02  0.24014543935E+02  0.35136106708E+02  0.51100000000E-03 0. -1.
        -11    1    3    3    0    0  0.90179160577E+01 -0.56270325931E+01 -0.18215425986E+01  0.10784448225E+02  0.51100000000E-03 0.  1.
         12    1    3    3    0    0  0.10465289772E+02  0.17402303918E+01 -0.81554021495E+01  0.13381377958E+02  0.00000000000E+00 0. -1.
</event>
<event>
 7    1  0.1139627E-011  0.5930195E+02  0.7816164E-02  0.1266605E+00
        -11   -1    0    0    0    0  0.00000000000E+00  0.00000000000E+00  0.45593999997E+02  0.45594000000E+02  0.51100000000E-03 0.  1.
         11   -1    0    0    0    0 -0.00000000000E+00 -0.00000000000E+00 -0.45593999997E+02  0.45594000000E+02  0.51100000000E-03 0. -1.
    9900012    2    1    2    0    0  0.19382774301E+02 -0.11677940408E+02 -0.22464502223E+02  0.59301951453E+02  0.50000013543E+02 0.  0.
        -12    1    1    2    0    0 -0.19382774301E+02  0.11677940408E+02  0.22464502223E+02  0.31886048547E+02  0.00000000000E+00 0.  1.
         11    1    3    3    0    0 -0.14120952770E+02 -0.11035432851E+02 -0.64191328531E+01  0.19036474258E+02  0.51100000000E-03 0.  1.
        -11    1    3    3    0    0  0.18453930588E+02  0.73703342166E+01 -0.81898710109E+01  0.21492867842E+02  0.51100000000E-03 0. -1.
        -12    1    3    3    0    0  0.15049796483E+02 -0.80128417732E+01 -0.78554983590E+01  0.18772609353E+02  0.00000000000E+00 0.  1.
</event>
<event>
 7    1  0.1139627E-011  0.5930190E+02  0.7816164E-02  0.1266605E+00
        -11   -1    0    0    0    0  0.00000000000E+00  0.00000000000E+00  0.45593999997E+02  0.45594000000E+02  0.51100000000E-03 0.  1.
         11   -1    0    0    0    0 -0.00000000000E+00 -0.00000000000E+00 -0.45593999997E+02  0.45594000000E+02  0.51100000000E-03 0. -1.
    9900012    2    1    2    0    0  0.20948186654E+02  0.24002555309E+02  0.13318740500E+01  0.59301904693E+02  0.49999928262E+02 0.  0.
        -12    1    1    2    0    0 -0.20948186654E+02 -0.24002555309E+02 -0.13318740500E+01  0.31886095307E+02  0.00000000000E+00 0.  1.
         11    1    3    3    0    0  0.10169864626E+02  0.84674384938E+01 -0.65225733422E+01  0.14753563109E+02  0.51100000000E-03 0. -1.
        -11    1    3    3    0    0  0.92000230088E+01 -0.11479669339E+02 -0.36281006575E+01  0.15152106987E+02  0.51100000000E-03 0.  1.
        -12    1    3    3    0    0  0.15782990192E+01  0.27014786154E+02  0.11482548050E+02  0.29396234597E+02  0.00000000000E+00 0.  1.
</event>
<event>
 7    1  0.1139627E-011  0.5930191E+02  0.7816164E-02  0.1266605E+00
        -11   -1    0    0    0    0  0.00000000000E+00  0.00000000000E+00  0.45593999997E+02  0.45594000000E+02  0.51100000000E-03 0.  1.
         11   -1    0    0    0    0 -0.00000000000E+00 -0.00000000000E+00 -0.45593999997E+02  0.45594000000E+02  0.51100000000E-03 0. -1.
    9900012    2    1    2    0    0 -0.25835733359E+02  0.17396304989E+02  0.68268749196E+01  0.59301909511E+02  0.49999937050E+02 0.  0.
        -12    1    1    2    0    0  0.25835733359E+02 -0.17396304989E+02 -0.68268749196E+01  0.31886090489E+02  0.00000000000E+00 0.  1.
         11    1    3    3    0    0 -0.22116835269E+02 -0.17040268649E+01 -0.13895779365E+02  0.26175385275E+02  0.51100000000E-03 0. -1.
        -11    1    3    3    0    0  0.31386483073E+01  0.61104452825E+01  0.16453352509E+02  0.17829791468E+02  0.51100000000E-03 0.  1.
         12    1    3    3    0    0 -0.68575463977E+01  0.12989886572E+02  0.42693017759E+01  0.15296732769E+02  0.00000000000E+00 0. -1.
</event>
<event>
 7    1  0.1139627E-011  0.5930190E+02  0.7816164E-02  0.1266605E+00
        -11   -1    0    0    0    0  0.00000000000E+00  0.00000000000E+00  0.45593999997E+02  0.45594000000E+02  0.51100000000E-03 0.  1.
         11   -1    0    0    0    0 -0.00000000000E+00 -0.00000000000E+00 -0.45593999997E+02  0.45594000000E+02  0.51100000000E-03 0. -1.
    9900012    2    1    2    0    0  0.19273930851E+02 -0.25374214924E+01 -0.25274508003E+02  0.59301895298E+02  0.49999911128E+02 0.  0.
        -12    1    1    2    0    0 -0.19273930851E+02  0.25374214924E+01  0.25274508003E+02  0.31886104702E+02  0.00000000000E+00 0.  1.
         11    1    3    3    0    0  0.20934559184E+01 -0.87514366806E+01  0.87423907743E+01  0.12545899664E+02  0.51100000000E-03 0.  1.
        -11    1    3    3    0    0  0.15366237681E+02 -0.31395414529E+01 -0.33759378346E+02  0.37224637105E+02  0.51100000000E-03 0. -1.
        -12    1    3    3    0    0  0.18142372519E+01  0.93535566411E+01 -0.25752043167E+00  0.95313585295E+01  0.00000000000E+00 0.  1.
</event>
<event>
 7    1  0.1139627E-011  0.5930194E+02  0.7816164E-02  0.1266605E+00
        -11   -1    0    0    0    0  0.00000000000E+00  0.00000000000E+00  0.45593999997E+02  0.45594000000E+02  0.51100000000E-03 0.  1.
         11   -1    0    0    0    0 -0.00000000000E+00 -0.00000000000E+00 -0.45593999997E+02  0.45594000000E+02  0.51100000000E-03 0. -1.
    9900012    2    1    2    0    0 -0.22906957641E+02 -0.17690634808E+02 -0.13380334360E+02  0.59301943238E+02  0.49999998559E+02 0.  0.
        -12    1    1    2    0    0  0.22906957641E+02  0.17690634808E+02  0.13380334360E+02  0.31886056762E+02  0.00000000000E+00 0.  1.
         11    1    3    3    0    0 -0.10398995934E+02 -0.80487535729E+01 -0.29831846498E+01  0.13484099578E+02  0.51100000000E-03 0. -1.
        -11    1    3    3    0    0 -0.14056916991E+02  0.88381701432E+01  0.90792708193E+01  0.18924675047E+02  0.51100000000E-03 0.  1.
        -12    1    3    3    0    0  0.15489552836E+01 -0.18480051378E+02 -0.19476420529E+02  0.26893168613E+02  0.00000000000E+00 0.  1.
</event>
<event>
 7    1  0.1139627E-011  0.5930194E+02  0.7816164E-02  0.1266605E+00
        -11   -1    0    0    0    0  0.00000000000E+00  0.00000000000E+00  0.45593999997E+02  0.45594000000E+02  0.51100000000E-03 0. -1.
         11   -1    0    0    0    0 -0.00000000000E+00 -0.00000000000E+00 -0.45593999997E+02  0.45594000000E+02  0.51100000000E-03 0.  1.
    9900012    2    1    2    0    0  0.15360613388E+02  0.43250641794E+01  0.27605549155E+02  0.59301937716E+02  0.49999988490E+02 0.  0.
        -12    1    1    2    0    0 -0.15360613388E+02 -0.43250641794E+01 -0.27605549155E+02  0.31886062284E+02  0.00000000000E+00 0.  1.
         11    1    3    3    0    0 -0.25289226839E+01 -0.14244686359E+02  0.10673564181E+02  0.17978640438E+02  0.51100000000E-03 0. -1.
        -11    1    3    3    0    0  0.10989084055E+01  0.19779525599E+02  0.13945432381E+02  0.24226273282E+02  0.51100000000E-03 0.  1.
        -12    1    3    3    0    0  0.16790627667E+02 -0.12097750600E+01  0.29865525931E+01  0.17097023996E+02  0.00000000000E+00 0.  1.
</event>
<event>
 7    1  0.1139627E-011  0.5930195E+02  0.7816164E-02  0.1266605E+00
        -11   -1    0    0    0    0  0.00000000000E+00  0.00000000000E+00  0.45593999997E+02  0.45594000000E+02  0.51100000000E-03 0.  1.
         11   -1    0    0    0    0 -0.00000000000E+00 -0.00000000000E+00 -0.45593999997E+02  0.45594000000E+02  0.51100000000E-03 0. -1.
    9900012    2    1    2    0    0  0.11851778217E+02  0.24455409956E+02 -0.16678989929E+02  0.59301946182E+02  0.50000003929E+02 0.  0.
        -12    1    1    2    0    0 -0.11851778217E+02 -0.24455409956E+02  0.16678989929E+02  0.31886053818E+02  0.00000000000E+00 0.  1.
         11    1    3    3    0    0 -0.14753763340E+02 -0.15878673619E+01 -0.79739182822E+01  0.16845718402E+02  0.51100000000E-03 0. -1.
        -11    1    3    3    0    0  0.23944828382E+02  0.24017004767E+02 -0.13590325718E+02  0.36535849211E+02  0.51100000000E-03 0.  1.
        -12    1    3    3    0    0  0.26607131755E+01  0.20262725510E+01  0.48852540716E+01  0.59203785687E+01  0.00000000000E+00 0.  1.
</event>
<event>
 7    1  0.1139627E-011  0.5930194E+02  0.7816164E-02  0.1266605E+00
        -11   -1    0    0    0    0  0.00000000000E+00  0.00000000000E+00  0.45593999997E+02  0.45594000000E+02  0.51100000000E-03 0.  1.
         11   -1    0    0    0    0 -0.00000000000E+00 -0.00000000000E+00 -0.45593999997E+02  0.45594000000E+02  0.51100000000E-03 0. -1.
    9900012    2    1    2    0    0 -0.19134296071E+02  0.16222020893E+02  0.19683637663E+02  0.59301939729E+02  0.49999992159E+02 0.  0.
        -12    1    1    2    0    0  0.19134296071E+02 -0.16222020893E+02 -0.19683637663E+02  0.31886060271E+02  0.00000000000E+00 0.  1.
         11    1    3    3    0    0 -0.32903760787E+02  0.95648154999E+01  0.19272889590E+02  0.39313959898E+02  0.51100000000E-03 0. -1.
        -11    1    3    3    0    0  0.40185764575E+01 -0.78787686627E+00  0.53717562724E+01  0.67546630125E+01  0.51100000000E-03 0.  1.
         12    1    3    3    0    0  0.97508882580E+01  0.74450822590E+01 -0.49610081987E+01  0.13233316818E+02  0.00000000000E+00 0. -1.
</event>
<event>
 7    1  0.1139627E-011  0.5930196E+02  0.7816164E-02  0.1266605E+00
        -11   -1    0    0    0    0  0.00000000000E+00  0.00000000000E+00  0.45593999997E+02  0.45594000000E+02  0.51100000000E-03 0. -1.
         11   -1    0    0    0    0 -0.00000000000E+00 -0.00000000000E+00 -0.45593999997E+02  0.45594000000E+02  0.51100000000E-03 0.  1.
    9900012    2    1    2    0    0  0.23574924037E+02 -0.12849747849E+02 -0.17199614072E+02  0.59301956229E+02  0.50000022252E+02 0.  0.
        -12    1    1    2    0    0 -0.23574924037E+02  0.12849747849E+02  0.17199614072E+02  0.31886043771E+02  0.00000000000E+00 0.  1.
         11    1    3    3    0    0  0.36030147715E+01  0.95085029585E+01  0.10414179097E+02  0.14555015303E+02  0.51100000000E-03 0. -1.
        -11    1    3    3    0    0  0.17671598628E+02 -0.15011435826E+02 -0.94860582668E+01  0.25052223560E+02  0.51100000000E-03 0.  1.
        -12    1    3    3    0    0  0.23003106383E+01 -0.73468149814E+01 -0.18127734902E+02  0.19694717365E+02  0.00000000000E+00 0.  1.
</event>
<event>
 7    1  0.1139627E-011  0.5930195E+02  0.7816164E-02  0.1266605E+00
        -11   -1    0    0    0    0  0.00000000000E+00  0.00000000000E+00  0.45593999997E+02  0.45594000000E+02  0.51100000000E-03 0. -1.
         11   -1    0    0    0    0 -0.00000000000E+00 -0.00000000000E+00 -0.45593999997E+02  0.45594000000E+02  0.51100000000E-03 0.  1.
    9900012    2    1    2    0    0  0.18187461384E+02 -0.84120996329E+00  0.26176872657E+02  0.59301952144E+02  0.50000014803E+02 0.  0.
        -12    1    1    2    0    0 -0.18187461384E+02  0.84120996329E+00 -0.26176872657E+02  0.31886047856E+02  0.00000000000E+00 0.  1.
         11    1    3    3    0    0  0.14984780852E+02 -0.12807818313E+02  0.15205093960E+02  0.24895355987E+02  0.51100000000E-03 0. -1.
        -11    1    3    3    0    0 -0.56286095222E+01  0.18961127561E+02  0.17652489979E+01  0.19857535291E+02  0.51100000000E-03 0.  1.
        -12    1    3    3    0    0  0.88312900543E+01 -0.69945192112E+01  0.92065296988E+01  0.14549060867E+02  0.00000000000E+00 0.  1.
</event>
<event>
 7    1  0.1139627E-011  0.5930192E+02  0.7816164E-02  0.1266605E+00
        -11   -1    0    0    0    0  0.00000000000E+00  0.00000000000E+00  0.45593999997E+02  0.45594000000E+02  0.51100000000E-03 0.  1.
         11   -1    0    0    0    0 -0.00000000000E+00 -0.00000000000E+00 -0.45593999997E+02  0.45594000000E+02  0.51100000000E-03 0. -1.
    9900012    2    1    2    0    0  0.98440410773E+00 -0.24624127522E+02 -0.20233762296E+02  0.59301923974E+02  0.49999963427E+02 0.  0.
        -12    1    1    2    0    0 -0.98440410773E+00  0.24624127522E+02  0.20233762296E+02  0.31886076026E+02  0.00000000000E+00 0.  1.
         11    1    3    3    0    0 -0.10249341202E+01  0.52001313982E+01 -0.24811498972E+02  0.25371289641E+02  0.51100000000E-03 0. -1.
        -11    1    3    3    0    0  0.19575081664E+01 -0.26007405559E+02 -0.21772705150E+01  0.26171692519E+02  0.51100000000E-03 0.  1.
        -12    1    3    3    0    0  0.51830061521E-01 -0.38168533613E+01  0.67550071909E+01  0.77589418149E+01  0.00000000000E+00 0.  1.
</event>
<event>
 7    1  0.1139627E-011  0.5930196E+02  0.7816164E-02  0.1266605E+00
        -11   -1    0    0    0    0  0.00000000000E+00  0.00000000000E+00  0.45593999997E+02  0.45594000000E+02  0.51100000000E-03 0. -1.
         11   -1    0    0    0    0 -0.00000000000E+00 -0.00000000000E+00 -0.45593999997E+02  0.45594000000E+02  0.51100000000E-03 0.  1.
    9900012    2    1    2    0    0  0.25043573419E+02  0.44735675131E+01  0.19223063202E+02  0.59301960190E+02  0.50000029476E+02 0.  0.
        -12    1    1    2    0    0 -0.25043573419E+02 -0.44735675131E+01 -0.19223063202E+02  0.31886039810E+02  0.00000000000E+00 0.  1.
         11    1    3    3    0    0 -0.12914849780E+01  0.81694678950E+00  0.59989509072E+01  0.61905369520E+01  0.51100000000E-03 0. -1.
        -11    1    3    3    0    0  0.13664042523E+02 -0.14977602376E+02 -0.83393612684E+01  0.21922125299E+02  0.51100000000E-03 0.  1.
        -12    1    3    3    0    0  0.12671015874E+02  0.18634223100E+02  0.21563473563E+02  0.31189297939E+02  0.00000000000E+00 0.  1.
</event>
<event>
 7    1  0.1139627E-011  0.5930195E+02  0.7816164E-02  0.1266605E+00
        -11   -1    0    0    0    0  0.00000000000E+00  0.00000000000E+00  0.45593999997E+02  0.45594000000E+02  0.51100000000E-03 0. -1.
         11   -1    0    0    0    0 -0.00000000000E+00 -0.00000000000E+00 -0.45593999997E+02  0.45594000000E+02  0.51100000000E-03 0.  1.
    9900012    2    1    2    0    0 -0.88825395537E+01  0.28100372009E+02  0.12173325291E+02  0.59301948745E+02  0.50000008603E+02 0.  0.
        -12    1    1    2    0    0  0.88825395537E+01 -0.28100372009E+02 -0.12173325291E+02  0.31886051255E+02  0.00000000000E+00 0.  1.
         11    1    3    3    0    0 -0.84758763341E+01  0.12882850195E+02  0.91685847270E+01  0.17940770745E+02  0.51100000000E-03 0. -1.
        -11    1    3    3    0    0 -0.11581695118E+02 -0.11513259364E+01 -0.11836917180E+02  0.16600416315E+02  0.51100000000E-03 0.  1.
        -12    1    3    3    0    0  0.11175031899E+02  0.16368847750E+02  0.14841657745E+02  0.24760761685E+02  0.00000000000E+00 0.  1.
</event>
<event>
 7    1  0.1139627E-011  0.5930193E+02  0.7816164E-02  0.1266605E+00
        -11   -1    0    0    0    0  0.00000000000E+00  0.00000000000E+00  0.45593999997E+02  0.45594000000E+02  0.51100000000E-03 0. -1.
         11   -1    0    0    0    0 -0.00000000000E+00 -0.00000000000E+00 -0.45593999997E+02  0.45594000000E+02  0.51100000000E-03 0.  1.
    9900012    2    1    2    0    0  0.30593970815E+02 -0.78144639858E+01 -0.44344575214E+01  0.59301932335E+02  0.49999978676E+02 0.  0.
        -12    1    1    2    0    0 -0.30593970815E+02  0.78144639858E+01  0.44344575214E+01  0.31886067665E+02  0.00000000000E+00 0.  1.
         11    1    3    3    0    0  0.65051935373E+01 -0.20827724996E+02 -0.62643442028E+01  0.22701402600E+02  0.51100000000E-03 0.  1.
        -11    1    3    3    0    0  0.22671908823E+02  0.22603525810E+01  0.79690155076E+01  0.24137726734E+02  0.51100000000E-03 0. -1.
         12    1    3    3    0    0  0.14168684546E+01  0.10752908429E+02 -0.61391288262E+01  0.12462803001E+02  0.00000000000E+00 0. -1.
</event>
<event>
 7    1  0.1907284E-011  0.5930193E+02  0.7816164E-02  0.1266605E+00
        -11   -1    0    0    0    0  0.00000000000E+00  0.00000000000E+00  0.45593999997E+02  0.45594000000E+02  0.51100000000E-03 0.  1.
         11   -1    0    0    0    0 -0.00000000000E+00 -0.00000000000E+00 -0.45593999997E+02  0.45594000000E+02  0.51100000000E-03 0. -1.
    9900012    2    1    2    0    0 -0.22816081960E+02 -0.69585623831E+01 -0.21159550352E+02  0.59301925335E+02  0.49999965909E+02 0.  0.
        -12    1    1    2    0    0  0.22816081960E+02  0.69585623831E+01  0.21159550352E+02  0.31886074665E+02  0.00000000000E+00 0.  1.
         11    1    3    3    0    0 -0.20371648233E+01 -0.14019977511E+02 -0.19875423321E+02  0.24407831988E+02  0.51100000000E-03 0. -1.
        -11    1    3    3    0    0 -0.29123229710E+01  0.34442887639E+01  0.11682995935E+02  0.12523463757E+02  0.51100000000E-03 0.  1.
         12    1    3    3    0    0 -0.17866594166E+02  0.36171263640E+01 -0.12967122966E+02  0.22370629590E+02  0.00000000000E+00 0. -1.
</event>
<event>
 7    1  0.1139627E-011  0.5930195E+02  0.7816164E-02  0.1266605E+00
        -11   -1    0    0    0    0  0.00000000000E+00  0.00000000000E+00  0.45593999997E+02  0.45594000000E+02  0.51100000000E-03 0.  1.
         11   -1    0    0    0    0 -0.00000000000E+00 -0.00000000000E+00 -0.45593999997E+02  0.45594000000E+02  0.51100000000E-03 0. -1.
    9900012    2    1    2    0    0  0.27739168863E+02  0.14860266936E+02 -0.51411207726E+01  0.59301950615E+02  0.50000012013E+02 0.  0.
        -12    1    1    2    0    0 -0.27739168863E+02 -0.14860266936E+02  0.51411207726E+01  0.31886049385E+02  0.00000000000E+00 0.  1.
         11    1    3    3    0    0  0.30904406105E+02  0.10592602646E+02 -0.14583077922E+02  0.35776412752E+02  0.51100000000E-03 0. -1.
        -11    1    3    3    0    0  0.65224154734E+00  0.11248075297E+02  0.10619430302E+02  0.15482794229E+02  0.51100000000E-03 0.  1.
         12    1    3    3    0    0 -0.38174787888E+01 -0.69804110071E+01 -0.11774731522E+01  0.80427436336E+01  0.00000000000E+00 0. -1.
</event>
<event>
 7    1  0.1139627E-011  0.5930191E+02  0.7816164E-02  0.1266605E+00
        -11   -1    0    0    0    0  0.00000000000E+00  0.00000000000E+00  0.45593999997E+02  0.45594000000E+02  0.51100000000E-03 0.  1.
         11   -1    0    0    0    0 -0.00000000000E+00 -0.00000000000E+00 -0.45593999997E+02  0.45594000000E+02  0.51100000000E-03 0. -1.
    9900012    2    1    2    0    0  0.19362791656E+02 -0.23569527294E+02  0.92888380625E+01  0.59301908516E+02  0.49999935235E+02 0.  0.
        -12    1    1    2    0    0 -0.19362791656E+02  0.23569527294E+02 -0.92888380625E+01  0.31886091484E+02  0.00000000000E+00 0.  1.
         11    1    3    3    0    0  0.19187143412E+02 -0.26175247800E+02 -0.37281711716E+01  0.32667863876E+02  0.51100000000E-03 0. -1.
        -11    1    3    3    0    0  0.40749185998E+01  0.95395182730E+01  0.15184022477E+02  0.18389179137E+02  0.51100000000E-03 0.  1.
         12    1    3    3    0    0 -0.38992703550E+01 -0.69337977671E+01 -0.21670132430E+01  0.82448655035E+01  0.00000000000E+00 0. -1.
</event>
<event>
 7    1  0.1139627E-011  0.5930198E+02  0.7816164E-02  0.1266605E+00
        -11   -1    0    0    0    0  0.00000000000E+00  0.00000000000E+00  0.45593999997E+02  0.45594000000E+02  0.51100000000E-03 0. -1.
         11   -1    0    0    0    0 -0.00000000000E+00 -0.00000000000E+00 -0.45593999997E+02  0.45594000000E+02  0.51100000000E-03 0.  1.
    9900012    2    1    2    0    0 -0.13827474368E+02 -0.22094979957E+02  0.18366576908E+02  0.59301979019E+02  0.50000063815E+02 0.  0.
        -12    1    1    2    0    0  0.13827474368E+02  0.22094979957E+02 -0.18366576908E+02  0.31886020981E+02  0.00000000000E+00 0.  1.
         11    1    3    3    0    0 -0.12596948332E+02 -0.36891460254E+00  0.92645136164E+01  0.15641304871E+02  0.51100000000E-03 0. -1.
        -11    1    3    3    0    0  0.14160066652E+02 -0.21392784035E+01 -0.48372753426E+01  0.15115661834E+02  0.51100000000E-03 0.  1.
        -12    1    3    3    0    0 -0.15390592688E+02 -0.19586786951E+02  0.13939338634E+02  0.28545012313E+02  0.00000000000E+00 0.  1.
</event>
<event>
 7    1  0.1139627E-011  0.5930195E+02  0.7816164E-02  0.1266605E+00
        -11   -1    0    0    0    0  0.00000000000E+00  0.00000000000E+00  0.45593999997E+02  0.45594000000E+02  0.51100000000E-03 0.  1.
         11   -1    0    0    0    0 -0.00000000000E+00 -0.00000000000E+00 -0.45593999997E+02  0.45594000000E+02  0.51100000000E-03 0. -1.
    9900012    2    1    2    0    0 -0.24828369773E+02 -0.15876893610E+02  0.12173600999E+02  0.59301948856E+02  0.50000008805E+02 0.  0.
        -12    1    1    2    0    0  0.24828369773E+02  0.15876893610E+02 -0.12173600999E+02  0.31886051144E+02  0.00000000000E+00 0.  1.
         11    1    3    3    0    0 -0.20416966623E+02 -0.13676378360E+02 -0.11411515035E+02  0.27094621732E+02  0.51100000000E-03 0. -1.
        -11    1    3    3    0    0  0.13282053573E+01  0.90985569486E+01  0.87078086943E+01  0.12663877784E+02  0.51100000000E-03 0.  1.
        -12    1    3    3    0    0 -0.57396085068E+01 -0.11299072198E+02  0.14877307341E+02  0.19543449339E+02  0.00000000000E+00 0.  1.
</event>
<event>
 7    1  0.1139627E-011  0.5930186E+02  0.7816164E-02  0.1266605E+00
        -11   -1    0    0    0    0  0.00000000000E+00  0.00000000000E+00  0.45593999997E+02  0.45594000000E+02  0.51100000000E-03 0. -1.
         11   -1    0    0    0    0 -0.00000000000E+00 -0.00000000000E+00 -0.45593999997E+02  0.45594000000E+02  0.51100000000E-03 0.  1.
    9900012    2    1    2    0    0  0.12813040304E+02  0.28479741416E+02  0.64386344426E+01  0.59301863727E+02  0.49999853550E+02 0.  0.
        -12    1    1    2    0    0 -0.12813040304E+02 -0.28479741416E+02 -0.64386344426E+01  0.31886136273E+02  0.00000000000E+00 0.  1.
         11    1    3    3    0    0 -0.79755612422E+01  0.10216001493E+02  0.20811730976E+02  0.24517430741E+02  0.51100000000E-03 0. -1.
        -11    1    3    3    0    0  0.10292002742E+02  0.88560089196E+01 -0.15545565190E+02  0.20640223152E+02  0.51100000000E-03 0.  1.
         12    1    3    3    0    0  0.10496598804E+02  0.94077310031E+01  0.11724686560E+01  0.14144209834E+02  0.00000000000E+00 0. -1.
</event>
<event>
 7    1  0.1139627E-011  0.5930197E+02  0.7816164E-02  0.1266605E+00
        -11   -1    0    0    0    0  0.00000000000E+00  0.00000000000E+00  0.45593999997E+02  0.45594000000E+02  0.51100000000E-03 0. -1.
         11   -1    0    0    0    0 -0.00000000000E+00 -0.00000000000E+00 -0.45593999997E+02  0.45594000000E+02  0.51100000000E-03 0.  1.
    9900012    2    1    2    0    0 -0.26020100166E+02  0.15061704940E+02  0.10621593709E+02  0.59301971378E+02  0.50000049881E+02 0.  0.
        -12    1    1    2    0    0  0.26020100166E+02 -0.15061704940E+02 -0.10621593709E+02  0.31886028622E+02  0.00000000000E+00 0.  1.
         11    1    3    3    0    0 -0.27307754549E+02  0.84898570593E+01  0.15434920125E+02  0.32496582757E+02  0.51100000000E-03 0. -1.
        -11    1    3    3    0    0  0.10118907515E+02 -0.33482311506E+01 -0.77808405702E+01  0.13196379101E+02  0.51100000000E-03 0.  1.
         12    1    3    3    0    0 -0.88312531321E+01  0.99200790313E+01  0.29675141544E+01  0.13609009520E+02  0.00000000000E+00 0. -1.
</event>
<event>
 7    1  0.1139627E-011  0.5930187E+02  0.7816164E-02  0.1266605E+00
        -11   -1    0    0    0    0  0.00000000000E+00  0.00000000000E+00  0.45593999997E+02  0.45594000000E+02  0.51100000000E-03 0. -1.
         11   -1    0    0    0    0 -0.00000000000E+00 -0.00000000000E+00 -0.45593999997E+02  0.45594000000E+02  0.51100000000E-03 0.  1.
    9900012    2    1    2    0    0 -0.13423018145E+02  0.43620369797E+01  0.28592320846E+02  0.59301865175E+02  0.49999856191E+02 0.  0.
        -12    1    1    2    0    0  0.13423018145E+02 -0.43620369797E+01 -0.28592320846E+02  0.31886134825E+02  0.00000000000E+00 0.  1.
         11    1    3    3    0    0  0.11858379922E+02  0.16260582567E-01  0.17966370391E+02  0.21527004066E+02  0.51100000000E-03 0.  1.
        -11    1    3    3    0    0 -0.22144413796E+02  0.73971563003E+01  0.17808683538E+02  0.29363960790E+02  0.51100000000E-03 0. -1.
        -12    1    3    3    0    0 -0.31369842719E+01 -0.30513799032E+01 -0.71827330825E+01  0.84109003186E+01  0.00000000000E+00 0.  1.
</event>
<event>
 7    1  0.1139627E-011  0.5930201E+02  0.7816164E-02  0.1266605E+00
        -11   -1    0    0    0    0  0.00000000000E+00  0.00000000000E+00  0.45593999997E+02  0.45594000000E+02  0.51100000000E-03 0. -1.
         11   -1    0    0    0    0 -0.00000000000E+00 -0.00000000000E+00 -0.45593999997E+02  0.45594000000E+02  0.51100000000E-03 0.  1.
    9900012    2    1    2    0    0 -0.19373363640E+02  0.19356777615E+02  0.16331090292E+02  0.59302006704E+02  0.50000114306E+02 0.  0.
        -12    1    1    2    0    0  0.19373363640E+02 -0.19356777615E+02 -0.16331090292E+02  0.31885993296E+02  0.00000000000E+00 0.  1.
         11    1    3    3    0    0 -0.35489886301E+01  0.83070523430E+01  0.29849144472E+02  0.31186116541E+02  0.51100000000E-03 0. -1.
        -11    1    3    3    0    0 -0.17827764198E+02  0.77576181489E+01 -0.72347698644E+01  0.20744920122E+02  0.51100000000E-03 0.  1.
         12    1    3    3    0    0  0.20033891876E+01  0.32921071232E+01 -0.62832843155E+01  0.73709700405E+01  0.00000000000E+00 0. -1.
</event>
<event>
 7    1  0.1139627E-011  0.5930190E+02  0.7816164E-02  0.1266605E+00
        -11   -1    0    0    0    0  0.00000000000E+00  0.00000000000E+00  0.45593999997E+02  0.45594000000E+02  0.51100000000E-03 0.  1.
         11   -1    0    0    0    0 -0.00000000000E+00 -0.00000000000E+00 -0.45593999997E+02  0.45594000000E+02  0.51100000000E-03 0. -1.
    9900012    2    1    2    0    0 -0.25316796421E+02  0.19070603140E+02 -0.34778555237E+01  0.59301897005E+02  0.49999914241E+02 0.  0.
        -12    1    1    2    0    0  0.25316796421E+02 -0.19070603140E+02  0.34778555237E+01  0.31886102995E+02  0.00000000000E+00 0.  1.
         11    1    3    3    0    0 -0.71680136549E+01  0.18703535809E+02  0.17102193472E+02  0.26337951578E+02  0.51100000000E-03 0. -1.
        -11    1    3    3    0    0 -0.86348832012E+01 -0.27023863719E+01 -0.21095413193E+02  0.22953878932E+02  0.51100000000E-03 0.  1.
         12    1    3    3    0    0 -0.95138995652E+01  0.30694537038E+01  0.51536419675E+00  0.10010066495E+02  0.00000000000E+00 0. -1.
</event>
<event>
 7    1  0.1139627E-011  0.5930192E+02  0.7816164E-02  0.1266605E+00
        -11   -1    0    0    0    0  0.00000000000E+00  0.00000000000E+00  0.45593999997E+02  0.45594000000E+02  0.51100000000E-03 0.  1.
         11   -1    0    0    0    0 -0.00000000000E+00 -0.00000000000E+00 -0.45593999997E+02  0.45594000000E+02  0.51100000000E-03 0. -1.
    9900012    2    1    2    0    0  0.26654447246E+02  0.12166417893E+00 -0.17499941091E+02  0.59301916855E+02  0.49999950443E+02 0.  0.
        -12    1    1    2    0    0 -0.26654447246E+02 -0.12166417893E+00  0.17499941091E+02  0.31886083145E+02  0.00000000000E+00 0.  1.
         11    1    3    3    0    0  0.41318329964E+01  0.11680401127E+01 -0.48886082205E+01  0.65065238192E+01  0.51100000000E-03 0. -1.
        -11    1    3    3    0    0  0.15304658913E+02 -0.14034462334E+02  0.12046456160E+02  0.24006578759E+02  0.51100000000E-03 0.  1.
        -12    1    3    3    0    0  0.72179553363E+01  0.12988086401E+02 -0.24657789030E+02  0.28788814277E+02  0.00000000000E+00 0.  1.
</event>
<event>
 7    1  0.1139627E-011  0.5930194E+02  0.7816164E-02  0.1266605E+00
        -11   -1    0    0    0    0  0.00000000000E+00  0.00000000000E+00  0.45593999997E+02  0.45594000000E+02  0.51100000000E-03 0. -1.
         11   -1    0    0    0    0 -0.00000000000E+00 -0.00000000000E+00 -0.45593999997E+02  0.45594000000E+02  0.51100000000E-03 0.  1.
    9900012    2    1    2    0    0  0.11043361488E+02  0.88443339455E+01  0.28575208791E+02  0.59301942963E+02  0.49999998059E+02 0.  0.
        -12    1    1    2    0    0 -0.11043361488E+02 -0.88443339455E+01 -0.28575208791E+02  0.31886057037E+02  0.00000000000E+00 0.  1.
         11    1    3    3    0    0 -0.39553811185E+01  0.76602243108E+00 -0.53900990306E+00  0.40647708538E+01  0.51100000000E-03 0. -1.
        -11    1    3    3    0    0  0.20571027529E+02 -0.13074788872E+02  0.20039930908E+02  0.31554969635E+02  0.51100000000E-03 0.  1.
        -12    1    3    3    0    0 -0.55722849229E+01  0.21153100386E+02  0.90742877866E+01  0.23682202474E+02  0.00000000000E+00 0.  1.
</event>
<event>
 7    1  0.1139627E-011  0.5930193E+02  0.7816164E-02  0.1266605E+00
        -11   -1    0    0    0    0  0.00000000000E+00  0.00000000000E+00  0.45593999997E+02  0.45594000000E+02  0.51100000000E-03 0. -1.
         11   -1    0    0    0    0 -0.00000000000E+00 -0.00000000000E+00 -0.45593999997E+02  0.45594000000E+02  0.51100000000E-03 0.  1.
    9900012    2    1    2    0    0  0.22653378610E+02 -0.91398170084E+01  0.20494132570E+02  0.59301932711E+02  0.49999979361E+02 0.  0.
        -12    1    1    2    0    0 -0.22653378610E+02  0.91398170084E+01 -0.20494132570E+02  0.31886067289E+02  0.00000000000E+00 0.  1.
         11    1    3    3    0    0  0.27220740894E+01 -0.10617858413E+02  0.11975684347E+02  0.16234704200E+02  0.51100000000E-03 0. -1.
        -11    1    3    3    0    0  0.19114902110E+02 -0.20145559501E+01 -0.11720844300E+02  0.22512576701E+02  0.51100000000E-03 0.  1.
        -12    1    3    3    0    0  0.81640241027E+00  0.34925973549E+01  0.20239292523E+02  0.20554651809E+02  0.00000000000E+00 0.  1.
</event>
<event>
 7    1  0.1139627E-011  0.5930194E+02  0.7816164E-02  0.1266605E+00
        -11   -1    0    0    0    0  0.00000000000E+00  0.00000000000E+00  0.45593999997E+02  0.45594000000E+02  0.51100000000E-03 0.  1.
         11   -1    0    0    0    0 -0.00000000000E+00 -0.00000000000E+00 -0.45593999997E+02  0.45594000000E+02  0.51100000000E-03 0. -1.
    9900012    2    1    2    0    0 -0.14748616711E+02  0.38226300290E+00 -0.28267524670E+02  0.59301940807E+02  0.49999994126E+02 0.  0.
        -12    1    1    2    0    0  0.14748616711E+02 -0.38226300290E+00  0.28267524670E+02  0.31886059193E+02  0.00000000000E+00 0.  1.
         11    1    3    3    0    0 -0.89464949357E+01  0.18215283158E+02 -0.10808952957E+02  0.22992820107E+02  0.51100000000E-03 0. -1.
        -11    1    3    3    0    0  0.57168538193E+01 -0.85885468614E+01  0.33001833742E+01  0.10832209624E+02  0.51100000000E-03 0.  1.
         12    1    3    3    0    0 -0.11518975595E+02 -0.92444732937E+01 -0.20758755087E+02  0.25476911076E+02  0.00000000000E+00 0. -1.
</event>
<event>
 7    1  0.1139627E-011  0.5930192E+02  0.7816164E-02  0.1266605E+00
        -11   -1    0    0    0    0  0.00000000000E+00  0.00000000000E+00  0.45593999997E+02  0.45594000000E+02  0.51100000000E-03 0.  1.
         11   -1    0    0    0    0 -0.00000000000E+00 -0.00000000000E+00 -0.45593999997E+02  0.45594000000E+02  0.51100000000E-03 0. -1.
    9900012    2    1    2    0    0  0.12553156614E+02 -0.26333458328E+02 -0.12872027724E+02  0.59301923631E+02  0.49999962801E+02 0.  0.
        -12    1    1    2    0    0 -0.12553156614E+02  0.26333458328E+02  0.12872027724E+02  0.31886076369E+02  0.00000000000E+00 0.  1.
         11    1    3    3    0    0  0.22399418358E+01 -0.69188219220E+01  0.19287570278E+01  0.75237982528E+01  0.51100000000E-03 0. -1.
        -11    1    3    3    0    0  0.22162971067E+02  0.45197935546E+00 -0.17830045535E+02  0.28448411132E+02  0.51100000000E-03 0.  1.
        -12    1    3    3    0    0 -0.11849756289E+02 -0.19866615762E+02  0.30292607835E+01  0.23329714247E+02  0.00000000000E+00 0.  1.
</event>
<event>
 7    1  0.1139627E-011  0.5930194E+02  0.7816164E-02  0.1266605E+00
        -11   -1    0    0    0    0  0.00000000000E+00  0.00000000000E+00  0.45593999997E+02  0.45594000000E+02  0.51100000000E-03 0.  1.
         11   -1    0    0    0    0 -0.00000000000E+00 -0.00000000000E+00 -0.45593999997E+02  0.45594000000E+02  0.51100000000E-03 0. -1.
    9900012    2    1    2    0    0 -0.15936516116E+02  0.16671555029E+01 -0.27567533384E+02  0.59301939562E+02  0.49999991855E+02 0.  0.
        -12    1    1    2    0    0  0.15936516116E+02 -0.16671555029E+01  0.27567533384E+02  0.31886060438E+02  0.00000000000E+00 0.  1.
         11    1    3    3    0    0 -0.12440223314E+02  0.22521098086E+02 -0.18493322084E+02  0.31685359034E+02  0.51100000000E-03 0. -1.
        -11    1    3    3    0    0  0.32222267189E+01 -0.61504197176E+01  0.28738704972E+01  0.75146217221E+01  0.51100000000E-03 0.  1.
         12    1    3    3    0    0 -0.67185195212E+01 -0.14703522866E+02 -0.11948081797E+02  0.20101958806E+02  0.00000000000E+00 0. -1.
</event>
<event>
 7    1  0.1139627E-011  0.5930231E+02  0.7816164E-02  0.1266603E+00
        -11   -1    0    0    0    0  0.00000000000E+00  0.00000000000E+00  0.45593999997E+02  0.45594000000E+02  0.51100000000E-03 0.  1.
         11   -1    0    0    0    0 -0.00000000000E+00 -0.00000000000E+00 -0.45593999997E+02  0.45594000000E+02  0.51100000000E-03 0. -1.
    9900012    2    1    2    0    0  0.20209854830E+02 -0.22991353276E+02 -0.89250410205E+01  0.59302314890E+02  0.50000676359E+02 0.  0.
        -12    1    1    2    0    0 -0.20209854830E+02  0.22991353276E+02  0.89250410205E+01  0.31885685110E+02  0.00000000000E+00 0.  1.
         11    1    3    3    0    0  0.24847605318E+01 -0.17989781061E+02 -0.64454386166E+01  0.19270442049E+02  0.51100000000E-03 0. -1.
        -11    1    3    3    0    0 -0.32912316174E+01  0.12299696659E+02 -0.66528128813E+00  0.12749797759E+02  0.51100000000E-03 0.  1.
        -12    1    3    3    0    0  0.21016325916E+02 -0.17301268874E+02 -0.18143211158E+01  0.27282075081E+02  0.00000000000E+00 0.  1.
</event>
<event>
 7    1  0.1139627E-011  0.5930193E+02  0.7816164E-02  0.1266605E+00
        -11   -1    0    0    0    0  0.00000000000E+00  0.00000000000E+00  0.45593999997E+02  0.45594000000E+02  0.51100000000E-03 0.  1.
         11   -1    0    0    0    0 -0.00000000000E+00 -0.00000000000E+00 -0.45593999997E+02  0.45594000000E+02  0.51100000000E-03 0. -1.
    9900012    2    1    2    0    0 -0.20854454541E+02 -0.21609802064E+02 -0.10715850103E+02  0.59301933092E+02  0.49999980055E+02 0.  0.
        -12    1    1    2    0    0  0.20854454541E+02  0.21609802064E+02  0.10715850103E+02  0.31886066908E+02  0.00000000000E+00 0.  1.
         11    1    3    3    0    0 -0.10699973037E+02  0.70552131025E+01 -0.14025633476E+02  0.18999574984E+02  0.51100000000E-03 0. -1.
        -11    1    3    3    0    0 -0.45841442707E+00 -0.45246711753E+01  0.12033191473E+02  0.12863922043E+02  0.51100000000E-03 0.  1.
        -12    1    3    3    0    0 -0.96960670769E+01 -0.24140343991E+02 -0.87234081007E+01  0.27438436065E+02  0.00000000000E+00 0.  1.
</event>
<event>
 7    1  0.1139627E-011  0.5930196E+02  0.7816164E-02  0.1266605E+00
        -11   -1    0    0    0    0  0.00000000000E+00  0.00000000000E+00  0.45593999997E+02  0.45594000000E+02  0.51100000000E-03 0.  1.
         11   -1    0    0    0    0 -0.00000000000E+00 -0.00000000000E+00 -0.45593999997E+02  0.45594000000E+02  0.51100000000E-03 0. -1.
    9900012    2    1    2    0    0  0.28535305553E+01 -0.26478247389E+02  0.17535081963E+02  0.59301963544E+02  0.50000035592E+02 0.  0.
        -12    1    1    2    0    0 -0.28535305553E+01  0.26478247389E+02 -0.17535081963E+02  0.31886036456E+02  0.00000000000E+00 0.  1.
         11    1    3    3    0    0  0.11749274794E+02 -0.20315176103E+02  0.29183548189E+02  0.37449049701E+02  0.51100000000E-03 0. -1.
        -11    1    3    3    0    0 -0.19346919651E+01  0.45630080731E+01 -0.62411212158E+01  0.79696718857E+01  0.51100000000E-03 0.  1.
         12    1    3    3    0    0 -0.69610522741E+01 -0.10726079359E+02 -0.54073450102E+01  0.13883241957E+02  0.00000000000E+00 0. -1.
</event>
<event>
 7    1  0.1139627E-011  0.5930195E+02  0.7816164E-02  0.1266605E+00
        -11   -1    0    0    0    0  0.00000000000E+00  0.00000000000E+00  0.45593999997E+02  0.45594000000E+02  0.51100000000E-03 0.  1.
         11   -1    0    0    0    0 -0.00000000000E+00 -0.00000000000E+00 -0.45593999997E+02  0.45594000000E+02  0.51100000000E-03 0. -1.
    9900012    2    1    2    0    0  0.22391298956E+02  0.94515034728E+01 -0.20640223856E+02  0.59301952461E+02  0.50000015380E+02 0.  0.
        -12    1    1    2    0    0 -0.22391298956E+02 -0.94515034728E+01  0.20640223856E+02  0.31886047539E+02  0.00000000000E+00 0.  1.
         11    1    3    3    0    0 -0.57714965723E+01  0.23967615292E+01  0.54589937581E+01  0.82979064603E+01  0.51100000000E-03 0.  1.
        -11    1    3    3    0    0  0.26775425018E+02  0.53223773551E+01 -0.33536366996E+02  0.43242791274E+02  0.51100000000E-03 0. -1.
         12    1    3    3    0    0  0.13873705097E+01  0.17323645885E+01  0.74371493820E+01  0.77612547264E+01  0.00000000000E+00 0. -1.
</event>
<event>
 7    1  0.1320457E-011  0.5930193E+02  0.7816164E-02  0.1266605E+00
        -11   -1    0    0    0    0  0.00000000000E+00  0.00000000000E+00  0.45593999997E+02  0.45594000000E+02  0.51100000000E-03 0.  1.
         11   -1    0    0    0    0 -0.00000000000E+00 -0.00000000000E+00 -0.45593999997E+02  0.45594000000E+02  0.51100000000E-03 0. -1.
    9900012    2    1    2    0    0 -0.21299391929E+02 -0.22964054464E+02 -0.59757680096E+01  0.59301926280E+02  0.49999967632E+02 0.  0.
        -12    1    1    2    0    0  0.21299391929E+02  0.22964054464E+02  0.59757680096E+01  0.31886073720E+02  0.00000000000E+00 0.  1.
         11    1    3    3    0    0 -0.13312551362E+02 -0.30772114809E+02  0.18060474683E+01  0.33576909943E+02  0.51100000000E-03 0. -1.
        -11    1    3    3    0    0 -0.11178531232E+01  0.48577773705E+01  0.73304875756E+01  0.88647416738E+01  0.51100000000E-03 0.  1.
         12    1    3    3    0    0 -0.68689874446E+01  0.29502829750E+01 -0.15112303053E+02  0.16860274663E+02  0.00000000000E+00 0. -1.
</event>
<event>
 7    1  0.1139627E-011  0.5930194E+02  0.7816164E-02  0.1266605E+00
        -11   -1    0    0    0    0  0.00000000000E+00  0.00000000000E+00  0.45593999997E+02  0.45594000000E+02  0.51100000000E-03 0.  1.
         11   -1    0    0    0    0 -0.00000000000E+00 -0.00000000000E+00 -0.45593999997E+02  0.45594000000E+02  0.51100000000E-03 0. -1.
    9900012    2    1    2    0    0  0.28167829278E+02 -0.14923097751E+02  0.77145724973E+00  0.59301943502E+02  0.49999999041E+02 0.  0.
        -12    1    1    2    0    0 -0.28167829278E+02  0.14923097751E+02 -0.77145724973E+00  0.31886056498E+02  0.00000000000E+00 0.  1.
         11    1    3    3    0    0  0.18082647777E+02 -0.15767747074E+01  0.18430934142E+02  0.25868275990E+02  0.51100000000E-03 0. -1.
        -11    1    3    3    0    0 -0.78210090216E+00  0.49398721245E+01 -0.93365198340E+01  0.10591724189E+02  0.51100000000E-03 0.  1.
         12    1    3    3    0    0  0.10867282403E+02 -0.18286195168E+02 -0.83229570586E+01  0.22841943322E+02  0.00000000000E+00 0. -1.
</event>
<event>
 7    1  0.1139627E-011  0.5930194E+02  0.7816164E-02  0.1266605E+00
        -11   -1    0    0    0    0  0.00000000000E+00  0.00000000000E+00  0.45593999997E+02  0.45594000000E+02  0.51100000000E-03 0.  1.
         11   -1    0    0    0    0 -0.00000000000E+00 -0.00000000000E+00 -0.45593999997E+02  0.45594000000E+02  0.51100000000E-03 0. -1.
    9900012    2    1    2    0    0 -0.26524830515E+02 -0.69115700190E+01 -0.16290621090E+02  0.59301940829E+02  0.49999994166E+02 0.  0.
        -12    1    1    2    0    0  0.26524830515E+02  0.69115700190E+01  0.16290621090E+02  0.31886059171E+02  0.00000000000E+00 0.  1.
         11    1    3    3    0    0  0.71524118082E+01 -0.11981248804E+02 -0.10874287688E+02  0.17690603454E+02  0.51100000000E-03 0. -1.
        -11    1    3    3    0    0 -0.16575164633E+02 -0.92166716686E+01 -0.28965671461E+01  0.19185234446E+02  0.51100000000E-03 0.  1.
         12    1    3    3    0    0 -0.17102077689E+02  0.14286350454E+02 -0.25197662563E+01  0.22426102929E+02  0.00000000000E+00 0. -1.
</event>
<event>
 7    1  0.1139627E-011  0.5930198E+02  0.7816164E-02  0.1266605E+00
        -11   -1    0    0    0    0  0.00000000000E+00  0.00000000000E+00  0.45593999997E+02  0.45594000000E+02  0.51100000000E-03 0. -1.
         11   -1    0    0    0    0 -0.00000000000E+00 -0.00000000000E+00 -0.45593999997E+02  0.45594000000E+02  0.51100000000E-03 0.  1.
    9900012    2    1    2    0    0  0.29645059753E+02 -0.85791714217E+01  0.80178954678E+01  0.59301978019E+02  0.50000061992E+02 0.  0.
        -12    1    1    2    0    0 -0.29645059753E+02  0.85791714217E+01 -0.80178954678E+01  0.31886021981E+02  0.00000000000E+00 0.  1.
         11    1    3    3    0    0  0.32173784420E+01  0.54873543232E+01 -0.59151578344E+01  0.86862923031E+01  0.51100000000E-03 0. -1.
        -11    1    3    3    0    0  0.32973610311E+02 -0.29227484740E+01  0.17172104338E+02  0.37291857064E+02  0.51100000000E-03 0.  1.
        -12    1    3    3    0    0 -0.65459290001E+01 -0.11143777271E+02 -0.32390510359E+01  0.13323828652E+02  0.00000000000E+00 0.  1.
</event>
<event>
 7    1  0.1139627E-011  0.5930191E+02  0.7816164E-02  0.1266605E+00
        -11   -1    0    0    0    0  0.00000000000E+00  0.00000000000E+00  0.45593999997E+02  0.45594000000E+02  0.51100000000E-03 0.  1.
         11   -1    0    0    0    0 -0.00000000000E+00 -0.00000000000E+00 -0.45593999997E+02  0.45594000000E+02  0.51100000000E-03 0. -1.
    9900012    2    1    2    0    0 -0.18266691022E+02  0.44471640089E+01 -0.25754090955E+02  0.59301914170E+02  0.49999945547E+02 0.  0.
        -12    1    1    2    0    0  0.18266691022E+02 -0.44471640089E+01  0.25754090955E+02  0.31886085830E+02  0.00000000000E+00 0.  1.
         11    1    3    3    0    0  0.37203882114E+01 -0.38365159161E+00 -0.23613308693E+02  0.23907672925E+02  0.51100000000E-03 0. -1.
        -11    1    3    3    0    0 -0.19963996640E+02 -0.82603666154E+01  0.14969962820E+01  0.21657234740E+02  0.51100000000E-03 0.  1.
         12    1    3    3    0    0 -0.20230825939E+01  0.13091182216E+02 -0.36377785441E+01  0.13737006505E+02  0.00000000000E+00 0. -1.
</event>
<event>
 7    1  0.1139627E-011  0.5930195E+02  0.7816164E-02  0.1266605E+00
        -11   -1    0    0    0    0  0.00000000000E+00  0.00000000000E+00  0.45593999997E+02  0.45594000000E+02  0.51100000000E-03 0.  1.
         11   -1    0    0    0    0 -0.00000000000E+00 -0.00000000000E+00 -0.45593999997E+02  0.45594000000E+02  0.51100000000E-03 0. -1.
    9900012    2    1    2    0    0  0.63852494211E+01  0.21626808367E+02 -0.22543958065E+02  0.59301948260E+02  0.50000007718E+02 0.  0.
        -12    1    1    2    0    0 -0.63852494211E+01 -0.21626808367E+02  0.22543958065E+02  0.31886051740E+02  0.00000000000E+00 0.  1.
         11    1    3    3    0    0  0.12403594503E+02 -0.10368915006E+02 -0.68386478291E+01  0.17553650885E+02  0.51100000000E-03 0. -1.
        -11    1    3    3    0    0  0.26932939352E+01  0.24706338019E+02 -0.17295398219E+02  0.30278503437E+02  0.51100000000E-03 0.  1.
        -12    1    3    3    0    0 -0.87116390170E+01  0.72893853537E+01  0.15900879829E+01  0.11469793938E+02  0.00000000000E+00 0.  1.
</event>
<event>
 7    1  0.1139627E-011  0.5930192E+02  0.7816164E-02  0.1266605E+00
        -11   -1    0    0    0    0  0.00000000000E+00  0.00000000000E+00  0.45593999997E+02  0.45594000000E+02  0.51100000000E-03 0. -1.
         11   -1    0    0    0    0 -0.00000000000E+00 -0.00000000000E+00 -0.45593999997E+02  0.45594000000E+02  0.51100000000E-03 0.  1.
    9900012    2    1    2    0    0 -0.85992327365E+01  0.13182154225E+02  0.27730964286E+02  0.59301915670E+02  0.49999948282E+02 0.  0.
        -12    1    1    2    0    0  0.85992327365E+01 -0.13182154225E+02 -0.27730964286E+02  0.31886084330E+02  0.00000000000E+00 0.  1.
         11    1    3    3    0    0  0.97672923849E+01  0.23125434625E+02  0.22630840011E+02  0.33798530249E+02  0.51100000000E-03 0. -1.
        -11    1    3    3    0    0 -0.10695629484E+02 -0.12629322563E+02  0.52866062063E+01  0.17373672148E+02  0.51100000000E-03 0.  1.
         12    1    3    3    0    0 -0.76708956376E+01  0.26860421628E+01 -0.18648193125E+00  0.81297132726E+01  0.00000000000E+00 0. -1.
</event>
<event>
 7    1  0.1139627E-011  0.5930195E+02  0.7816164E-02  0.1266605E+00
        -11   -1    0    0    0    0  0.00000000000E+00  0.00000000000E+00  0.45593999997E+02  0.45594000000E+02  0.51100000000E-03 0.  1.
         11   -1    0    0    0    0 -0.00000000000E+00 -0.00000000000E+00 -0.45593999997E+02  0.45594000000E+02  0.51100000000E-03 0. -1.
    9900012    2    1    2    0    0 -0.32397452080E+01 -0.31124709151E+02 -0.61218167918E+01  0.59301951176E+02  0.50000013037E+02 0.  0.
        -12    1    1    2    0    0  0.32397452080E+01  0.31124709151E+02  0.61218167918E+01  0.31886048824E+02  0.00000000000E+00 0.  1.
         11    1    3    3    0    0 -0.22524199145E+02 -0.27369629933E+02 -0.54199354691E+00  0.35450387122E+02  0.51100000000E-03 0. -1.
        -11    1    3    3    0    0  0.15669459184E+01 -0.33271022283E+01  0.24247769510E+01  0.44050507683E+01  0.51100000000E-03 0.  1.
         12    1    3    3    0    0  0.17717508018E+02 -0.42797698973E+00 -0.80046001959E+01  0.19446513286E+02  0.00000000000E+00 0. -1.
</event>
<event>
 7    1  0.1139627E-011  0.5930192E+02  0.7816164E-02  0.1266605E+00
        -11   -1    0    0    0    0  0.00000000000E+00  0.00000000000E+00  0.45593999997E+02  0.45594000000E+02  0.51100000000E-03 0. -1.
         11   -1    0    0    0    0 -0.00000000000E+00 -0.00000000000E+00 -0.45593999997E+02  0.45594000000E+02  0.51100000000E-03 0.  1.
    9900012    2    1    2    0    0 -0.14395248383E+02  0.22797354323E+02  0.17022911789E+02  0.59301920500E+02  0.49999957090E+02 0.  0.
        -12    1    1    2    0    0  0.14395248383E+02 -0.22797354323E+02 -0.17022911789E+02  0.31886079500E+02  0.00000000000E+00 0.  1.
         11    1    3    3    0    0 -0.13679539623E+02  0.26258581450E+02  0.16694588877E+02  0.33990472225E+02  0.51100000000E-03 0. -1.
        -11    1    3    3    0    0 -0.28837272632E+01 -0.12087358246E+02  0.69359651746E+01  0.14231223611E+02  0.51100000000E-03 0.  1.
        -12    1    3    3    0    0  0.21680185035E+01  0.86261311193E+01 -0.66076422623E+01  0.11080224663E+02  0.00000000000E+00 0.  1.
</event>
<event>
 7    1  0.1139627E-011  0.5930194E+02  0.7816164E-02  0.1266605E+00
        -11   -1    0    0    0    0  0.00000000000E+00  0.00000000000E+00  0.45593999997E+02  0.45594000000E+02  0.51100000000E-03 0.  1.
         11   -1    0    0    0    0 -0.00000000000E+00 -0.00000000000E+00 -0.45593999997E+02  0.45594000000E+02  0.51100000000E-03 0. -1.
    9900012    2    1    2    0    0  0.26322899488E+02 -0.17800518227E+02 -0.26396174820E+01  0.59301936162E+02  0.49999985655E+02 0.  0.
        -12    1    1    2    0    0 -0.26322899488E+02  0.17800518227E+02  0.26396174820E+01  0.31886063838E+02  0.00000000000E+00 0.  1.
         11    1    3    3    0    0  0.21926275888E+02  0.64507499131E+00 -0.21942226829E+02  0.31026424457E+02  0.51100000000E-03 0. -1.
        -11    1    3    3    0    0  0.50853144017E+01 -0.17705758558E+02  0.19886921494E+02  0.27108005376E+02  0.51100000000E-03 0.  1.
         12    1    3    3    0    0 -0.68869080162E+00 -0.73983465986E+00 -0.58431214670E+00  0.11675063293E+01  0.00000000000E+00 0. -1.
</event>
<event>
 7    1  0.1139627E-011  0.5930196E+02  0.7816164E-02  0.1266605E+00
        -11   -1    0    0    0    0  0.00000000000E+00  0.00000000000E+00  0.45593999997E+02  0.45594000000E+02  0.51100000000E-03 0. -1.
         11   -1    0    0    0    0 -0.00000000000E+00 -0.00000000000E+00 -0.45593999997E+02  0.45594000000E+02  0.51100000000E-03 0.  1.
    9900012    2    1    2    0    0  0.31279107174E+02 -0.61916685363E+01  0.10780681064E-01  0.59301961973E+02  0.50000032728E+02 0.  0.
        -12    1    1    2    0    0 -0.31279107174E+02  0.61916685363E+01 -0.10780681064E-01  0.31886038027E+02  0.00000000000E+00 0.  1.
         11    1    3    3    0    0  0.25544444885E+02 -0.17029382129E+02  0.10885105081E+02  0.32573056858E+02  0.51100000000E-03 0. -1.
        -11    1    3    3    0    0  0.41405028732E+00  0.71111562647E+01 -0.16603834097E+02  0.18067298858E+02  0.51100000000E-03 0.  1.
         12    1    3    3    0    0  0.53206120012E+01  0.37265573275E+01  0.57295096972E+01  0.86616062571E+01  0.00000000000E+00 0. -1.
</event>
<event>
 7    1  0.1139627E-011  0.5930195E+02  0.7816164E-02  0.1266605E+00
        -11   -1    0    0    0    0  0.00000000000E+00  0.00000000000E+00  0.45593999997E+02  0.45594000000E+02  0.51100000000E-03 0.  1.
         11   -1    0    0    0    0 -0.00000000000E+00 -0.00000000000E+00 -0.45593999997E+02  0.45594000000E+02  0.51100000000E-03 0. -1.
    9900012    2    1    2    0    0  0.25721459681E+02  0.66971701712E+01  0.17614609962E+02  0.59301951945E+02  0.50000014439E+02 0.  0.
        -12    1    1    2    0    0 -0.25721459681E+02 -0.66971701712E+01 -0.17614609962E+02  0.31886048055E+02  0.00000000000E+00 0.  1.
         11    1    3    3    0    0  0.16899322053E+01 -0.33674219046E+01 -0.62588683121E+01  0.73053975903E+01  0.51100000000E-03 0. -1.
        -11    1    3    3    0    0  0.21348912875E+02  0.22443656628E+02  0.85863105661E+01  0.32143716854E+02  0.51100000000E-03 0.  1.
        -12    1    3    3    0    0  0.26826146008E+01 -0.12379064552E+02  0.15287167708E+02  0.19852837501E+02  0.00000000000E+00 0.  1.
</event>
<event>
 7    1  0.1139627E-011  0.5930194E+02  0.7816164E-02  0.1266605E+00
        -11   -1    0    0    0    0  0.00000000000E+00  0.00000000000E+00  0.45593999997E+02  0.45594000000E+02  0.51100000000E-03 0. -1.
         11   -1    0    0    0    0 -0.00000000000E+00 -0.00000000000E+00 -0.45593999997E+02  0.45594000000E+02  0.51100000000E-03 0.  1.
    9900012    2    1    2    0    0  0.15251865613E+02  0.20968824526E+02  0.18558274916E+02  0.59301943886E+02  0.49999999741E+02 0.  0.
        -12    1    1    2    0    0 -0.15251865613E+02 -0.20968824526E+02 -0.18558274916E+02  0.31886056114E+02  0.00000000000E+00 0.  1.
         11    1    3    3    0    0 -0.13278879754E+02  0.58719835339E+01  0.25251689095E+01  0.14737208570E+02  0.51100000000E-03 0. -1.
        -11    1    3    3    0    0  0.86008547729E+01  0.19369333070E+02  0.78293529489E+01  0.22593019592E+02  0.51100000000E-03 0.  1.
         12    1    3    3    0    0  0.19929890594E+02 -0.42724920783E+01  0.82037530573E+01  0.21971715724E+02  0.00000000000E+00 0. -1.
</event>
<event>
 7    1  0.1139627E-011  0.5930195E+02  0.7816164E-02  0.1266605E+00
        -11   -1    0    0    0    0  0.00000000000E+00  0.00000000000E+00  0.45593999997E+02  0.45594000000E+02  0.51100000000E-03 0.  1.
         11   -1    0    0    0    0 -0.00000000000E+00 -0.00000000000E+00 -0.45593999997E+02  0.45594000000E+02  0.51100000000E-03 0. -1.
    9900012    2    1    2    0    0 -0.27186326140E+02 -0.11437696879E+02 -0.12116224082E+02  0.59301950936E+02  0.50000012599E+02 0.  0.
        -12    1    1    2    0    0  0.27186326140E+02  0.11437696879E+02  0.12116224082E+02  0.31886049064E+02  0.00000000000E+00 0.  1.
         11    1    3    3    0    0 -0.19234122388E+02 -0.26063407674E+02 -0.10688757534E+02  0.34110148365E+02  0.51100000000E-03 0. -1.
        -11    1    3    3    0    0  0.46395851801E+01 -0.61929621381E-01  0.27581687184E+01  0.53978774404E+01  0.51100000000E-03 0.  1.
         12    1    3    3    0    0 -0.12591788932E+02  0.14687640416E+02 -0.41856352668E+01  0.19793925131E+02  0.00000000000E+00 0. -1.
</event>
<event>
 7    1  0.1139627E-011  0.5930193E+02  0.7816164E-02  0.1266605E+00
        -11   -1    0    0    0    0  0.00000000000E+00  0.00000000000E+00  0.45593999997E+02  0.45594000000E+02  0.51100000000E-03 0.  1.
         11   -1    0    0    0    0 -0.00000000000E+00 -0.00000000000E+00 -0.45593999997E+02  0.45594000000E+02  0.51100000000E-03 0. -1.
    9900012    2    1    2    0    0  0.13717712297E+02  0.19469453563E+02 -0.21201085039E+02  0.59301933144E+02  0.49999980151E+02 0.  0.
        -12    1    1    2    0    0 -0.13717712297E+02 -0.19469453563E+02  0.21201085039E+02  0.31886066856E+02  0.00000000000E+00 0.  1.
         11    1    3    3    0    0  0.11431674743E+02  0.95231331755E+01 -0.25026849174E+02  0.29115570280E+02  0.51100000000E-03 0. -1.
        -11    1    3    3    0    0 -0.87990247700E+00  0.14086715800E+02  0.13287053809E+02  0.19384416153E+02  0.51100000000E-03 0.  1.
         12    1    3    3    0    0  0.31659400319E+01 -0.41403954127E+01 -0.94612896736E+01  0.10801946711E+02  0.00000000000E+00 0. -1.
</event>
<event>
 7    1  0.1139627E-011  0.5930199E+02  0.7816164E-02  0.1266605E+00
        -11   -1    0    0    0    0  0.00000000000E+00  0.00000000000E+00  0.45593999997E+02  0.45594000000E+02  0.51100000000E-03 0.  1.
         11   -1    0    0    0    0 -0.00000000000E+00 -0.00000000000E+00 -0.45593999997E+02  0.45594000000E+02  0.51100000000E-03 0. -1.
    9900012    2    1    2    0    0 -0.78702557904E+00 -0.99726321549E+01 -0.30276141679E+02  0.59301991213E+02  0.50000086055E+02 0.  0.
        -12    1    1    2    0    0  0.78702557904E+00  0.99726321549E+01  0.30276141679E+02  0.31886008787E+02  0.00000000000E+00 0.  1.
         11    1    3    3    0    0  0.67489080024E+01 -0.18834315318E+02 -0.26444103534E+02  0.33159761831E+02  0.51100000000E-03 0. -1.
        -11    1    3    3    0    0  0.25041402326E+01 -0.42552259372E+01  0.53198700017E+01  0.72580082100E+01  0.51100000000E-03 0.  1.
         12    1    3    3    0    0 -0.10040073814E+02  0.13116909101E+02 -0.91519081470E+01  0.18884221172E+02  0.00000000000E+00 0. -1.
</event>
<event>
 7    1  0.1139627E-011  0.5930195E+02  0.7816164E-02  0.1266605E+00
        -11   -1    0    0    0    0  0.00000000000E+00  0.00000000000E+00  0.45593999997E+02  0.45594000000E+02  0.51100000000E-03 0.  1.
         11   -1    0    0    0    0 -0.00000000000E+00 -0.00000000000E+00 -0.45593999997E+02  0.45594000000E+02  0.51100000000E-03 0. -1.
    9900012    2    1    2    0    0  0.28710549340E+02 -0.55612309352E+01  0.12708148878E+02  0.59301953195E+02  0.50000016720E+02 0.  0.
        -12    1    1    2    0    0 -0.28710549340E+02  0.55612309352E+01 -0.12708148878E+02  0.31886046805E+02  0.00000000000E+00 0.  1.
         11    1    3    3    0    0  0.20590351937E+02 -0.11350361144E+02 -0.33865736837E+01  0.23754203261E+02  0.51100000000E-03 0. -1.
        -11    1    3    3    0    0 -0.46027372194E+01 -0.40548592507E+01 -0.57575804296E+01  0.84128952281E+01  0.51100000000E-03 0.  1.
         12    1    3    3    0    0  0.12722934622E+02  0.98439894595E+01  0.21852302992E+02  0.27134854706E+02  0.00000000000E+00 0. -1.
</event>
<event>
 7    1  0.1139627E-011  0.5930195E+02  0.7816164E-02  0.1266605E+00
        -11   -1    0    0    0    0  0.00000000000E+00  0.00000000000E+00  0.45593999997E+02  0.45594000000E+02  0.51100000000E-03 0. -1.
         11   -1    0    0    0    0 -0.00000000000E+00 -0.00000000000E+00 -0.45593999997E+02  0.45594000000E+02  0.51100000000E-03 0.  1.
    9900012    2    1    2    0    0 -0.54486828687E+01 -0.31571839021E+01  0.31258030757E+02  0.59301945964E+02  0.50000003531E+02 0.  0.
        -12    1    1    2    0    0  0.54486828687E+01  0.31571839021E+01 -0.31258030757E+02  0.31886054036E+02  0.00000000000E+00 0.  1.
         11    1    3    3    0    0  0.12170901378E+02 -0.13772056299E+02  0.12164340225E+02  0.22040225689E+02  0.51100000000E-03 0. -1.
        -11    1    3    3    0    0 -0.20202776214E+01  0.13806103981E+02  0.15657943503E+02  0.20972868755E+02  0.51100000000E-03 0.  1.
         12    1    3    3    0    0 -0.15599306625E+02 -0.31912315841E+01  0.34357470284E+01  0.16288851520E+02  0.00000000000E+00 0. -1.
</event>
<event>
 7    1  0.1139627E-011  0.5930195E+02  0.7816164E-02  0.1266605E+00
        -11   -1    0    0    0    0  0.00000000000E+00  0.00000000000E+00  0.45593999997E+02  0.45594000000E+02  0.51100000000E-03 0.  1.
         11   -1    0    0    0    0 -0.00000000000E+00 -0.00000000000E+00 -0.45593999997E+02  0.45594000000E+02  0.51100000000E-03 0. -1.
    9900012    2    1    2    0    0 -0.22374722705E+02  0.22629251484E+02  0.20022402440E+01  0.59301949683E+02  0.50000010313E+02 0.  0.
        -12    1    1    2    0    0  0.22374722705E+02 -0.22629251484E+02 -0.20022402440E+01  0.31886050317E+02  0.00000000000E+00 0.  1.
         11    1    3    3    0    0 -0.24502799775E+02 -0.38455982242E+01 -0.11907102387E+02  0.27512813561E+02  0.51100000000E-03 0. -1.
        -11    1    3    3    0    0 -0.18968734539E+01  0.10642262529E+02  0.10562474771E+02  0.15113628095E+02  0.51100000000E-03 0.  1.
         12    1    3    3    0    0  0.40249505238E+01  0.15832587178E+02  0.33468678598E+01  0.16675508027E+02  0.00000000000E+00 0. -1.
</event>
<event>
 7    1  0.1139627E-011  0.5930196E+02  0.7816164E-02  0.1266605E+00
        -11   -1    0    0    0    0  0.00000000000E+00  0.00000000000E+00  0.45593999997E+02  0.45594000000E+02  0.51100000000E-03 0.  1.
         11   -1    0    0    0    0 -0.00000000000E+00 -0.00000000000E+00 -0.45593999997E+02  0.45594000000E+02  0.51100000000E-03 0. -1.
    9900012    2    1    2    0    0  0.18487546514E+02 -0.83313592956E+01 -0.24607293421E+02  0.59301955822E+02  0.50000021511E+02 0.  0.
        -12    1    1    2    0    0 -0.18487546514E+02  0.83313592956E+01  0.24607293421E+02  0.31886044178E+02  0.00000000000E+00 0.  1.
         11    1    3    3    0    0  0.52599824013E+01 -0.13703140574E+02  0.48380360012E+01  0.15454774960E+02  0.51100000000E-03 0. -1.
        -11    1    3    3    0    0  0.10747143325E+02  0.16909874571E+02 -0.14153809970E+02  0.24531108507E+02  0.51100000000E-03 0.  1.
         12    1    3    3    0    0  0.24804207877E+01 -0.11538093292E+02 -0.15291519451E+02  0.19316072355E+02  0.00000000000E+00 0. -1.
</event>
<event>
 7    1  0.1139627E-011  0.5930194E+02  0.7816164E-02  0.1266605E+00
        -11   -1    0    0    0    0  0.00000000000E+00  0.00000000000E+00  0.45593999997E+02  0.45594000000E+02  0.51100000000E-03 0. -1.
         11   -1    0    0    0    0 -0.00000000000E+00 -0.00000000000E+00 -0.45593999997E+02  0.45594000000E+02  0.51100000000E-03 0.  1.
    9900012    2    1    2    0    0 -0.10517620317E+02 -0.28796146837E+01  0.29963451192E+02  0.59301938387E+02  0.49999989712E+02 0.  0.
        -12    1    1    2    0    0  0.10517620317E+02  0.28796146837E+01 -0.29963451192E+02  0.31886061613E+02  0.00000000000E+00 0.  1.
         11    1    3    3    0    0 -0.58500252736E+01 -0.38404277498E+01  0.24715196200E+02  0.25686817717E+02  0.51100000000E-03 0.  1.
        -11    1    3    3    0    0  0.12734014763E+02  0.40524943521E+01  0.82255900957E+01  0.15691978050E+02  0.51100000000E-03 0. -1.
        -12    1    3    3    0    0 -0.17401609806E+02 -0.30916812860E+01 -0.29773351031E+01  0.17923142619E+02  0.00000000000E+00 0.  1.
</event>
<event>
 7    1  0.1139627E-011  0.5930166E+02  0.7816164E-02  0.1266606E+00
        -11   -1    0    0    0    0  0.00000000000E+00  0.00000000000E+00  0.45593999997E+02  0.45594000000E+02  0.51100000000E-03 0.  1.
         11   -1    0    0    0    0 -0.00000000000E+00 -0.00000000000E+00 -0.45593999997E+02  0.45594000000E+02  0.51100000000E-03 0. -1.
    9900012    2    1    2    0    0 -0.23758216590E+02  0.17656003025E+02  0.11855431686E+02  0.59301661878E+02  0.49999485425E+02 0.  0.
        -12    1    1    2    0    0  0.23758216590E+02 -0.17656003025E+02 -0.11855431686E+02  0.31886338122E+02  0.00000000000E+00 0.  1.
         11    1    3    3    0    0 -0.11084501917E+02  0.62163757637E+01 -0.18654334920E+02  0.22571967614E+02  0.51100000000E-03 0. -1.
        -11    1    3    3    0    0 -0.24114339619E+00  0.21660240664E+01  0.13641438664E+02  0.13814436633E+02  0.51100000000E-03 0.  1.
         12    1    3    3    0    0 -0.12432571277E+02  0.92736031947E+01  0.16868327942E+02  0.22915257631E+02  0.00000000000E+00 0. -1.
</event>
<event>
 7    1  0.1139627E-011  0.5930196E+02  0.7816164E-02  0.1266605E+00
        -11   -1    0    0    0    0  0.00000000000E+00  0.00000000000E+00  0.45593999997E+02  0.45594000000E+02  0.51100000000E-03 0.  1.
         11   -1    0    0    0    0 -0.00000000000E+00 -0.00000000000E+00 -0.45593999997E+02  0.45594000000E+02  0.51100000000E-03 0. -1.
    9900012    2    1    2    0    0  0.89193252052E+01  0.13012400296E+02 -0.27709975872E+02  0.59301957812E+02  0.50000025139E+02 0.  0.
        -12    1    1    2    0    0 -0.89193252052E+01 -0.13012400296E+02  0.27709975872E+02  0.31886042188E+02  0.00000000000E+00 0.  1.
         11    1    3    3    0    0 -0.13957327725E+02  0.18013878496E+02 -0.60054661442E+01  0.23566341243E+02  0.51100000000E-03 0. -1.
        -11    1    3    3    0    0  0.17970055316E+01 -0.46601108252E+01  0.61624253096E+00  0.50324563487E+01  0.51100000000E-03 0.  1.
         12    1    3    3    0    0  0.21079647398E+02 -0.34136737563E+00 -0.22320752259E+02  0.30703160221E+02  0.00000000000E+00 0. -1.
</event>
<event>
 7    1  0.1139627E-011  0.5930197E+02  0.7816164E-02  0.1266605E+00
        -11   -1    0    0    0    0  0.00000000000E+00  0.00000000000E+00  0.45593999997E+02  0.45594000000E+02  0.51100000000E-03 0. -1.
         11   -1    0    0    0    0 -0.00000000000E+00 -0.00000000000E+00 -0.45593999997E+02  0.45594000000E+02  0.51100000000E-03 0.  1.
    9900012    2    1    2    0    0 -0.22351072016E+02  0.22594431119E+02  0.25769125439E+01  0.59301965187E+02  0.50000038589E+02 0.  0.
        -12    1    1    2    0    0  0.22351072016E+02 -0.22594431119E+02 -0.25769125439E+01  0.31886034813E+02  0.00000000000E+00 0.  1.
         11    1    3    3    0    0 -0.15041849353E+02  0.73577479935E+01  0.97959308388E+00  0.16773589072E+02  0.51100000000E-03 0. -1.
        -11    1    3    3    0    0  0.22262291583E+01 -0.56952575417E+00 -0.16510726050E+02  0.16669868950E+02  0.51100000000E-03 0.  1.
        -12    1    3    3    0    0 -0.95354518209E+01  0.15806208880E+02  0.18108045510E+02  0.25858507164E+02  0.00000000000E+00 0.  1.
</event>
<event>
 7    1  0.1139627E-011  0.5930194E+02  0.7816164E-02  0.1266605E+00
        -11   -1    0    0    0    0  0.00000000000E+00  0.00000000000E+00  0.45593999997E+02  0.45594000000E+02  0.51100000000E-03 0. -1.
         11   -1    0    0    0    0 -0.00000000000E+00 -0.00000000000E+00 -0.45593999997E+02  0.45594000000E+02  0.51100000000E-03 0.  1.
    9900012    2    1    2    0    0 -0.88893480209E+01 -0.25167487197E+02  0.17444135720E+02  0.59301940491E+02  0.49999993549E+02 0.  0.
        -12    1    1    2    0    0  0.88893480209E+01  0.25167487197E+02 -0.17444135720E+02  0.31886059509E+02  0.00000000000E+00 0.  1.
         11    1    3    3    0    0 -0.10769050101E+02  0.88785469940E+01 -0.36238190204E+01  0.14419885622E+02  0.51100000000E-03 0. -1.
        -11    1    3    3    0    0  0.77563803529E+01 -0.48151559423E+01  0.86734296815E+01  0.12592678255E+02  0.51100000000E-03 0.  1.
         12    1    3    3    0    0 -0.58766782732E+01 -0.29230878248E+02  0.12394525059E+02  0.32289376614E+02  0.00000000000E+00 0. -1.
</event>
<event>
 7    1  0.1139627E-011  0.5930195E+02  0.7816164E-02  0.1266605E+00
        -11   -1    0    0    0    0  0.00000000000E+00  0.00000000000E+00  0.45593999997E+02  0.45594000000E+02  0.51100000000E-03 0.  1.
         11   -1    0    0    0    0 -0.00000000000E+00 -0.00000000000E+00 -0.45593999997E+02  0.45594000000E+02  0.51100000000E-03 0. -1.
    9900012    2    1    2    0    0  0.52459484353E+01 -0.18696998464E+02 -0.25290754078E+02  0.59301953391E+02  0.50000017076E+02 0.  0.
        -12    1    1    2    0    0 -0.52459484353E+01  0.18696998464E+02  0.25290754078E+02  0.31886046609E+02  0.00000000000E+00 0.  1.
         11    1    3    3    0    0  0.12836687747E+02 -0.25953274699E+02 -0.20539446782E+02  0.35499604142E+02  0.51100000000E-03 0. -1.
        -11    1    3    3    0    0  0.45100774185E+01  0.98971094214E+01 -0.30835077278E+01  0.11304936682E+02  0.51100000000E-03 0.  1.
         12    1    3    3    0    0 -0.12100816730E+02 -0.26408331866E+01 -0.16677995682E+01  0.12497412566E+02  0.00000000000E+00 0. -1.
</event>
<event>
 7    1  0.1139627E-011  0.5930191E+02  0.7816164E-02  0.1266605E+00
        -11   -1    0    0    0    0  0.00000000000E+00  0.00000000000E+00  0.45593999997E+02  0.45594000000E+02  0.51100000000E-03 0.  1.
         11   -1    0    0    0    0 -0.00000000000E+00 -0.00000000000E+00 -0.45593999997E+02  0.45594000000E+02  0.51100000000E-03 0. -1.
    9900012    2    1    2    0    0 -0.21858463617E+02  0.10282030886E+02 -0.20813698333E+02  0.59301911668E+02  0.49999940984E+02 0.  0.
        -12    1    1    2    0    0  0.21858463617E+02 -0.10282030886E+02  0.20813698333E+02  0.31886088332E+02  0.00000000000E+00 0.  1.
         11    1    3    3    0    0  0.94900077501E+01 -0.92478433246E+01 -0.62277653050E+01  0.14641308487E+02  0.51100000000E-03 0.  1.
        -11    1    3    3    0    0 -0.18363302816E+02  0.15838992434E+02 -0.18616530839E+02  0.30572206207E+02  0.51100000000E-03 0. -1.
        -12    1    3    3    0    0 -0.12985168551E+02  0.36908817770E+01  0.40305978118E+01  0.14088396974E+02  0.00000000000E+00 0.  1.
</event>
<event>
 7    1  0.1139627E-011  0.5930195E+02  0.7816164E-02  0.1266605E+00
        -11   -1    0    0    0    0  0.00000000000E+00  0.00000000000E+00  0.45593999997E+02  0.45594000000E+02  0.51100000000E-03 0. -1.
         11   -1    0    0    0    0 -0.00000000000E+00 -0.00000000000E+00 -0.45593999997E+02  0.45594000000E+02  0.51100000000E-03 0.  1.
    9900012    2    1    2    0    0 -0.24497605911E+02  0.13528200438E+02  0.15283175363E+02  0.59301947381E+02  0.50000006115E+02 0.  0.
        -12    1    1    2    0    0  0.24497605911E+02 -0.13528200438E+02 -0.15283175363E+02  0.31886052619E+02  0.00000000000E+00 0.  1.
         11    1    3    3    0    0  0.10001483163E+02  0.41737748927E+01  0.10070078152E+02  0.14793800612E+02  0.51100000000E-03 0. -1.
        -11    1    3    3    0    0 -0.58108370861E+01  0.82261480088E+01 -0.80393662938E+01  0.12886688844E+02  0.51100000000E-03 0.  1.
         12    1    3    3    0    0 -0.28688251988E+02  0.11282775369E+01  0.13252463505E+02  0.31621457924E+02  0.00000000000E+00 0. -1.
</event>
<event>
 7    1  0.1139627E-011  0.5930200E+02  0.7816164E-02  0.1266605E+00
        -11   -1    0    0    0    0  0.00000000000E+00  0.00000000000E+00  0.45593999997E+02  0.45594000000E+02  0.51100000000E-03 0.  1.
         11   -1    0    0    0    0 -0.00000000000E+00 -0.00000000000E+00 -0.45593999997E+02  0.45594000000E+02  0.51100000000E-03 0. -1.
    9900012    2    1    2    0    0 -0.24019513138E+02  0.20858318973E+02 -0.21703614950E+01  0.59302000709E+02  0.50000103372E+02 0.  0.
        -12    1    1    2    0    0  0.24019513138E+02 -0.20858318973E+02  0.21703614950E+01  0.31885999291E+02  0.00000000000E+00 0.  1.
         11    1    3    3    0    0  0.10802994942E+02 -0.26474687255E+01 -0.10345845492E+02  0.15190467721E+02  0.51100000000E-03 0. -1.
        -11    1    3    3    0    0 -0.21412585404E+02  0.10951647604E+02  0.91104215326E+01  0.25718421018E+02  0.51100000000E-03 0.  1.
         12    1    3    3    0    0 -0.13409922677E+02  0.12554140095E+02 -0.93493753519E+00  0.18393111969E+02  0.00000000000E+00 0. -1.
</event>
<event>
 7    1  0.1139627E-011  0.5930195E+02  0.7816164E-02  0.1266605E+00
        -11   -1    0    0    0    0  0.00000000000E+00  0.00000000000E+00  0.45593999997E+02  0.45594000000E+02  0.51100000000E-03 0.  1.
         11   -1    0    0    0    0 -0.00000000000E+00 -0.00000000000E+00 -0.45593999997E+02  0.45594000000E+02  0.51100000000E-03 0. -1.
    9900012    2    1    2    0    0 -0.15710020956E+02 -0.26339536128E+02 -0.87260768247E+01  0.59301947585E+02  0.50000006487E+02 0.  0.
        -12    1    1    2    0    0  0.15710020956E+02  0.26339536128E+02  0.87260768247E+01  0.31886052415E+02  0.00000000000E+00 0.  1.
         11    1    3    3    0    0 -0.20310490595E+02 -0.62721316284E+01 -0.22849445942E+02  0.31208217563E+02  0.51100000000E-03 0. -1.
        -11    1    3    3    0    0  0.56154716713E+01 -0.91069533974E+01  0.68252400215E+00  0.10720819071E+02  0.51100000000E-03 0.  1.
         12    1    3    3    0    0 -0.10150020325E+01 -0.10960451102E+02  0.13440845115E+02  0.17372910951E+02  0.00000000000E+00 0. -1.
</event>
<event>
 7    1  0.1139627E-011  0.5930192E+02  0.7816164E-02  0.1266605E+00
        -11   -1    0    0    0    0  0.00000000000E+00  0.00000000000E+00  0.45593999997E+02  0.45594000000E+02  0.51100000000E-03 0.  1.
         11   -1    0    0    0    0 -0.00000000000E+00 -0.00000000000E+00 -0.45593999997E+02  0.45594000000E+02  0.51100000000E-03 0. -1.
    9900012    2    1    2    0    0  0.14879636477E+02  0.95149877695E+01 -0.26547754782E+02  0.59301923761E+02  0.49999963039E+02 0.  0.
        -12    1    1    2    0    0 -0.14879636477E+02 -0.95149877695E+01  0.26547754782E+02  0.31886076239E+02  0.00000000000E+00 0.  1.
         11    1    3    3    0    0  0.44958583258E+01  0.17162414058E+02 -0.36907849760E+01  0.18121343559E+02  0.51100000000E-03 0.  1.
        -11    1    3    3    0    0  0.21710742732E+02 -0.36227844608E+01 -0.12494830330E+02  0.25310110676E+02  0.51100000000E-03 0. -1.
        -12    1    3    3    0    0 -0.11326964581E+02 -0.40246418275E+01 -0.10362139476E+02  0.15870469526E+02  0.00000000000E+00 0.  1.
</event>
<event>
 7    1  0.1139627E-011  0.5930194E+02  0.7816164E-02  0.1266605E+00
        -11   -1    0    0    0    0  0.00000000000E+00  0.00000000000E+00  0.45593999997E+02  0.45594000000E+02  0.51100000000E-03 0. -1.
         11   -1    0    0    0    0 -0.00000000000E+00 -0.00000000000E+00 -0.45593999997E+02  0.45594000000E+02  0.51100000000E-03 0.  1.
    9900012    2    1    2    0    0  0.30157317574E+02 -0.83974333108E+01 -0.60613645712E+01  0.59301939880E+02  0.49999992436E+02 0.  0.
        -12    1    1    2    0    0 -0.30157317574E+02  0.83974333108E+01  0.60613645712E+01  0.31886060120E+02  0.00000000000E+00 0.  1.
         11    1    3    3    0    0  0.14793210878E+02 -0.23400859550E+02  0.54594846579E+01  0.28217818640E+02  0.51100000000E-03 0. -1.
        -11    1    3    3    0    0 -0.97754041689E+00  0.71044438722E+01  0.30652296554E+01  0.77989961599E+01  0.51100000000E-03 0.  1.
         12    1    3    3    0    0  0.16341647113E+02  0.78989823673E+01 -0.14586078884E+02  0.23285125081E+02  0.00000000000E+00 0. -1.
</event>
<event>
 7    1  0.1139627E-011  0.5930201E+02  0.7816164E-02  0.1266605E+00
        -11   -1    0    0    0    0  0.00000000000E+00  0.00000000000E+00  0.45593999997E+02  0.45594000000E+02  0.51100000000E-03 0. -1.
         11   -1    0    0    0    0 -0.00000000000E+00 -0.00000000000E+00 -0.45593999997E+02  0.45594000000E+02  0.51100000000E-03 0.  1.
    9900012    2    1    2    0    0  0.28711857233E+02 -0.65448500810E+01  0.12227460697E+02  0.59302006156E+02  0.50000113307E+02 0.  0.
        -12    1    1    2    0    0 -0.28711857233E+02  0.65448500810E+01 -0.12227460697E+02  0.31885993844E+02  0.00000000000E+00 0.  1.
         11    1    3    3    0    0  0.26559279849E+02 -0.13402871294E+02  0.18938964976E+02  0.35266367827E+02  0.51100000000E-03 0. -1.
        -11    1    3    3    0    0  0.53476823999E+01  0.13054933713E+02  0.35008584440E+00  0.14112106918E+02  0.51100000000E-03 0.  1.
        -12    1    3    3    0    0 -0.31951050163E+01 -0.61969124996E+01 -0.70615901241E+01  0.99235314115E+01  0.00000000000E+00 0.  1.
</event>
<event>
 7    1  0.1139627E-011  0.5930195E+02  0.7816164E-02  0.1266605E+00
        -11   -1    0    0    0    0  0.00000000000E+00  0.00000000000E+00  0.45593999997E+02  0.45594000000E+02  0.51100000000E-03 0. -1.
         11   -1    0    0    0    0 -0.00000000000E+00 -0.00000000000E+00 -0.45593999997E+02  0.45594000000E+02  0.51100000000E-03 0.  1.
    9900012    2    1    2    0    0  0.13900621357E+02  0.16818692182E+01  0.28647242811E+02  0.59301945386E+02  0.50000002477E+02 0.  0.
        -12    1    1    2    0    0 -0.13900621357E+02 -0.16818692182E+01 -0.28647242811E+02  0.31886054614E+02  0.00000000000E+00 0.  1.
         11    1    3    3    0    0  0.20737911355E+01  0.20680565916E+02  0.13235296871E+02  0.24640606726E+02  0.51100000000E-03 0. -1.
        -11    1    3    3    0    0  0.16950090250E+02 -0.78925479720E+01  0.78284333825E+01  0.20270230449E+02  0.51100000000E-03 0.  1.
         12    1    3    3    0    0 -0.51232600282E+01 -0.11106148726E+02  0.75835125575E+01  0.14391108211E+02  0.00000000000E+00 0. -1.
</event>
<event>
 7    1  0.1139627E-011  0.5930197E+02  0.7816164E-02  0.1266605E+00
        -11   -1    0    0    0    0  0.00000000000E+00  0.00000000000E+00  0.45593999997E+02  0.45594000000E+02  0.51100000000E-03 0.  1.
         11   -1    0    0    0    0 -0.00000000000E+00 -0.00000000000E+00 -0.45593999997E+02  0.45594000000E+02  0.51100000000E-03 0. -1.
    9900012    2    1    2    0    0  0.69445779441E-01 -0.21132678430E+02 -0.23877268284E+02  0.59301970755E+02  0.50000048744E+02 0.  0.
        -12    1    1    2    0    0 -0.69445779441E-01  0.21132678430E+02  0.23877268284E+02  0.31886029245E+02  0.00000000000E+00 0.  1.
         11    1    3    3    0    0  0.15629993817E+02 -0.24026963928E+02 -0.73014436664E+01  0.29578755590E+02  0.51100000000E-03 0. -1.
        -11    1    3    3    0    0 -0.13807210789E+02 -0.54997166470E+01 -0.14783439222E+02  0.20962729509E+02  0.51100000000E-03 0.  1.
        -12    1    3    3    0    0 -0.17533372490E+01  0.83940021456E+01 -0.17923853953E+01  0.87604856563E+01  0.00000000000E+00 0.  1.
</event>
<event>
 7    1  0.1139627E-011  0.5930182E+02  0.7816164E-02  0.1266605E+00
        -11   -1    0    0    0    0  0.00000000000E+00  0.00000000000E+00  0.45593999997E+02  0.45594000000E+02  0.51100000000E-03 0. -1.
         11   -1    0    0    0    0 -0.00000000000E+00 -0.00000000000E+00 -0.45593999997E+02  0.45594000000E+02  0.51100000000E-03 0.  1.
    9900012    2    1    2    0    0  0.99323238469E+01  0.23268505024E+02  0.19407573978E+02  0.59301822576E+02  0.49999778500E+02 0.  0.
        -12    1    1    2    0    0 -0.99323238469E+01 -0.23268505024E+02 -0.19407573978E+02  0.31886177424E+02  0.00000000000E+00 0.  1.
         11    1    3    3    0    0  0.12184322272E+02  0.18115546955E+02  0.16229337725E+02  0.27203348212E+02  0.51100000000E-03 0. -1.
        -11    1    3    3    0    0 -0.74929879469E+01 -0.11885562684E+02  0.39280762056E+00  0.14055809004E+02  0.51100000000E-03 0.  1.
        -12    1    3    3    0    0  0.52409895223E+01  0.17038520752E+02  0.27854286321E+01  0.18042665359E+02  0.00000000000E+00 0.  1.
</event>
<event>
 7    1  0.1139627E-011  0.5930194E+02  0.7816164E-02  0.1266605E+00
        -11   -1    0    0    0    0  0.00000000000E+00  0.00000000000E+00  0.45593999997E+02  0.45594000000E+02  0.51100000000E-03 0.  1.
         11   -1    0    0    0    0 -0.00000000000E+00 -0.00000000000E+00 -0.45593999997E+02  0.45594000000E+02  0.51100000000E-03 0. -1.
    9900012    2    1    2    0    0 -0.13489679598E+02  0.28792866760E+02  0.23916357124E+01  0.59301944218E+02  0.50000000347E+02 0.  0.
        -12    1    1    2    0    0  0.13489679598E+02 -0.28792866760E+02 -0.23916357124E+01  0.31886055782E+02  0.00000000000E+00 0.  1.
         11    1    3    3    0    0 -0.74055561649E+01  0.27285014651E+02 -0.13530659501E+02  0.31343149705E+02  0.51100000000E-03 0. -1.
        -11    1    3    3    0    0 -0.39173443343E+01  0.77597698460E+01  0.18823736902E+02  0.20733853619E+02  0.51100000000E-03 0.  1.
        -12    1    3    3    0    0 -0.21667790992E+01 -0.62519177368E+01 -0.29014416887E+01  0.72249408942E+01  0.00000000000E+00 0.  1.
</event>
<event>
 7    1  0.1139627E-011  0.5930195E+02  0.7816164E-02  0.1266605E+00
        -11   -1    0    0    0    0  0.00000000000E+00  0.00000000000E+00  0.45593999997E+02  0.45594000000E+02  0.51100000000E-03 0.  1.
         11   -1    0    0    0    0 -0.00000000000E+00 -0.00000000000E+00 -0.45593999997E+02  0.45594000000E+02  0.51100000000E-03 0. -1.
    9900012    2    1    2    0    0 -0.31396521377E+02  0.25495661536E+01 -0.49475537522E+01  0.59301950852E+02  0.50000012446E+02 0.  0.
        -12    1    1    2    0    0  0.31396521377E+02 -0.25495661536E+01  0.49475537522E+01  0.31886049148E+02  0.00000000000E+00 0.  1.
         11    1    3    3    0    0 -0.52569219070E+01  0.97781811758E+01  0.12411886072E+01  0.11170881991E+02  0.51100000000E-03 0. -1.
        -11    1    3    3    0    0 -0.72894898247E+01 -0.22384240049E+02 -0.27784347871E+01  0.23704652805E+02  0.51100000000E-03 0.  1.
        -12    1    3    3    0    0 -0.18850109645E+02  0.15155625027E+02 -0.34103075723E+01  0.24426416056E+02  0.00000000000E+00 0.  1.
</event>
<event>
 7    1  0.1139627E-011  0.5930195E+02  0.7816164E-02  0.1266605E+00
        -11   -1    0    0    0    0  0.00000000000E+00  0.00000000000E+00  0.45593999997E+02  0.45594000000E+02  0.51100000000E-03 0. -1.
         11   -1    0    0    0    0 -0.00000000000E+00 -0.00000000000E+00 -0.45593999997E+02  0.45594000000E+02  0.51100000000E-03 0.  1.
    9900012    2    1    2    0    0 -0.16830461102E+02  0.26595704574E+02 -0.51112143450E+01  0.59301946077E+02  0.50000003737E+02 0.  0.
        -12    1    1    2    0    0  0.16830461102E+02 -0.26595704574E+02  0.51112143450E+01  0.31886053923E+02  0.00000000000E+00 0.  1.
         11    1    3    3    0    0 -0.20937761905E+02  0.84972862374E+01 -0.15204465085E+02  0.27235445760E+02  0.51100000000E-03 0. -1.
        -11    1    3    3    0    0  0.11432530049E+02  0.85610819797E+00  0.57949385018E+01  0.12845893393E+02  0.51100000000E-03 0.  1.
         12    1    3    3    0    0 -0.73252292462E+01  0.17242310138E+02  0.42983122386E+01  0.19220606924E+02  0.00000000000E+00 0. -1.
</event>
<event>
 7    1  0.1139627E-011  0.5930202E+02  0.7816164E-02  0.1266604E+00
        -11   -1    0    0    0    0  0.00000000000E+00  0.00000000000E+00  0.45593999997E+02  0.45594000000E+02  0.51100000000E-03 0.  1.
         11   -1    0    0    0    0 -0.00000000000E+00 -0.00000000000E+00 -0.45593999997E+02  0.45594000000E+02  0.51100000000E-03 0. -1.
    9900012    2    1    2    0    0 -0.25632016176E+02 -0.18605886387E+02  0.36791769922E+01  0.59302021815E+02  0.50000141864E+02 0.  0.
        -12    1    1    2    0    0  0.25632016176E+02  0.18605886387E+02 -0.36791769922E+01  0.31885978185E+02  0.00000000000E+00 0.  1.
         11    1    3    3    0    0  0.60723066387E+01  0.11027867602E+02 -0.40711700760E+01  0.13231069413E+02  0.51100000000E-03 0. -1.
        -11    1    3    3    0    0 -0.21295142801E+02 -0.10914111247E+02  0.28473478727E+01  0.24097890393E+02  0.51100000000E-03 0.  1.
         12    1    3    3    0    0 -0.10409180014E+02 -0.18719642742E+02  0.49029991955E+01  0.21973062009E+02  0.00000000000E+00 0. -1.
</event>
<event>
 7    1  0.1139627E-011  0.5930195E+02  0.7816164E-02  0.1266605E+00
        -11   -1    0    0    0    0  0.00000000000E+00  0.00000000000E+00  0.45593999997E+02  0.45594000000E+02  0.51100000000E-03 0.  1.
         11   -1    0    0    0    0 -0.00000000000E+00 -0.00000000000E+00 -0.45593999997E+02  0.45594000000E+02  0.51100000000E-03 0. -1.
    9900012    2    1    2    0    0  0.31978011549E+01  0.20519852033E+02 -0.24195657657E+02  0.59301951183E+02  0.50000013050E+02 0.  0.
        -12    1    1    2    0    0 -0.31978011549E+01 -0.20519852033E+02  0.24195657657E+02  0.31886048817E+02  0.00000000000E+00 0.  1.
         11    1    3    3    0    0  0.18843442565E+02  0.22336069602E+01 -0.26460017673E+02  0.32560664356E+02  0.51100000000E-03 0. -1.
        -11    1    3    3    0    0 -0.14738253329E+02  0.10380079519E+02 -0.11897760541E+01  0.18065927303E+02  0.51100000000E-03 0.  1.
         12    1    3    3    0    0 -0.90738808159E+00  0.79061655535E+01  0.34541360696E+01  0.86753595243E+01  0.00000000000E+00 0. -1.
</event>
<event>
 7    1  0.1139627E-011  0.5930194E+02  0.7816164E-02  0.1266605E+00
        -11   -1    0    0    0    0  0.00000000000E+00  0.00000000000E+00  0.45593999997E+02  0.45594000000E+02  0.51100000000E-03 0. -1.
         11   -1    0    0    0    0 -0.00000000000E+00 -0.00000000000E+00 -0.45593999997E+02  0.45594000000E+02  0.51100000000E-03 0.  1.
    9900012    2    1    2    0    0 -0.43504212148E+01  0.15383527215E+02  0.27588795681E+02  0.59301941582E+02  0.49999995539E+02 0.  0.
        -12    1    1    2    0    0  0.43504212148E+01 -0.15383527215E+02 -0.27588795681E+02  0.31886058418E+02  0.00000000000E+00 0.  1.
         11    1    3    3    0    0  0.78178824107E+01  0.26750619630E+02  0.20103024742E+02  0.34363447731E+02  0.51100000000E-03 0. -1.
        -11    1    3    3    0    0 -0.12603770175E+02 -0.26073320580E+01 -0.76986500649E+00  0.12893637791E+02  0.51100000000E-03 0.  1.
         12    1    3    3    0    0  0.43546654945E+00 -0.87597603568E+01  0.82556359461E+01  0.12044856060E+02  0.00000000000E+00 0. -1.
</event>
<event>
 7    1  0.1139627E-011  0.5930203E+02  0.7816164E-02  0.1266604E+00
        -11   -1    0    0    0    0  0.00000000000E+00  0.00000000000E+00  0.45593999997E+02  0.45594000000E+02  0.51100000000E-03 0.  1.
         11   -1    0    0    0    0 -0.00000000000E+00 -0.00000000000E+00 -0.45593999997E+02  0.45594000000E+02  0.51100000000E-03 0. -1.
    9900012    2    1    2    0    0 -0.24871249150E+02 -0.18297317485E+02 -0.79588968035E+01  0.59302032871E+02  0.50000162028E+02 0.  0.
        -12    1    1    2    0    0  0.24871249150E+02  0.18297317485E+02  0.79588968035E+01  0.31885967129E+02  0.00000000000E+00 0.  1.
         11    1    3    3    0    0 -0.24946660933E+02 -0.21775641804E+02  0.87594304194E+01  0.34252621640E+02  0.51100000000E-03 0. -1.
        -11    1    3    3    0    0  0.89778404522E+01  0.19750091384E+01 -0.11113745208E+02  0.14422815713E+02  0.51100000000E-03 0.  1.
         12    1    3    3    0    0 -0.89024286686E+01  0.15033151805E+01 -0.56045820149E+01  0.10626595518E+02  0.00000000000E+00 0. -1.
</event>
<event>
 7    1  0.1139627E-011  0.5930193E+02  0.7816164E-02  0.1266605E+00
        -11   -1    0    0    0    0  0.00000000000E+00  0.00000000000E+00  0.45593999997E+02  0.45594000000E+02  0.51100000000E-03 0. -1.
         11   -1    0    0    0    0 -0.00000000000E+00 -0.00000000000E+00 -0.45593999997E+02  0.45594000000E+02  0.51100000000E-03 0.  1.
    9900012    2    1    2    0    0 -0.37795227719E+00  0.24207377939E+02 -0.20750457935E+02  0.59301929387E+02  0.49999973299E+02 0.  0.
        -12    1    1    2    0    0  0.37795227719E+00 -0.24207377939E+02  0.20750457935E+02  0.31886070613E+02  0.00000000000E+00 0.  1.
         11    1    3    3    0    0  0.18246560705E+02  0.13644977042E+02 -0.49244081064E+01  0.23310344732E+02  0.51100000000E-03 0. -1.
        -11    1    3    3    0    0 -0.12798520319E+01 -0.63075823313E+01 -0.85964759197E+01  0.10738855367E+02  0.51100000000E-03 0.  1.
         12    1    3    3    0    0 -0.17344660951E+02  0.16869983228E+02 -0.72295739085E+01  0.25252729288E+02  0.00000000000E+00 0. -1.
</event>
<event>
 7    1  0.1139627E-011  0.5930173E+02  0.7816164E-02  0.1266606E+00
        -11   -1    0    0    0    0  0.00000000000E+00  0.00000000000E+00  0.45593999997E+02  0.45594000000E+02  0.51100000000E-03 0.  1.
         11   -1    0    0    0    0 -0.00000000000E+00 -0.00000000000E+00 -0.45593999997E+02  0.45594000000E+02  0.51100000000E-03 0. -1.
    9900012    2    1    2    0    0 -0.14940015066E+02  0.17476294816E+02 -0.22093199001E+02  0.59301727519E+02  0.49999605139E+02 0.  0.
        -12    1    1    2    0    0  0.14940015066E+02 -0.17476294816E+02  0.22093199001E+02  0.31886272481E+02  0.00000000000E+00 0.  1.
         11    1    3    3    0    0  0.92655119492E+00  0.19505810132E+01  0.12647401020E+02  0.12830433205E+02  0.51100000000E-03 0. -1.
        -11    1    3    3    0    0 -0.19038582214E+02  0.15758978740E+02 -0.21198028234E+02  0.32560243011E+02  0.51100000000E-03 0.  1.
         12    1    3    3    0    0  0.31720159539E+01 -0.23326493736E+00 -0.13542571787E+02  0.13911051303E+02  0.00000000000E+00 0. -1.
</event>
<event>
 7    1  0.1139627E-011  0.5930196E+02  0.7816164E-02  0.1266605E+00
        -11   -1    0    0    0    0  0.00000000000E+00  0.00000000000E+00  0.45593999997E+02  0.45594000000E+02  0.51100000000E-03 0.  1.
         11   -1    0    0    0    0 -0.00000000000E+00 -0.00000000000E+00 -0.45593999997E+02  0.45594000000E+02  0.51100000000E-03 0. -1.
    9900012    2    1    2    0    0 -0.20956980015E+02 -0.10483082792E+02  0.21624743163E+02  0.59301959904E+02  0.50000028954E+02 0.  0.
        -12    1    1    2    0    0  0.20956980015E+02  0.10483082792E+02 -0.21624743163E+02  0.31886040096E+02  0.00000000000E+00 0.  1.
         11    1    3    3    0    0 -0.16499419440E+02  0.89208619026E+01 -0.62891231574E+01  0.19782964623E+02  0.51100000000E-03 0. -1.
        -11    1    3    3    0    0 -0.93430927898E+01 -0.19532503311E+01  0.12506616279E+02  0.15732896134E+02  0.51100000000E-03 0.  1.
         12    1    3    3    0    0  0.48855322148E+01 -0.17450694363E+02  0.15407250041E+02  0.23786099147E+02  0.00000000000E+00 0. -1.
</event>
<event>
 7    1  0.1139627E-011  0.5930195E+02  0.7816164E-02  0.1266605E+00
        -11   -1    0    0    0    0  0.00000000000E+00  0.00000000000E+00  0.45593999997E+02  0.45594000000E+02  0.51100000000E-03 0.  1.
         11   -1    0    0    0    0 -0.00000000000E+00 -0.00000000000E+00 -0.45593999997E+02  0.45594000000E+02  0.51100000000E-03 0. -1.
    9900012    2    1    2    0    0  0.21136814494E+02  0.44044513460E+01 -0.23463931230E+02  0.59301949956E+02  0.50000010812E+02 0.  0.
        -12    1    1    2    0    0 -0.21136814494E+02 -0.44044513460E+01  0.23463931230E+02  0.31886050044E+02  0.00000000000E+00 0.  1.
         11    1    3    3    0    0 -0.12560081561E+01  0.30923239317E+01 -0.11787302570E+02  0.12250735729E+02  0.51100000000E-03 0. -1.
        -11    1    3    3    0    0  0.42827864252E+01 -0.12816566320E+02  0.89265355155E+01  0.16195359470E+02  0.51100000000E-03 0.  1.
        -12    1    3    3    0    0  0.18110036225E+02  0.14128693734E+02 -0.20603164176E+02  0.30855854757E+02  0.00000000000E+00 0.  1.
</event>
<event>
 7    1  0.1139627E-011  0.5930184E+02  0.7816164E-02  0.1266605E+00
        -11   -1    0    0    0    0  0.00000000000E+00  0.00000000000E+00  0.45593999997E+02  0.45594000000E+02  0.51100000000E-03 0.  1.
         11   -1    0    0    0    0 -0.00000000000E+00 -0.00000000000E+00 -0.45593999997E+02  0.45594000000E+02  0.51100000000E-03 0. -1.
    9900012    2    1    2    0    0 -0.22613920057E+00  0.30195122638E+02 -0.10243562299E+02  0.59301840955E+02  0.49999812020E+02 0.  0.
        -12    1    1    2    0    0  0.22613920057E+00 -0.30195122638E+02  0.10243562299E+02  0.31886159045E+02  0.00000000000E+00 0.  1.
         11    1    3    3    0    0  0.66675906178E+01  0.28307155571E+02 -0.88491157663E+01  0.30398333363E+02  0.51100000000E-03 0. -1.
        -11    1    3    3    0    0 -0.11883500685E+02  0.52558474986E+01  0.97445454916E+01  0.16241849912E+02  0.51100000000E-03 0.  1.
        -12    1    3    3    0    0  0.49897708663E+01 -0.33678804315E+01 -0.11138992024E+02  0.12661657680E+02  0.00000000000E+00 0.  1.
</event>
<event>
 7    1  0.1139627E-011  0.5930194E+02  0.7816164E-02  0.1266605E+00
        -11   -1    0    0    0    0  0.00000000000E+00  0.00000000000E+00  0.45593999997E+02  0.45594000000E+02  0.51100000000E-03 0.  1.
         11   -1    0    0    0    0 -0.00000000000E+00 -0.00000000000E+00 -0.45593999997E+02  0.45594000000E+02  0.51100000000E-03 0. -1.
    9900012    2    1    2    0    0 -0.23484479462E+01 -0.75685217686E+01 -0.30885643440E+02  0.59301941915E+02  0.49999996147E+02 0.  0.
        -12    1    1    2    0    0  0.23484479462E+01  0.75685217686E+01  0.30885643440E+02  0.31886058085E+02  0.00000000000E+00 0.  1.
         11    1    3    3    0    0  0.16136404827E+02  0.48240025891E+01 -0.10240421123E+02  0.19710930642E+02  0.51100000000E-03 0. -1.
        -11    1    3    3    0    0 -0.92628926269E+01 -0.12657988276E+02  0.13461156416E+01  0.15742867420E+02  0.51100000000E-03 0.  1.
         12    1    3    3    0    0 -0.92219601465E+01  0.26546391876E+00 -0.21991337958E+02  0.23848143853E+02  0.00000000000E+00 0. -1.
</event>
<event>
 7    1  0.1139627E-011  0.5930192E+02  0.7816164E-02  0.1266605E+00
        -11   -1    0    0    0    0  0.00000000000E+00  0.00000000000E+00  0.45593999997E+02  0.45594000000E+02  0.51100000000E-03 0. -1.
         11   -1    0    0    0    0 -0.00000000000E+00 -0.00000000000E+00 -0.45593999997E+02  0.45594000000E+02  0.51100000000E-03 0.  1.
    9900012    2    1    2    0    0 -0.19303575948E+02 -0.23309991593E+02  0.10036843967E+02  0.59301921701E+02  0.49999959282E+02 0.  0.
        -12    1    1    2    0    0  0.19303575948E+02  0.23309991593E+02 -0.10036843967E+02  0.31886078299E+02  0.00000000000E+00 0.  1.
         11    1    3    3    0    0 -0.23201349226E+02 -0.29212919494E+02  0.15836223940E+02  0.40527561736E+02  0.51100000000E-03 0. -1.
        -11    1    3    3    0    0  0.90590035813E+01  0.39726062585E+01  0.10907825148E+01  0.99517311623E+01  0.51100000000E-03 0.  1.
        -12    1    3    3    0    0 -0.51612303033E+01  0.19303216426E+01 -0.68901624880E+01  0.88226288032E+01  0.00000000000E+00 0.  1.
</event>
<event>
 7    1  0.1139627E-011  0.5930196E+02  0.7816164E-02  0.1266605E+00
        -11   -1    0    0    0    0  0.00000000000E+00  0.00000000000E+00  0.45593999997E+02  0.45594000000E+02  0.51100000000E-03 0.  1.
         11   -1    0    0    0    0 -0.00000000000E+00 -0.00000000000E+00 -0.45593999997E+02  0.45594000000E+02  0.51100000000E-03 0. -1.
    9900012    2    1    2    0    0  0.23296114278E+02 -0.21712846619E+02 -0.16009498299E+01  0.59301957770E+02  0.50000025062E+02 0.  0.
        -12    1    1    2    0    0 -0.23296114278E+02  0.21712846619E+02  0.16009498299E+01  0.31886042230E+02  0.00000000000E+00 0.  1.
         11    1    3    3    0    0  0.10790570583E+02  0.29422808085E+01 -0.15345056560E+02  0.18988527878E+02  0.51100000000E-03 0. -1.
        -11    1    3    3    0    0 -0.56534612693E+01 -0.15008585177E+02  0.11272304567E+02  0.19603165659E+02  0.51100000000E-03 0.  1.
         12    1    3    3    0    0  0.18159004964E+02 -0.96465422508E+01  0.24718021633E+01  0.20710264233E+02  0.00000000000E+00 0. -1.
</event>
<event>
 7    1  0.1139627E-011  0.5930198E+02  0.7816164E-02  0.1266605E+00
        -11   -1    0    0    0    0  0.00000000000E+00  0.00000000000E+00  0.45593999997E+02  0.45594000000E+02  0.51100000000E-03 0.  1.
         11   -1    0    0    0    0 -0.00000000000E+00 -0.00000000000E+00 -0.45593999997E+02  0.45594000000E+02  0.51100000000E-03 0. -1.
    9900012    2    1    2    0    0 -0.16666984318E+02 -0.16734524191E+02 -0.21421611151E+02  0.59301982838E+02  0.50000070781E+02 0.  0.
        -12    1    1    2    0    0  0.16666984318E+02  0.16734524191E+02  0.21421611151E+02  0.31886017162E+02  0.00000000000E+00 0.  1.
         11    1    3    3    0    0  0.13170319885E+01 -0.12016679094E+02 -0.67619259648E+01  0.13851310145E+02  0.51100000000E-03 0. -1.
        -11    1    3    3    0    0  0.29286673259E+00  0.13663286001E+02 -0.13936794428E+02  0.19519359478E+02  0.51100000000E-03 0.  1.
        -12    1    3    3    0    0 -0.18276883039E+02 -0.18381131097E+02 -0.72289075868E+00  0.25931313215E+02  0.00000000000E+00 0.  1.
</event>
<event>
 7    1  0.1139627E-011  0.5930195E+02  0.7816164E-02  0.1266605E+00
        -11   -1    0    0    0    0  0.00000000000E+00  0.00000000000E+00  0.45593999997E+02  0.45594000000E+02  0.51100000000E-03 0.  1.
         11   -1    0    0    0    0 -0.00000000000E+00 -0.00000000000E+00 -0.45593999997E+02  0.45594000000E+02  0.51100000000E-03 0. -1.
    9900012    2    1    2    0    0 -0.17766750552E+02  0.14916166524E+02 -0.21876264486E+02  0.59301946673E+02  0.50000004823E+02 0.  0.
        -12    1    1    2    0    0  0.17766750552E+02 -0.14916166524E+02  0.21876264486E+02  0.31886053327E+02  0.00000000000E+00 0.  1.
         11    1    3    3    0    0 -0.19594516515E+01 -0.13884406926E+02  0.27372099838E+01  0.14286655495E+02  0.51100000000E-03 0. -1.
        -11    1    3    3    0    0 -0.18206901467E+02  0.17090080330E+02 -0.12236296734E+02  0.27808075531E+02  0.51100000000E-03 0.  1.
         12    1    3    3    0    0  0.23996025668E+01  0.11710493121E+02 -0.12377177736E+02  0.17207215647E+02  0.00000000000E+00 0. -1.
</event>
<event>
 7    1  0.1139627E-011  0.5930194E+02  0.7816164E-02  0.1266605E+00
        -11   -1    0    0    0    0  0.00000000000E+00  0.00000000000E+00  0.45593999997E+02  0.45594000000E+02  0.51100000000E-03 0.  1.
         11   -1    0    0    0    0 -0.00000000000E+00 -0.00000000000E+00 -0.45593999997E+02  0.45594000000E+02  0.51100000000E-03 0. -1.
    9900012    2    1    2    0    0  0.50319294931E+00 -0.49735636224E+01 -0.31491764309E+02  0.59301941016E+02  0.49999994507E+02 0.  0.
        -12    1    1    2    0    0 -0.50319294931E+00  0.49735636224E+01  0.31491764309E+02  0.31886058984E+02  0.00000000000E+00 0.  1.
         11    1    3    3    0    0 -0.15608167497E+01  0.30342710610E+01 -0.36804344842E+02  0.36962179985E+02  0.51100000000E-03 0. -1.
        -11    1    3    3    0    0 -0.51564847594E+01 -0.35827247521E+01  0.10625849427E+02  0.12342363146E+02  0.51100000000E-03 0.  1.
        -12    1    3    3    0    0  0.72204944584E+01 -0.44251099313E+01 -0.53132688939E+01  0.99973978848E+01  0.00000000000E+00 0.  1.
</event>
<event>
 7    1  0.1139627E-011  0.5930197E+02  0.7816164E-02  0.1266605E+00
        -11   -1    0    0    0    0  0.00000000000E+00  0.00000000000E+00  0.45593999997E+02  0.45594000000E+02  0.51100000000E-03 0. -1.
         11   -1    0    0    0    0 -0.00000000000E+00 -0.00000000000E+00 -0.45593999997E+02  0.45594000000E+02  0.51100000000E-03 0.  1.
    9900012    2    1    2    0    0 -0.30831529683E+02  0.73973562643E+01  0.33785897438E+01  0.59301969031E+02  0.50000045600E+02 0.  0.
        -12    1    1    2    0    0  0.30831529683E+02 -0.73973562643E+01 -0.33785897438E+01  0.31886030969E+02  0.00000000000E+00 0.  1.
         11    1    3    3    0    0 -0.10217665380E+02 -0.13667402103E+02  0.16101413724E+02  0.23461758038E+02  0.51100000000E-03 0. -1.
        -11    1    3    3    0    0  0.15700991600E+01  0.23594808298E+01 -0.51057662144E+01  0.58396241365E+01  0.51100000000E-03 0.  1.
         12    1    3    3    0    0 -0.22183963463E+02  0.18705277538E+02 -0.76170577661E+01  0.30000586856E+02  0.00000000000E+00 0. -1.
</event>
<event>
 7    1  0.1139627E-011  0.5930191E+02  0.7816164E-02  0.1266605E+00
        -11   -1    0    0    0    0  0.00000000000E+00  0.00000000000E+00  0.45593999997E+02  0.45594000000E+02  0.51100000000E-03 0. -1.
         11   -1    0    0    0    0 -0.00000000000E+00 -0.00000000000E+00 -0.45593999997E+02  0.45594000000E+02  0.51100000000E-03 0.  1.
    9900012    2    1    2    0    0 -0.29965785197E+02 -0.91849694794E+01  0.58660456274E+01  0.59301914663E+02  0.49999946446E+02 0.  0.
        -12    1    1    2    0    0  0.29965785197E+02  0.91849694794E+01 -0.58660456274E+01  0.31886085337E+02  0.00000000000E+00 0.  1.
         11    1    3    3    0    0 -0.34527184568E+02 -0.57116197006E+01  0.18801814006E+02  0.39727286391E+02  0.51100000000E-03 0. -1.
        -11    1    3    3    0    0 -0.14825858308E+01 -0.95663476264E+00 -0.12907497661E+02  0.13027536488E+02  0.51100000000E-03 0.  1.
         12    1    3    3    0    0  0.60439852025E+01 -0.25167150162E+01 -0.28270717868E-01  0.65470917845E+01  0.00000000000E+00 0. -1.
</event>
<event>
 7    1  0.1139627E-011  0.5930195E+02  0.7816164E-02  0.1266605E+00
        -11   -1    0    0    0    0  0.00000000000E+00  0.00000000000E+00  0.45593999997E+02  0.45594000000E+02  0.51100000000E-03 0. -1.
         11   -1    0    0    0    0 -0.00000000000E+00 -0.00000000000E+00 -0.45593999997E+02  0.45594000000E+02  0.51100000000E-03 0.  1.
    9900012    2    1    2    0    0 -0.16016519289E+02  0.25208718315E+02  0.11167443340E+02  0.59301950386E+02  0.50000011596E+02 0.  0.
        -12    1    1    2    0    0  0.16016519289E+02 -0.25208718315E+02 -0.11167443340E+02  0.31886049614E+02  0.00000000000E+00 0.  1.
         11    1    3    3    0    0  0.96125779135E+01  0.92675883639E+01  0.12036139532E+02  0.17976609895E+02  0.51100000000E-03 0. -1.
        -11    1    3    3    0    0 -0.15059129540E+02 -0.59005554446E+01 -0.45049467502E+01  0.16789534912E+02  0.51100000000E-03 0.  1.
        -12    1    3    3    0    0 -0.10569967663E+02  0.21841685396E+02  0.36362505574E+01  0.24535805579E+02  0.00000000000E+00 0.  1.
</event>
<event>
 7    1  0.1139627E-011  0.5930196E+02  0.7816164E-02  0.1266605E+00
        -11   -1    0    0    0    0  0.00000000000E+00  0.00000000000E+00  0.45593999997E+02  0.45594000000E+02  0.51100000000E-03 0. -1.
         11   -1    0    0    0    0 -0.00000000000E+00 -0.00000000000E+00 -0.45593999997E+02  0.45594000000E+02  0.51100000000E-03 0.  1.
    9900012    2    1    2    0    0  0.12743743188E+02  0.14340244923E+02  0.25469073208E+02  0.59301963793E+02  0.50000036048E+02 0.  0.
        -12    1    1    2    0    0 -0.12743743188E+02 -0.14340244923E+02 -0.25469073208E+02  0.31886036207E+02  0.00000000000E+00 0.  1.
         11    1    3    3    0    0  0.13542423590E+02  0.24324240622E+02  0.77982152502E+01  0.28911556165E+02  0.51100000000E-03 0. -1.
        -11    1    3    3    0    0 -0.63954161829E+01  0.34174543617E+01  0.13426972045E+02  0.15259879456E+02  0.51100000000E-03 0.  1.
         12    1    3    3    0    0  0.55967357807E+01 -0.13401450061E+02  0.42438859135E+01  0.15130528172E+02  0.00000000000E+00 0. -1.
</event>
<event>
 7    1  0.1139627E-011  0.5930194E+02  0.7816164E-02  0.1266605E+00
        -11   -1    0    0    0    0  0.00000000000E+00  0.00000000000E+00  0.45593999997E+02  0.45594000000E+02  0.51100000000E-03 0. -1.
         11   -1    0    0    0    0 -0.00000000000E+00 -0.00000000000E+00 -0.45593999997E+02  0.45594000000E+02  0.51100000000E-03 0.  1.
    9900012    2    1    2    0    0 -0.25747694171E+02  0.11501446409E+02  0.14882661660E+02  0.59301942816E+02  0.49999997791E+02 0.  0.
        -12    1    1    2    0    0  0.25747694171E+02 -0.11501446409E+02 -0.14882661660E+02  0.31886057184E+02  0.00000000000E+00 0.  1.
         11    1    3    3    0    0  0.47567124369E+01  0.38526376173E+01  0.31675490909E+01  0.68922055484E+01  0.51100000000E-03 0. -1.
        -11    1    3    3    0    0 -0.24298747132E+02 -0.13215166608E+02  0.13086141627E+02  0.30599294822E+02  0.51100000000E-03 0.  1.
        -12    1    3    3    0    0 -0.62056594752E+01  0.20863975400E+02 -0.13710290578E+01  0.21810442446E+02  0.00000000000E+00 0.  1.
</event>
<event>
 7    1  0.1139627E-011  0.5930196E+02  0.7816164E-02  0.1266605E+00
        -11   -1    0    0    0    0  0.00000000000E+00  0.00000000000E+00  0.45593999997E+02  0.45594000000E+02  0.51100000000E-03 0. -1.
         11   -1    0    0    0    0 -0.00000000000E+00 -0.00000000000E+00 -0.45593999997E+02  0.45594000000E+02  0.51100000000E-03 0.  1.
    9900012    2    1    2    0    0 -0.10438471227E+02 -0.49043484519E+01  0.29727184872E+02  0.59301955470E+02  0.50000020869E+02 0.  0.
        -12    1    1    2    0    0  0.10438471227E+02  0.49043484519E+01 -0.29727184872E+02  0.31886044530E+02  0.00000000000E+00 0.  1.
         11    1    3    3    0    0 -0.56649796244E+00  0.12371213030E+02  0.57892594756E+01  0.13670528787E+02  0.51100000000E-03 0. -1.
        -11    1    3    3    0    0 -0.11755350740E+02 -0.20467378483E+02  0.23409844445E+01  0.23718812395E+02  0.51100000000E-03 0.  1.
        -12    1    3    3    0    0  0.18833774751E+01  0.31918170007E+01  0.21596940952E+02  0.21912614289E+02  0.00000000000E+00 0.  1.
</event>
<event>
 7    1  0.1139627E-011  0.5930194E+02  0.7816164E-02  0.1266605E+00
        -11   -1    0    0    0    0  0.00000000000E+00  0.00000000000E+00  0.45593999997E+02  0.45594000000E+02  0.51100000000E-03 0. -1.
         11   -1    0    0    0    0 -0.00000000000E+00 -0.00000000000E+00 -0.45593999997E+02  0.45594000000E+02  0.51100000000E-03 0.  1.
    9900012    2    1    2    0    0 -0.17304560751E+02 -0.71032540594E+01  0.25822794541E+02  0.59301940994E+02  0.49999994468E+02 0.  0.
        -12    1    1    2    0    0  0.17304560751E+02  0.71032540594E+01 -0.25822794541E+02  0.31886059006E+02  0.00000000000E+00 0.  1.
         11    1    3    3    0    0  0.41675629667E+01 -0.84545840220E+01  0.34183740064E+02  0.35459507288E+02  0.51100000000E-03 0. -1.
        -11    1    3    3    0    0 -0.12355949865E+02  0.37205868650E+01 -0.45741659853E+01  0.13690699704E+02  0.51100000000E-03 0.  1.
         12    1    3    3    0    0 -0.91161738530E+01 -0.23692569024E+01 -0.37867795377E+01  0.10151734002E+02  0.00000000000E+00 0. -1.
</event>
<event>
 7    1  0.1139627E-011  0.5930204E+02  0.7816164E-02  0.1266604E+00
        -11   -1    0    0    0    0  0.00000000000E+00  0.00000000000E+00  0.45593999997E+02  0.45594000000E+02  0.51100000000E-03 0. -1.
         11   -1    0    0    0    0 -0.00000000000E+00 -0.00000000000E+00 -0.45593999997E+02  0.45594000000E+02  0.51100000000E-03 0.  1.
    9900012    2    1    2    0    0 -0.24042471938E+02 -0.14941258397E+02  0.14677626265E+02  0.59302041144E+02  0.50000177116E+02 0.  0.
        -12    1    1    2    0    0  0.24042471938E+02  0.14941258397E+02 -0.14677626265E+02  0.31885958856E+02  0.00000000000E+00 0.  1.
         11    1    3    3    0    0 -0.23776484723E+02  0.14664893497E+01  0.23279477715E+02  0.33307745342E+02  0.51100000000E-03 0. -1.
        -11    1    3    3    0    0 -0.60374312375E+01 -0.17593470876E+02 -0.59132604848E+01  0.19517874967E+02  0.51100000000E-03 0.  1.
         12    1    3    3    0    0  0.57714440228E+01  0.11857231293E+01 -0.26885909653E+01  0.64764208345E+01  0.00000000000E+00 0. -1.
</event>
<event>
 7    1  0.1139627E-011  0.5930191E+02  0.7816164E-02  0.1266605E+00
        -11   -1    0    0    0    0  0.00000000000E+00  0.00000000000E+00  0.45593999997E+02  0.45594000000E+02  0.51100000000E-03 0. -1.
         11   -1    0    0    0    0 -0.00000000000E+00 -0.00000000000E+00 -0.45593999997E+02  0.45594000000E+02  0.51100000000E-03 0.  1.
    9900012    2    1    2    0    0  0.11632667106E+02 -0.12111681805E+02  0.27105547969E+02  0.59301913523E+02  0.49999944367E+02 0.  0.
        -12    1    1    2    0    0 -0.11632667106E+02  0.12111681805E+02 -0.27105547969E+02  0.31886086477E+02  0.00000000000E+00 0.  1.
         11    1    3    3    0    0 -0.17835831758E+02  0.29804684094E+01  0.84270518954E+01  0.19950320557E+02  0.51100000000E-03 0. -1.
        -11    1    3    3    0    0  0.69482702462E+01  0.48179687032E+00  0.59342957742E+01  0.91502160759E+01  0.51100000000E-03 0.  1.
         12    1    3    3    0    0  0.22520228618E+02 -0.15573947084E+02  0.12744200299E+02  0.30201376890E+02  0.00000000000E+00 0. -1.
</event>
<event>
 7    1  0.1139627E-011  0.5930160E+02  0.7816164E-02  0.1266606E+00
        -11   -1    0    0    0    0  0.00000000000E+00  0.00000000000E+00  0.45593999997E+02  0.45594000000E+02  0.51100000000E-03 0. -1.
         11   -1    0    0    0    0 -0.00000000000E+00 -0.00000000000E+00 -0.45593999997E+02  0.45594000000E+02  0.51100000000E-03 0.  1.
    9900012    2    1    2    0    0  0.14051717390E+01 -0.98821535869E+01  0.30283838826E+02  0.59301602255E+02  0.49999376684E+02 0.  0.
        -12    1    1    2    0    0 -0.14051717390E+01  0.98821535869E+01 -0.30283838826E+02  0.31886397745E+02  0.00000000000E+00 0.  1.
         11    1    3    3    0    0  0.24595509210E+01 -0.26193067707E+02  0.26343926849E+02  0.37230748968E+02  0.51100000000E-03 0. -1.
        -11    1    3    3    0    0  0.20801570706E+01  0.11681467049E+02 -0.38572273228E+01  0.12476454975E+02  0.51100000000E-03 0.  1.
        -12    1    3    3    0    0 -0.31345362526E+01  0.46294470708E+01  0.77971393000E+01  0.95943983117E+01  0.00000000000E+00 0.  1.
</event>
<event>
 7    1  0.1139627E-011  0.5930193E+02  0.7816164E-02  0.1266605E+00
        -11   -1    0    0    0    0  0.00000000000E+00  0.00000000000E+00  0.45593999997E+02  0.45594000000E+02  0.51100000000E-03 0.  1.
         11   -1    0    0    0    0 -0.00000000000E+00 -0.00000000000E+00 -0.45593999997E+02  0.45594000000E+02  0.51100000000E-03 0. -1.
    9900012    2    1    2    0    0  0.25533736307E+02  0.11166549450E+02  0.15493801978E+02  0.59301930688E+02  0.49999975672E+02 0.  0.
        -12    1    1    2    0    0 -0.25533736307E+02 -0.11166549450E+02 -0.15493801978E+02  0.31886069312E+02  0.00000000000E+00 0.  1.
         11    1    3    3    0    0  0.38105906447E+02 -0.22133951866E+01  0.10551349012E+02  0.39601643787E+02  0.51100000000E-03 0. -1.
        -11    1    3    3    0    0 -0.23339769263E+00  0.23682369005E+01  0.14843068636E+01  0.28046724632E+01  0.51100000000E-03 0.  1.
         12    1    3    3    0    0 -0.12338772447E+02  0.11011707736E+02  0.34581461027E+01  0.16895614438E+02  0.00000000000E+00 0. -1.
</event>
<event>
 7    1  0.1139627E-011  0.5930194E+02  0.7816164E-02  0.1266605E+00
        -11   -1    0    0    0    0  0.00000000000E+00  0.00000000000E+00  0.45593999997E+02  0.45594000000E+02  0.51100000000E-03 0.  1.
         11   -1    0    0    0    0 -0.00000000000E+00 -0.00000000000E+00 -0.45593999997E+02  0.45594000000E+02  0.51100000000E-03 0. -1.
    9900012    2    1    2    0    0  0.18578965859E+02  0.14933079413E+02 -0.21178900256E+02  0.59301942715E+02  0.49999997607E+02 0.  0.
        -12    1    1    2    0    0 -0.18578965859E+02 -0.14933079413E+02  0.21178900256E+02  0.31886057285E+02  0.00000000000E+00 0.  1.
         11    1    3    3    0    0  0.13596595467E+02  0.27951276889E+02  0.99794244669E+00  0.31098829196E+02  0.51100000000E-03 0.  1.
        -11    1    3    3    0    0  0.76678590846E+01 -0.76739220690E+01 -0.17587891440E+02  0.20664439707E+02  0.51100000000E-03 0. -1.
        -12    1    3    3    0    0 -0.26854886932E+01 -0.53442754070E+01 -0.45889512629E+01  0.75386738118E+01  0.00000000000E+00 0.  1.
</event>
<event>
 7    1  0.1139627E-011  0.5930194E+02  0.7816164E-02  0.1266605E+00
        -11   -1    0    0    0    0  0.00000000000E+00  0.00000000000E+00  0.45593999997E+02  0.45594000000E+02  0.51100000000E-03 0. -1.
         11   -1    0    0    0    0 -0.00000000000E+00 -0.00000000000E+00 -0.45593999997E+02  0.45594000000E+02  0.51100000000E-03 0.  1.
    9900012    2    1    2    0    0 -0.33881730063E+01 -0.15763475403E+02  0.27509159951E+02  0.59301941066E+02  0.49999994599E+02 0.  0.
        -12    1    1    2    0    0  0.33881730063E+01  0.15763475403E+02 -0.27509159951E+02  0.31886058934E+02  0.00000000000E+00 0.  1.
         11    1    3    3    0    0 -0.22475410930E+02 -0.74477480247E+01  0.68140053140E+01  0.24638257158E+02  0.51100000000E-03 0. -1.
        -11    1    3    3    0    0  0.16479175408E+02 -0.78892843508E+01  0.24169807808E+02  0.30298244824E+02  0.51100000000E-03 0.  1.
         12    1    3    3    0    0  0.26080625156E+01 -0.42644302752E+00 -0.34746531705E+01  0.43654390840E+01  0.00000000000E+00 0. -1.
</event>
<event>
 7    1  0.1139627E-011  0.5930194E+02  0.7816164E-02  0.1266605E+00
        -11   -1    0    0    0    0  0.00000000000E+00  0.00000000000E+00  0.45593999997E+02  0.45594000000E+02  0.51100000000E-03 0. -1.
         11   -1    0    0    0    0 -0.00000000000E+00 -0.00000000000E+00 -0.45593999997E+02  0.45594000000E+02  0.51100000000E-03 0.  1.
    9900012    2    1    2    0    0  0.29612482572E+02  0.77470991625E+01 -0.89333108863E+01  0.59301941716E+02  0.49999995784E+02 0.  0.
        -12    1    1    2    0    0 -0.29612482572E+02 -0.77470991625E+01  0.89333108863E+01  0.31886058284E+02  0.00000000000E+00 0.  1.
         11    1    3    3    0    0  0.28671244525E+02  0.40449674578E+01 -0.22028349203E+02  0.36382003700E+02  0.51100000000E-03 0.  1.
        -11    1    3    3    0    0 -0.30663051093E+01  0.53593630050E+01  0.16363378597E+02  0.17489572842E+02  0.51100000000E-03 0. -1.
         12    1    3    3    0    0  0.40075431565E+01 -0.16572313003E+01 -0.32683402804E+01  0.54303651739E+01  0.00000000000E+00 0. -1.
</event>
<event>
 7    1  0.1139627E-011  0.5930197E+02  0.7816164E-02  0.1266605E+00
        -11   -1    0    0    0    0  0.00000000000E+00  0.00000000000E+00  0.45593999997E+02  0.45594000000E+02  0.51100000000E-03 0.  1.
         11   -1    0    0    0    0 -0.00000000000E+00 -0.00000000000E+00 -0.45593999997E+02  0.45594000000E+02  0.51100000000E-03 0. -1.
    9900012    2    1    2    0    0  0.26621232598E+02 -0.13808931826E+02 -0.10832465101E+02  0.59301969777E+02  0.50000046961E+02 0.  0.
        -12    1    1    2    0    0 -0.26621232598E+02  0.13808931826E+02  0.10832465101E+02  0.31886030223E+02  0.00000000000E+00 0.  1.
         11    1    3    3    0    0 -0.57436622181E+01 -0.20158622009E+02 -0.14179439426E+02  0.25306445813E+02  0.51100000000E-03 0. -1.
        -11    1    3    3    0    0  0.21426689353E+02  0.42341903480E+01  0.57781501505E+01  0.22592441301E+02  0.51100000000E-03 0.  1.
         12    1    3    3    0    0  0.10938205464E+02  0.21154998356E+01 -0.24311758247E+01  0.11403082663E+02  0.00000000000E+00 0. -1.
</event>
<event>
 7    1  0.1139627E-011  0.5930193E+02  0.7816164E-02  0.1266605E+00
        -11   -1    0    0    0    0  0.00000000000E+00  0.00000000000E+00  0.45593999997E+02  0.45594000000E+02  0.51100000000E-03 0.  1.
         11   -1    0    0    0    0 -0.00000000000E+00 -0.00000000000E+00 -0.45593999997E+02  0.45594000000E+02  0.51100000000E-03 0. -1.
    9900012    2    1    2    0    0  0.20644668263E+02 -0.13280226024E+02 -0.20350791456E+02  0.59301930254E+02  0.49999974881E+02 0.  0.
        -12    1    1    2    0    0 -0.20644668263E+02  0.13280226024E+02  0.20350791456E+02  0.31886069746E+02  0.00000000000E+00 0.  1.
         11    1    3    3    0    0  0.27297120926E+02  0.14391852263E+01 -0.25962285722E+02  0.37699394493E+02  0.51100000000E-03 0. -1.
        -11    1    3    3    0    0 -0.20936420103E+01 -0.11014325993E+02  0.93844251522E+01  0.14620743813E+02  0.51100000000E-03 0.  1.
         12    1    3    3    0    0 -0.45588106533E+01 -0.37050852581E+01 -0.37729308864E+01  0.69817919488E+01  0.00000000000E+00 0. -1.
</event>
<event>
 7    1  0.1139627E-011  0.5930194E+02  0.7816164E-02  0.1266605E+00
        -11   -1    0    0    0    0  0.00000000000E+00  0.00000000000E+00  0.45593999997E+02  0.45594000000E+02  0.51100000000E-03 0. -1.
         11   -1    0    0    0    0 -0.00000000000E+00 -0.00000000000E+00 -0.45593999997E+02  0.45594000000E+02  0.51100000000E-03 0.  1.
    9900012    2    1    2    0    0  0.23817691583E+02 -0.46183636977E+01  0.20690790639E+02  0.59301944539E+02  0.50000000932E+02 0.  0.
        -12    1    1    2    0    0 -0.23817691583E+02  0.46183636977E+01 -0.20690790639E+02  0.31886055461E+02  0.00000000000E+00 0.  1.
         11    1    3    3    0    0  0.71187385648E+01 -0.12612414258E+02  0.10355541056E+02  0.17804119270E+02  0.51100000000E-03 0. -1.
        -11    1    3    3    0    0  0.46146271326E+01  0.18074314463E+02  0.16197262145E+02  0.24704795651E+02  0.51100000000E-03 0.  1.
        -12    1    3    3    0    0  0.12084325886E+02 -0.10080263903E+02 -0.58620125614E+01  0.16793029618E+02  0.00000000000E+00 0.  1.
</event>
<event>
 7    1  0.1139627E-011  0.5930200E+02  0.7816164E-02  0.1266605E+00
        -11   -1    0    0    0    0  0.00000000000E+00  0.00000000000E+00  0.45593999997E+02  0.45594000000E+02  0.51100000000E-03 0.  1.
         11   -1    0    0    0    0 -0.00000000000E+00 -0.00000000000E+00 -0.45593999997E+02  0.45594000000E+02  0.51100000000E-03 0. -1.
    9900012    2    1    2    0    0  0.29794789408E+02 -0.16567618692E+01 -0.11235772264E+02  0.59302001283E+02  0.50000104421E+02 0.  0.
        -12    1    1    2    0    0 -0.29794789408E+02  0.16567618692E+01  0.11235772264E+02  0.31885998717E+02  0.00000000000E+00 0.  1.
         11    1    3    3    0    0  0.41970145270E+02 -0.61435206149E+01 -0.54676476519E+01  0.42768342388E+02  0.51100000000E-03 0. -1.
        -11    1    3    3    0    0 -0.68510383149E+01  0.62869348492E+01 -0.13741132635E+01  0.93994927157E+01  0.51100000000E-03 0.  1.
         12    1    3    3    0    0 -0.53243175468E+01 -0.18001761035E+01 -0.43940113485E+01  0.71341661793E+01  0.00000000000E+00 0. -1.
</event>
<event>
 7    1  0.1139627E-011  0.5930195E+02  0.7816164E-02  0.1266605E+00
        -11   -1    0    0    0    0  0.00000000000E+00  0.00000000000E+00  0.45593999997E+02  0.45594000000E+02  0.51100000000E-03 0.  1.
         11   -1    0    0    0    0 -0.00000000000E+00 -0.00000000000E+00 -0.45593999997E+02  0.45594000000E+02  0.51100000000E-03 0. -1.
    9900012    2    1    2    0    0 -0.14915989526E+02 -0.70936624362E+01 -0.27274780541E+02  0.59301945934E+02  0.50000003477E+02 0.  0.
        -12    1    1    2    0    0  0.14915989526E+02  0.70936624362E+01  0.27274780541E+02  0.31886054066E+02  0.00000000000E+00 0.  1.
         11    1    3    3    0    0 -0.52824046932E+01 -0.16365616863E+02  0.14144372014E+00  0.17197593472E+02  0.51100000000E-03 0. -1.
        -11    1    3    3    0    0  0.38699269800E+01  0.12634857282E+02 -0.23317493000E+01  0.13418383227E+02  0.51100000000E-03 0.  1.
         12    1    3    3    0    0 -0.13503511813E+02 -0.33629028557E+01 -0.25084474961E+02  0.28685969236E+02  0.00000000000E+00 0. -1.
</event>
<event>
 7    1  0.1139627E-011  0.5930194E+02  0.7816164E-02  0.1266605E+00
        -11   -1    0    0    0    0  0.00000000000E+00  0.00000000000E+00  0.45593999997E+02  0.45594000000E+02  0.51100000000E-03 0.  1.
         11   -1    0    0    0    0 -0.00000000000E+00 -0.00000000000E+00 -0.45593999997E+02  0.45594000000E+02  0.51100000000E-03 0. -1.
    9900012    2    1    2    0    0 -0.41052408047E+01 -0.23703988412E+02 -0.20928178439E+02  0.59301941582E+02  0.49999995539E+02 0.  0.
        -12    1    1    2    0    0  0.41052408047E+01  0.23703988412E+02  0.20928178439E+02  0.31886058418E+02  0.00000000000E+00 0.  1.
         11    1    3    3    0    0 -0.12060148800E+02 -0.20682844853E+02  0.37015818270E+01  0.24226616944E+02  0.51100000000E-03 0. -1.
        -11    1    3    3    0    0  0.13534687940E+02  0.53064540635E+01 -0.17621221330E+02  0.22844116831E+02  0.51100000000E-03 0.  1.
        -12    1    3    3    0    0 -0.55797799447E+01 -0.83275976225E+01 -0.70085389361E+01  0.12231207807E+02  0.00000000000E+00 0.  1.
</event>
<event>
 7    1  0.1139627E-011  0.5930185E+02  0.7816164E-02  0.1266605E+00
        -11   -1    0    0    0    0  0.00000000000E+00  0.00000000000E+00  0.45593999997E+02  0.45594000000E+02  0.51100000000E-03 0. -1.
         11   -1    0    0    0    0 -0.00000000000E+00 -0.00000000000E+00 -0.45593999997E+02  0.45594000000E+02  0.51100000000E-03 0.  1.
    9900012    2    1    2    0    0  0.23797643932E+02 -0.32354158669E+01  0.20974529878E+02  0.59301848207E+02  0.49999825246E+02 0.  0.
        -12    1    1    2    0    0 -0.23797643932E+02  0.32354158669E+01 -0.20974529878E+02  0.31886151793E+02  0.00000000000E+00 0.  1.
         11    1    3    3    0    0  0.12997608903E+02 -0.62802425229E+01  0.21025582126E+02  0.25504007280E+02  0.51100000000E-03 0. -1.
        -11    1    3    3    0    0 -0.58050259158E+01  0.38056510750E+01 -0.11627268280E+02  0.13541590523E+02  0.51100000000E-03 0.  1.
        -12    1    3    3    0    0  0.16605060945E+02 -0.76082441896E+00  0.11576216033E+02  0.20256250404E+02  0.00000000000E+00 0.  1.
</event>
<event>
 7    1  0.1312417E-011  0.5930193E+02  0.7816164E-02  0.1266605E+00
        -11   -1    0    0    0    0  0.00000000000E+00  0.00000000000E+00  0.45593999997E+02  0.45594000000E+02  0.51100000000E-03 0. -1.
         11   -1    0    0    0    0 -0.00000000000E+00 -0.00000000000E+00 -0.45593999997E+02  0.45594000000E+02  0.51100000000E-03 0.  1.
    9900012    2    1    2    0    0  0.31140689417E+02  0.67283554385E+01 -0.13070856770E+01  0.59301925026E+02  0.49999965346E+02 0.  0.
        -12    1    1    2    0    0 -0.31140689417E+02 -0.67283554385E+01  0.13070856770E+01  0.31886074974E+02  0.00000000000E+00 0.  1.
         11    1    3    3    0    0  0.22726110659E+02  0.12948083354E+02  0.92509722053E+01  0.27743638104E+02  0.51100000000E-03 0. -1.
        -11    1    3    3    0    0  0.96470433260E+01 -0.15347891317E+02 -0.80885272712E+00  0.18146003853E+02  0.51100000000E-03 0.  1.
        -12    1    3    3    0    0 -0.12324645681E+01  0.91281634017E+01 -0.97492051552E+01  0.13412283070E+02  0.00000000000E+00 0.  1.
</event>
<event>
 7    1  0.1139627E-011  0.5930195E+02  0.7816164E-02  0.1266605E+00
        -11   -1    0    0    0    0  0.00000000000E+00  0.00000000000E+00  0.45593999997E+02  0.45594000000E+02  0.51100000000E-03 0.  1.
         11   -1    0    0    0    0 -0.00000000000E+00 -0.00000000000E+00 -0.45593999997E+02  0.45594000000E+02  0.51100000000E-03 0. -1.
    9900012    2    1    2    0    0 -0.87686107685E+01 -0.44533506637E+01 -0.30331486846E+02  0.59301953503E+02  0.50000017281E+02 0.  0.
        -12    1    1    2    0    0  0.87686107685E+01  0.44533506637E+01  0.30331486846E+02  0.31886046497E+02  0.00000000000E+00 0.  1.
         11    1    3    3    0    0 -0.15941869077E+02  0.55946304888E+01 -0.95432722468E+01  0.19404049201E+02  0.51100000000E-03 0. -1.
        -11    1    3    3    0    0  0.18646779374E+02 -0.44342684910E+01 -0.54278463787E+01  0.19920507891E+02  0.51100000000E-03 0.  1.
        -12    1    3    3    0    0 -0.11473521065E+02 -0.56137126615E+01 -0.15360368220E+02  0.19977396410E+02  0.00000000000E+00 0.  1.
</event>
<event>
 7    1  0.1139627E-011  0.5930195E+02  0.7816164E-02  0.1266605E+00
        -11   -1    0    0    0    0  0.00000000000E+00  0.00000000000E+00  0.45593999997E+02  0.45594000000E+02  0.51100000000E-03 0.  1.
         11   -1    0    0    0    0 -0.00000000000E+00 -0.00000000000E+00 -0.45593999997E+02  0.45594000000E+02  0.51100000000E-03 0. -1.
    9900012    2    1    2    0    0 -0.15888164888E+02  0.25278929005E+02  0.11192063848E+02  0.59301947747E+02  0.50000006783E+02 0.  0.
        -12    1    1    2    0    0  0.15888164888E+02 -0.25278929005E+02 -0.11192063848E+02  0.31886052253E+02  0.00000000000E+00 0.  1.
         11    1    3    3    0    0  0.44314078610E+01  0.21746977579E+02  0.53748112632E+01  0.22835433121E+02  0.51100000000E-03 0.  1.
        -11    1    3    3    0    0 -0.45271323080E+01 -0.12437765741E+02 -0.11554990745E+00  0.13236551499E+02  0.51100000000E-03 0. -1.
        -12    1    3    3    0    0 -0.15792440441E+02  0.15969717166E+02  0.59328024919E+01  0.23229963126E+02  0.00000000000E+00 0.  1.
</event>
<event>
 7    1  0.1139627E-011  0.5930195E+02  0.7816164E-02  0.1266605E+00
        -11   -1    0    0    0    0  0.00000000000E+00  0.00000000000E+00  0.45593999997E+02  0.45594000000E+02  0.51100000000E-03 0.  1.
         11   -1    0    0    0    0 -0.00000000000E+00 -0.00000000000E+00 -0.45593999997E+02  0.45594000000E+02  0.51100000000E-03 0. -1.
    9900012    2    1    2    0    0  0.17336645620E+02  0.11715275980E+01 -0.26735532035E+02  0.59301946129E+02  0.50000003832E+02 0.  0.
        -12    1    1    2    0    0 -0.17336645620E+02 -0.11715275980E+01  0.26735532035E+02  0.31886053871E+02  0.00000000000E+00 0.  1.
         11    1    3    3    0    0  0.88929387969E+01 -0.10220780932E+02  0.33607542733E+01  0.13958631482E+02  0.51100000000E-03 0.  1.
        -11    1    3    3    0    0  0.39258343855E+01  0.84801950060E+01 -0.36097155689E+02  0.37287136281E+02  0.51100000000E-03 0. -1.
        -12    1    3    3    0    0  0.45178724379E+01  0.29121135238E+01  0.60008693803E+01  0.80561783657E+01  0.00000000000E+00 0.  1.
</event>
<event>
 7    1  0.1139627E-011  0.5930194E+02  0.7816164E-02  0.1266605E+00
        -11   -1    0    0    0    0  0.00000000000E+00  0.00000000000E+00  0.45593999997E+02  0.45594000000E+02  0.51100000000E-03 0.  1.
         11   -1    0    0    0    0 -0.00000000000E+00 -0.00000000000E+00 -0.45593999997E+02  0.45594000000E+02  0.51100000000E-03 0. -1.
    9900012    2    1    2    0    0 -0.11356966069E+02 -0.28806676877E+02  0.76102156306E+01  0.59301942029E+02  0.49999996354E+02 0.  0.
        -12    1    1    2    0    0  0.11356966069E+02  0.28806676877E+02 -0.76102156306E+01  0.31886057971E+02  0.00000000000E+00 0.  1.
         11    1    3    3    0    0 -0.92755948946E+01 -0.10835263015E+02 -0.20782385446E+02  0.25206093119E+02  0.51100000000E-03 0. -1.
        -11    1    3    3    0    0 -0.13781180134E+01 -0.22220639296E+01  0.73605844783E+01  0.78112087086E+01  0.51100000000E-03 0.  1.
         12    1    3    3    0    0 -0.70325316096E+00 -0.15749349932E+02  0.21032016598E+02  0.26284640201E+02  0.00000000000E+00 0. -1.
</event>
<event>
 7    1  0.1139627E-011  0.5930194E+02  0.7816164E-02  0.1266605E+00
        -11   -1    0    0    0    0  0.00000000000E+00  0.00000000000E+00  0.45593999997E+02  0.45594000000E+02  0.51100000000E-03 0. -1.
         11   -1    0    0    0    0 -0.00000000000E+00 -0.00000000000E+00 -0.45593999997E+02  0.45594000000E+02  0.51100000000E-03 0.  1.
    9900012    2    1    2    0    0  0.12329759401E+02  0.25914994528E+02  0.13896425517E+02  0.59301944263E+02  0.50000000430E+02 0.  0.
        -12    1    1    2    0    0 -0.12329759401E+02 -0.25914994528E+02 -0.13896425517E+02  0.31886055737E+02  0.00000000000E+00 0.  1.
         11    1    3    3    0    0 -0.81054676704E+01  0.21169538444E+02  0.10601692422E+02  0.25024864567E+02  0.51100000000E-03 0. -1.
        -11    1    3    3    0    0  0.25422122237E+02  0.46081728273E+01 -0.32584344214E+01  0.26041062785E+02  0.51100000000E-03 0.  1.
        -12    1    3    3    0    0 -0.49868951652E+01  0.13728325668E+00  0.65531675160E+01  0.82360169120E+01  0.00000000000E+00 0.  1.
</event>
<event>
 7    1  0.1139627E-011  0.5930193E+02  0.7816164E-02  0.1266605E+00
        -11   -1    0    0    0    0  0.00000000000E+00  0.00000000000E+00  0.45593999997E+02  0.45594000000E+02  0.51100000000E-03 0.  1.
         11   -1    0    0    0    0 -0.00000000000E+00 -0.00000000000E+00 -0.45593999997E+02  0.45594000000E+02  0.51100000000E-03 0. -1.
    9900012    2    1    2    0    0 -0.23507616662E+02 -0.20361015862E+02  0.70386354684E+01  0.59301930983E+02  0.49999976210E+02 0.  0.
        -12    1    1    2    0    0  0.23507616662E+02  0.20361015862E+02 -0.70386354684E+01  0.31886069017E+02  0.00000000000E+00 0.  1.
         11    1    3    3    0    0 -0.36629378887E+01 -0.15610069247E+01 -0.23117890511E+01  0.46041530680E+01  0.51100000000E-03 0. -1.
        -11    1    3    3    0    0  0.20734065951E+01  0.10758037106E+02  0.13812857458E+02  0.17630354753E+02  0.51100000000E-03 0.  1.
        -12    1    3    3    0    0 -0.21918085369E+02 -0.29558046044E+02 -0.44624329386E+01  0.37067423162E+02  0.00000000000E+00 0.  1.
</event>
<event>
 7    1  0.1139627E-011  0.5930196E+02  0.7816164E-02  0.1266605E+00
        -11   -1    0    0    0    0  0.00000000000E+00  0.00000000000E+00  0.45593999997E+02  0.45594000000E+02  0.51100000000E-03 0.  1.
         11   -1    0    0    0    0 -0.00000000000E+00 -0.00000000000E+00 -0.45593999997E+02  0.45594000000E+02  0.51100000000E-03 0. -1.
    9900012    2    1    2    0    0  0.19344860549E+02  0.16372014019E+02 -0.19350795962E+02  0.59301956391E+02  0.50000022548E+02 0.  0.
        -12    1    1    2    0    0 -0.19344860549E+02 -0.16372014019E+02  0.19350795962E+02  0.31886043609E+02  0.00000000000E+00 0.  1.
         11    1    3    3    0    0  0.17677356989E+02  0.74092361939E+01 -0.11522559067E+01  0.19201912014E+02  0.51100000000E-03 0. -1.
        -11    1    3    3    0    0  0.19944048471E+01 -0.96182707087E+01  0.44661203045E+01  0.10790505686E+02  0.51100000000E-03 0.  1.
        -12    1    3    3    0    0 -0.32690128711E+00  0.18581048534E+02 -0.22664660359E+02  0.29309538691E+02  0.00000000000E+00 0.  1.
</event>
<event>
 7    1  0.1139627E-011  0.5930193E+02  0.7816164E-02  0.1266605E+00
        -11   -1    0    0    0    0  0.00000000000E+00  0.00000000000E+00  0.45593999997E+02  0.45594000000E+02  0.51100000000E-03 0. -1.
         11   -1    0    0    0    0 -0.00000000000E+00 -0.00000000000E+00 -0.45593999997E+02  0.45594000000E+02  0.51100000000E-03 0.  1.
    9900012    2    1    2    0    0 -0.15634028271E+02  0.18051036818E+02  0.21129573424E+02  0.59301927127E+02  0.49999969177E+02 0.  0.
        -12    1    1    2    0    0  0.15634028271E+02 -0.18051036818E+02 -0.21129573424E+02  0.31886072873E+02  0.00000000000E+00 0.  1.
         11    1    3    3    0    0 -0.17733745089E+02  0.60595347030E+01  0.68092675650E+01  0.19939152458E+02  0.51100000000E-03 0. -1.
        -11    1    3    3    0    0  0.74704503884E+01 -0.11146685837E+01 -0.92022110119E+01  0.11905074667E+02  0.51100000000E-03 0.  1.
         12    1    3    3    0    0 -0.53707335697E+01  0.13106170699E+02  0.23522516871E+02  0.27457700002E+02  0.00000000000E+00 0. -1.
</event>
<event>
 7    1  0.1139627E-011  0.5930194E+02  0.7816164E-02  0.1266605E+00
        -11   -1    0    0    0    0  0.00000000000E+00  0.00000000000E+00  0.45593999997E+02  0.45594000000E+02  0.51100000000E-03 0.  1.
         11   -1    0    0    0    0 -0.00000000000E+00 -0.00000000000E+00 -0.45593999997E+02  0.45594000000E+02  0.51100000000E-03 0. -1.
    9900012    2    1    2    0    0  0.16204458221E+02  0.21823861709E+02  0.16669003523E+02  0.59301935888E+02  0.49999985155E+02 0.  0.
        -12    1    1    2    0    0 -0.16204458221E+02 -0.21823861709E+02 -0.16669003523E+02  0.31886064112E+02  0.00000000000E+00 0.  1.
         11    1    3    3    0    0  0.25828884720E+02  0.49804886677E+01 -0.55127271704E+01  0.26876136522E+02  0.51100000000E-03 0. -1.
        -11    1    3    3    0    0 -0.85186182309E+01  0.18663987283E+02  0.22288019564E+02  0.30293020552E+02  0.51100000000E-03 0.  1.
         12    1    3    3    0    0 -0.11058082683E+01 -0.18206142414E+01 -0.10628887070E+00  0.21327788132E+01  0.00000000000E+00 0. -1.
</event>
<event>
 7    1  0.1139627E-011  0.5930193E+02  0.7816164E-02  0.1266605E+00
        -11   -1    0    0    0    0  0.00000000000E+00  0.00000000000E+00  0.45593999997E+02  0.45594000000E+02  0.51100000000E-03 0.  1.
         11   -1    0    0    0    0 -0.00000000000E+00 -0.00000000000E+00 -0.45593999997E+02  0.45594000000E+02  0.51100000000E-03 0. -1.
    9900012    2    1    2    0    0 -0.72467177936E+01  0.27398650146E+02  0.14612331175E+02  0.59301934533E+02  0.49999982684E+02 0.  0.
        -12    1    1    2    0    0  0.72467177936E+01 -0.27398650146E+02 -0.14612331175E+02  0.31886065467E+02  0.00000000000E+00 0.  1.
         11    1    3    3    0    0 -0.21883025643E+02  0.29046619165E+02  0.80599396940E+01  0.37249637909E+02  0.51100000000E-03 0. -1.
        -11    1    3    3    0    0  0.15824376093E+02  0.24022764605E+01  0.24977048516E+01  0.16199393220E+02  0.51100000000E-03 0.  1.
         12    1    3    3    0    0 -0.11880682432E+01 -0.40502454798E+01  0.40546866294E+01  0.58529034042E+01  0.00000000000E+00 0. -1.
</event>
<event>
 7    1  0.1139627E-011  0.5930197E+02  0.7816164E-02  0.1266605E+00
        -11   -1    0    0    0    0  0.00000000000E+00  0.00000000000E+00  0.45593999997E+02  0.45594000000E+02  0.51100000000E-03 0. -1.
         11   -1    0    0    0    0 -0.00000000000E+00 -0.00000000000E+00 -0.45593999997E+02  0.45594000000E+02  0.51100000000E-03 0.  1.
    9900012    2    1    2    0    0  0.18242908479E+02  0.17127668899E+02  0.19762548378E+02  0.59301967477E+02  0.50000042765E+02 0.  0.
        -12    1    1    2    0    0 -0.18242908479E+02 -0.17127668899E+02 -0.19762548378E+02  0.31886032523E+02  0.00000000000E+00 0.  1.
         11    1    3    3    0    0  0.35821721132E+01 -0.38307443368E+01  0.29233711372E+02  0.29700445116E+02  0.51100000000E-03 0. -1.
        -11    1    3    3    0    0  0.80637209153E+01  0.13937355105E+02 -0.14850911795E-01  0.16101977616E+02  0.51100000000E-03 0.  1.
         12    1    3    3    0    0  0.65970154503E+01  0.70210581308E+01 -0.94563120823E+01  0.13499544745E+02  0.00000000000E+00 0. -1.
</event>
<event>
 7    1  0.1139627E-011  0.5930195E+02  0.7816164E-02  0.1266605E+00
        -11   -1    0    0    0    0  0.00000000000E+00  0.00000000000E+00  0.45593999997E+02  0.45594000000E+02  0.51100000000E-03 0.  1.
         11   -1    0    0    0    0 -0.00000000000E+00 -0.00000000000E+00 -0.45593999997E+02  0.45594000000E+02  0.51100000000E-03 0. -1.
    9900012    2    1    2    0    0 -0.22031388729E+02  0.23049991672E+02  0.18996804259E+00  0.59301948296E+02  0.50000007784E+02 0.  0.
        -12    1    1    2    0    0  0.22031388729E+02 -0.23049991672E+02 -0.18996804259E+00  0.31886051704E+02  0.00000000000E+00 0.  1.
         11    1    3    3    0    0 -0.28325405180E+02  0.23739838011E+02 -0.19462387868E+01  0.37009408710E+02  0.51100000000E-03 0. -1.
        -11    1    3    3    0    0  0.46941210823E+01  0.34425290297E+01 -0.87668050908E+01  0.10523433404E+02  0.51100000000E-03 0.  1.
         12    1    3    3    0    0  0.15998953681E+01 -0.41323753694E+01  0.10903011920E+02  0.11769106182E+02  0.00000000000E+00 0. -1.
</event>
<event>
 7    1  0.1139627E-011  0.5930194E+02  0.7816164E-02  0.1266605E+00
        -11   -1    0    0    0    0  0.00000000000E+00  0.00000000000E+00  0.45593999997E+02  0.45594000000E+02  0.51100000000E-03 0. -1.
         11   -1    0    0    0    0 -0.00000000000E+00 -0.00000000000E+00 -0.45593999997E+02  0.45594000000E+02  0.51100000000E-03 0.  1.
    9900012    2    1    2    0    0  0.93258611029E+01  0.26896073144E+02  0.14364905667E+02  0.59301937987E+02  0.49999988982E+02 0.  0.
        -12    1    1    2    0    0 -0.93258611029E+01 -0.26896073144E+02 -0.14364905667E+02  0.31886062013E+02  0.00000000000E+00 0.  1.
         11    1    3    3    0    0  0.14365625363E+02  0.15370896284E+02 -0.64139417091E+01  0.21994869701E+02  0.51100000000E-03 0. -1.
        -11    1    3    3    0    0 -0.12297445293E+02 -0.45633752696E+01  0.66944058632E+01  0.14726392115E+02  0.51100000000E-03 0.  1.
        -12    1    3    3    0    0  0.72576810326E+01  0.16088552130E+02  0.14084441513E+02  0.22580676171E+02  0.00000000000E+00 0.  1.
</event>
<event>
 7    1  0.1139627E-011  0.5930194E+02  0.7816164E-02  0.1266605E+00
        -11   -1    0    0    0    0  0.00000000000E+00  0.00000000000E+00  0.45593999997E+02  0.45594000000E+02  0.51100000000E-03 0.  1.
         11   -1    0    0    0    0 -0.00000000000E+00 -0.00000000000E+00 -0.45593999997E+02  0.45594000000E+02  0.51100000000E-03 0. -1.
    9900012    2    1    2    0    0  0.15178614082E+02  0.14075567707E+02 -0.24253016534E+02  0.59301941248E+02  0.49999994930E+02 0.  0.
        -12    1    1    2    0    0 -0.15178614082E+02 -0.14075567707E+02  0.24253016534E+02  0.31886058752E+02  0.00000000000E+00 0.  1.
         11    1    3    3    0    0  0.11481902280E+02 -0.87846315205E+01 -0.26602210616E+02  0.30276747527E+02  0.51100000000E-03 0. -1.
        -11    1    3    3    0    0  0.81715471346E+01  0.32159002267E+01  0.60992123627E+00  0.88027382681E+01  0.51100000000E-03 0.  1.
         12    1    3    3    0    0 -0.44748353328E+01  0.19644299001E+02  0.17392728457E+01  0.20222455452E+02  0.00000000000E+00 0. -1.
</event>
<event>
 7    1  0.1139627E-011  0.5930196E+02  0.7816164E-02  0.1266605E+00
        -11   -1    0    0    0    0  0.00000000000E+00  0.00000000000E+00  0.45593999997E+02  0.45594000000E+02  0.51100000000E-03 0. -1.
         11   -1    0    0    0    0 -0.00000000000E+00 -0.00000000000E+00 -0.45593999997E+02  0.45594000000E+02  0.51100000000E-03 0.  1.
    9900012    2    1    2    0    0  0.68773834317E+00  0.27652888036E+02  0.15860789549E+02  0.59301955311E+02  0.50000020579E+02 0.  0.
        -12    1    1    2    0    0 -0.68773834317E+00 -0.27652888036E+02 -0.15860789549E+02  0.31886044689E+02  0.00000000000E+00 0.  1.
         11    1    3    3    0    0  0.36502263360E+01  0.26463508298E+02  0.95640188852E+01  0.28374493498E+02  0.51100000000E-03 0. -1.
        -11    1    3    3    0    0 -0.54763935565E+00 -0.67071732547E+01  0.16489360089E+02  0.17809690574E+02  0.51100000000E-03 0.  1.
        -12    1    3    3    0    0 -0.24148486371E+01  0.78965529927E+01 -0.10192589425E+02  0.13117771240E+02  0.00000000000E+00 0.  1.
</event>
<event>
 7    1  0.1139627E-011  0.5930192E+02  0.7816164E-02  0.1266605E+00
        -11   -1    0    0    0    0  0.00000000000E+00  0.00000000000E+00  0.45593999997E+02  0.45594000000E+02  0.51100000000E-03 0.  1.
         11   -1    0    0    0    0 -0.00000000000E+00 -0.00000000000E+00 -0.45593999997E+02  0.45594000000E+02  0.51100000000E-03 0. -1.
    9900012    2    1    2    0    0 -0.11218191080E+01 -0.12256389277E+02 -0.29415035107E+02  0.59301923939E+02  0.49999963362E+02 0.  0.
        -12    1    1    2    0    0  0.11218191080E+01  0.12256389277E+02  0.29415035107E+02  0.31886076061E+02  0.00000000000E+00 0.  1.
         11    1    3    3    0    0 -0.14700880754E+02 -0.76078022642E+01 -0.38115143683E+02  0.41554286523E+02  0.51100000000E-03 0. -1.
        -11    1    3    3    0    0  0.37002718883E+01 -0.31398022523E+01  0.61194342251E+00  0.48913030211E+01  0.51100000000E-03 0.  1.
         12    1    3    3    0    0  0.98787897573E+01 -0.15087847610E+01  0.80881651530E+01  0.12856334395E+02  0.00000000000E+00 0. -1.
</event>
<event>
 7    1  0.1139627E-011  0.5930194E+02  0.7816164E-02  0.1266605E+00
        -11   -1    0    0    0    0  0.00000000000E+00  0.00000000000E+00  0.45593999997E+02  0.45594000000E+02  0.51100000000E-03 0. -1.
         11   -1    0    0    0    0 -0.00000000000E+00 -0.00000000000E+00 -0.45593999997E+02  0.45594000000E+02  0.51100000000E-03 0.  1.
    9900012    2    1    2    0    0 -0.11962725951E+02  0.20785545604E+02  0.21013682355E+02  0.59301944045E+02  0.50000000032E+02 0.  0.
        -12    1    1    2    0    0  0.11962725951E+02 -0.20785545604E+02 -0.21013682355E+02  0.31886055955E+02  0.00000000000E+00 0.  1.
         11    1    3    3    0    0  0.77054823204E+01  0.10398640545E+01 -0.77659663456E+01  0.10989358880E+02  0.51100000000E-03 0.  1.
        -11    1    3    3    0    0 -0.14762069271E+00  0.15758031570E+02  0.22408737385E+02  0.27395051784E+02  0.51100000000E-03 0. -1.
         12    1    3    3    0    0 -0.19520587578E+02  0.39876499794E+01  0.63709113158E+01  0.20917533381E+02  0.00000000000E+00 0. -1.
</event>
<event>
 7    1  0.1139627E-011  0.5930191E+02  0.7816164E-02  0.1266605E+00
        -11   -1    0    0    0    0  0.00000000000E+00  0.00000000000E+00  0.45593999997E+02  0.45594000000E+02  0.51100000000E-03 0. -1.
         11   -1    0    0    0    0 -0.00000000000E+00 -0.00000000000E+00 -0.45593999997E+02  0.45594000000E+02  0.51100000000E-03 0.  1.
    9900012    2    1    2    0    0  0.46058344734E+01  0.22312886859E+01  0.31472692123E+02  0.59301910402E+02  0.49999938674E+02 0.  0.
        -12    1    1    2    0    0 -0.46058344734E+01 -0.22312886859E+01 -0.31472692123E+02  0.31886089598E+02  0.00000000000E+00 0.  1.
         11    1    3    3    0    0  0.10711003558E+02  0.64957881798E+01  0.30432696859E+02  0.32910027343E+02  0.51100000000E-03 0. -1.
        -11    1    3    3    0    0 -0.62903066791E+01 -0.14651523977E+02  0.13212662339E+01  0.15999401791E+02  0.51100000000E-03 0.  1.
        -12    1    3    3    0    0  0.18513759483E+00  0.10387024483E+02 -0.28127097041E+00  0.10392481268E+02  0.00000000000E+00 0.  1.
</event>
<event>
 7    1  0.1139627E-011  0.5930193E+02  0.7816164E-02  0.1266605E+00
        -11   -1    0    0    0    0  0.00000000000E+00  0.00000000000E+00  0.45593999997E+02  0.45594000000E+02  0.51100000000E-03 0.  1.
         11   -1    0    0    0    0 -0.00000000000E+00 -0.00000000000E+00 -0.45593999997E+02  0.45594000000E+02  0.51100000000E-03 0. -1.
    9900012    2    1    2    0    0 -0.10212621456E+02  0.27143746541E+02 -0.13252951557E+02  0.59301931910E+02  0.49999977900E+02 0.  0.
        -12    1    1    2    0    0  0.10212621456E+02 -0.27143746541E+02  0.13252951557E+02  0.31886068090E+02  0.00000000000E+00 0.  1.
         11    1    3    3    0    0 -0.13044012920E+02  0.59313935213E+00 -0.83971825855E+00  0.13084464619E+02  0.51100000000E-03 0. -1.
        -11    1    3    3    0    0 -0.69865287657E+01  0.29946958028E+02 -0.97637243015E+00  0.30766624493E+02  0.51100000000E-03 0.  1.
        -12    1    3    3    0    0  0.98179202293E+01 -0.33963508388E+01 -0.11436860868E+02  0.15450842798E+02  0.00000000000E+00 0.  1.
</event>
<event>
 7    1  0.1139627E-011  0.5930193E+02  0.7816164E-02  0.1266605E+00
        -11   -1    0    0    0    0  0.00000000000E+00  0.00000000000E+00  0.45593999997E+02  0.45594000000E+02  0.51100000000E-03 0.  1.
         11   -1    0    0    0    0 -0.00000000000E+00 -0.00000000000E+00 -0.45593999997E+02  0.45594000000E+02  0.51100000000E-03 0. -1.
    9900012    2    1    2    0    0 -0.94332165195E+01 -0.22743392293E+02 -0.20260156232E+02  0.59301930981E+02  0.49999976207E+02 0.  0.
        -12    1    1    2    0    0  0.94332165195E+01  0.22743392293E+02  0.20260156232E+02  0.31886069019E+02  0.00000000000E+00 0.  1.
         11    1    3    3    0    0 -0.14006556657E+01  0.10748965810E+01 -0.27407195503E+02  0.27464005617E+02  0.51100000000E-03 0. -1.
        -11    1    3    3    0    0 -0.10900866357E+02 -0.69988831960E+01 -0.87530196478E+00  0.12983813273E+02  0.51100000000E-03 0.  1.
         12    1    3    3    0    0  0.28683055031E+01 -0.16819405678E+02  0.80223412355E+01  0.18854112091E+02  0.00000000000E+00 0. -1.
</event>
<event>
 7    1  0.1139627E-011  0.5930196E+02  0.7816164E-02  0.1266605E+00
        -11   -1    0    0    0    0  0.00000000000E+00  0.00000000000E+00  0.45593999997E+02  0.45594000000E+02  0.51100000000E-03 0.  1.
         11   -1    0    0    0    0 -0.00000000000E+00 -0.00000000000E+00 -0.45593999997E+02  0.45594000000E+02  0.51100000000E-03 0. -1.
    9900012    2    1    2    0    0 -0.28774969950E+02 -0.13718647016E+02 -0.72049521942E+00  0.59301964107E+02  0.50000036620E+02 0.  0.
        -12    1    1    2    0    0  0.28774969950E+02  0.13718647016E+02  0.72049521942E+00  0.31886035893E+02  0.00000000000E+00 0.  1.
         11    1    3    3    0    0 -0.30118949822E+02 -0.10213679972E+01 -0.58170290162E+01  0.30692542381E+02  0.51100000000E-03 0. -1.
        -11    1    3    3    0    0  0.34165475612E+01 -0.18283003365E+02  0.97957584945E+01  0.21021367558E+02  0.51100000000E-03 0.  1.
         12    1    3    3    0    0 -0.20725676890E+01  0.55857243456E+01 -0.46992246978E+01  0.75880541676E+01  0.00000000000E+00 0. -1.
</event>
<event>
 7    1  0.1139627E-011  0.5930196E+02  0.7816164E-02  0.1266605E+00
        -11   -1    0    0    0    0  0.00000000000E+00  0.00000000000E+00  0.45593999997E+02  0.45594000000E+02  0.51100000000E-03 0. -1.
         11   -1    0    0    0    0 -0.00000000000E+00 -0.00000000000E+00 -0.45593999997E+02  0.45594000000E+02  0.51100000000E-03 0.  1.
    9900012    2    1    2    0    0 -0.17351973493E+02 -0.26381602271E+02  0.44316877134E+01  0.59301956368E+02  0.50000022506E+02 0.  0.
        -12    1    1    2    0    0  0.17351973493E+02  0.26381602271E+02 -0.44316877134E+01  0.31886043632E+02  0.00000000000E+00 0.  1.
         11    1    3    3    0    0 -0.25525264011E+02 -0.18653581851E+02  0.10958865062E+01  0.31633782356E+02  0.51100000000E-03 0. -1.
        -11    1    3    3    0    0  0.94261612368E+01 -0.10115160736E+02 -0.80286143801E+01  0.15988359563E+02  0.51100000000E-03 0.  1.
        -12    1    3    3    0    0 -0.12528707191E+01  0.23871403159E+01  0.11364415587E+02  0.11679814449E+02  0.00000000000E+00 0.  1.
</event>
<event>
 7    1  0.1139627E-011  0.5930194E+02  0.7816164E-02  0.1266605E+00
        -11   -1    0    0    0    0  0.00000000000E+00  0.00000000000E+00  0.45593999997E+02  0.45594000000E+02  0.51100000000E-03 0. -1.
         11   -1    0    0    0    0 -0.00000000000E+00 -0.00000000000E+00 -0.45593999997E+02  0.45594000000E+02  0.51100000000E-03 0.  1.
    9900012    2    1    2    0    0 -0.78391635376E+01  0.18710536450E+02  0.24600486612E+02  0.59301943474E+02  0.49999998991E+02 0.  0.
        -12    1    1    2    0    0  0.78391635376E+01 -0.18710536450E+02 -0.24600486612E+02  0.31886056526E+02  0.00000000000E+00 0.  1.
         11    1    3    3    0    0 -0.46381032824E+01  0.12200166943E+00  0.24327389465E+02  0.24765879046E+02  0.51100000000E-03 0. -1.
        -11    1    3    3    0    0  0.11048853272E+02  0.53252832217E+00  0.27585255969E+01  0.11400447745E+02  0.51100000000E-03 0.  1.
        -12    1    3    3    0    0 -0.14249913528E+02  0.18056006459E+02 -0.24854284499E+01  0.23135616684E+02  0.00000000000E+00 0.  1.
</event>
<event>
 7    1  0.1139627E-011  0.5930194E+02  0.7816164E-02  0.1266605E+00
        -11   -1    0    0    0    0  0.00000000000E+00  0.00000000000E+00  0.45593999997E+02  0.45594000000E+02  0.51100000000E-03 0. -1.
         11   -1    0    0    0    0 -0.00000000000E+00 -0.00000000000E+00 -0.45593999997E+02  0.45594000000E+02  0.51100000000E-03 0.  1.
    9900012    2    1    2    0    0 -0.13668273810E+02 -0.21581084656E+01  0.28727024695E+02  0.59301935820E+02  0.49999985031E+02 0.  0.
        -12    1    1    2    0    0  0.13668273810E+02  0.21581084656E+01 -0.28727024695E+02  0.31886064180E+02  0.00000000000E+00 0.  1.
         11    1    3    3    0    0  0.78313217622E+00  0.57426296788E+01  0.36204974651E+01  0.68336735208E+01  0.51100000000E-03 0. -1.
        -11    1    3    3    0    0 -0.29417986388E+02 -0.11310479220E+01  0.18456571859E+02  0.34746830611E+02  0.51100000000E-03 0.  1.
        -12    1    3    3    0    0  0.14966580401E+02 -0.67696902223E+01  0.66499553710E+01  0.17721431687E+02  0.00000000000E+00 0.  1.
</event>
<event>
 7    1  0.1139627E-011  0.5930192E+02  0.7816164E-02  0.1266605E+00
        -11   -1    0    0    0    0  0.00000000000E+00  0.00000000000E+00  0.45593999997E+02  0.45594000000E+02  0.51100000000E-03 0.  1.
         11   -1    0    0    0    0 -0.00000000000E+00 -0.00000000000E+00 -0.45593999997E+02  0.45594000000E+02  0.51100000000E-03 0. -1.
    9900012    2    1    2    0    0  0.19442015065E+01 -0.99429526293E+01 -0.30233758267E+02  0.59301915803E+02  0.49999948524E+02 0.  0.
        -12    1    1    2    0    0 -0.19442015065E+01  0.99429526293E+01  0.30233758267E+02  0.31886084197E+02  0.00000000000E+00 0.  1.
         11    1    3    3    0    0 -0.74317840841E+00  0.19379161928E+02 -0.91396257956E+01  0.21439146231E+02  0.51100000000E-03 0.  1.
        -11    1    3    3    0    0  0.33205698034E+00 -0.26717415570E+02 -0.21543054635E+02  0.34322496410E+02  0.51100000000E-03 0. -1.
        -12    1    3    3    0    0  0.23553229345E+01 -0.26046989878E+01  0.44892216371E+00  0.35402731606E+01  0.00000000000E+00 0.  1.
</event>
<event>
 7    1  0.1139627E-011  0.5930206E+02  0.7816164E-02  0.1266604E+00
        -11   -1    0    0    0    0  0.00000000000E+00  0.00000000000E+00  0.45593999997E+02  0.45594000000E+02  0.51100000000E-03 0.  1.
         11   -1    0    0    0    0 -0.00000000000E+00 -0.00000000000E+00 -0.45593999997E+02  0.45594000000E+02  0.51100000000E-03 0. -1.
    9900012    2    1    2    0    0 -0.70591429973E+01 -0.26659488677E+02 -0.16004799488E+02  0.59302055713E+02  0.50000203688E+02 0.  0.
        -12    1    1    2    0    0  0.70591429973E+01  0.26659488677E+02  0.16004799488E+02  0.31885944287E+02  0.00000000000E+00 0.  1.
         11    1    3    3    0    0 -0.82786905799E+01 -0.31545115096E+02 -0.29642853561E+02  0.44071870526E+02  0.51100000000E-03 0. -1.
        -11    1    3    3    0    0  0.28258394544E+01  0.35034476589E+01  0.76217385216E+01  0.88515768354E+01  0.51100000000E-03 0.  1.
         12    1    3    3    0    0 -0.16062918718E+01  0.13821787602E+01  0.60163155510E+01  0.63786083522E+01  0.00000000000E+00 0. -1.
</event>
<event>
 7    1  0.1139627E-011  0.5930194E+02  0.7816164E-02  0.1266605E+00
        -11   -1    0    0    0    0  0.00000000000E+00  0.00000000000E+00  0.45593999997E+02  0.45594000000E+02  0.51100000000E-03 0. -1.
         11   -1    0    0    0    0 -0.00000000000E+00 -0.00000000000E+00 -0.45593999997E+02  0.45594000000E+02  0.51100000000E-03 0.  1.
    9900012    2    1    2    0    0 -0.18448542214E+02  0.61126963268E+01  0.25278584389E+02  0.59301943566E+02  0.49999999157E+02 0.  0.
        -12    1    1    2    0    0  0.18448542214E+02 -0.61126963268E+01 -0.25278584389E+02  0.31886056434E+02  0.00000000000E+00 0.  1.
         11    1    3    3    0    0  0.45118342157E+01 -0.16429959069E+02  0.45580527931E+01  0.17637348115E+02  0.51100000000E-03 0. -1.
        -11    1    3    3    0    0 -0.50541943635E+01  0.91282221863E+01 -0.10000673140E+01  0.10481863185E+02  0.51100000000E-03 0.  1.
         12    1    3    3    0    0 -0.17906182066E+02  0.13414433210E+02  0.21720598910E+02  0.31182732265E+02  0.00000000000E+00 0. -1.
</event>
<event>
 7    1  0.1139627E-011  0.5930194E+02  0.7816164E-02  0.1266605E+00
        -11   -1    0    0    0    0  0.00000000000E+00  0.00000000000E+00  0.45593999997E+02  0.45594000000E+02  0.51100000000E-03 0. -1.
         11   -1    0    0    0    0 -0.00000000000E+00 -0.00000000000E+00 -0.45593999997E+02  0.45594000000E+02  0.51100000000E-03 0.  1.
    9900012    2    1    2    0    0  0.17397263616E+02  0.26521356032E+02 -0.32670747612E+01  0.59301939024E+02  0.49999990874E+02 0.  0.
        -12    1    1    2    0    0 -0.17397263616E+02 -0.26521356032E+02  0.32670747612E+01  0.31886060976E+02  0.00000000000E+00 0.  1.
         11    1    3    3    0    0  0.48442386917E+01 -0.47616589565E+01  0.14027361950E+02  0.15585471698E+02  0.51100000000E-03 0. -1.
        -11    1    3    3    0    0  0.11994908825E+02  0.28467413342E+02 -0.52493860244E+01  0.31334126987E+02  0.51100000000E-03 0.  1.
        -12    1    3    3    0    0  0.55811609964E+00  0.28156016461E+01 -0.12045050687E+02  0.12382340339E+02  0.00000000000E+00 0.  1.
</event>
<event>
 7    1  0.1139627E-011  0.5930191E+02  0.7816164E-02  0.1266605E+00
        -11   -1    0    0    0    0  0.00000000000E+00  0.00000000000E+00  0.45593999997E+02  0.45594000000E+02  0.51100000000E-03 0.  1.
         11   -1    0    0    0    0 -0.00000000000E+00 -0.00000000000E+00 -0.45593999997E+02  0.45594000000E+02  0.51100000000E-03 0. -1.
    9900012    2    1    2    0    0 -0.16743583774E+02 -0.15345098257E+02 -0.22380863777E+02  0.59301910532E+02  0.49999938912E+02 0.  0.
        -12    1    1    2    0    0  0.16743583774E+02  0.15345098257E+02  0.22380863777E+02  0.31886089468E+02  0.00000000000E+00 0.  1.
         11    1    3    3    0    0  0.60955847669E+01 -0.25212455879E+02 -0.18683592706E+02  0.31967181949E+02  0.51100000000E-03 0. -1.
        -11    1    3    3    0    0 -0.59258680597E+01  0.79512639725E+01 -0.27313481646E+01  0.10285853104E+02  0.51100000000E-03 0.  1.
         12    1    3    3    0    0 -0.16913300481E+02  0.19160936498E+01 -0.96592290712E+00  0.17048875479E+02  0.00000000000E+00 0. -1.
</event>
<event>
 7    1  0.1139627E-011  0.5930190E+02  0.7816164E-02  0.1266605E+00
        -11   -1    0    0    0    0  0.00000000000E+00  0.00000000000E+00  0.45593999997E+02  0.45594000000E+02  0.51100000000E-03 0. -1.
         11   -1    0    0    0    0 -0.00000000000E+00 -0.00000000000E+00 -0.45593999997E+02  0.45594000000E+02  0.51100000000E-03 0.  1.
    9900012    2    1    2    0    0 -0.22558601976E+02  0.91485326404E+01  0.20594592018E+02  0.59301899690E+02  0.49999919139E+02 0.  0.
        -12    1    1    2    0    0  0.22558601976E+02 -0.91485326404E+01 -0.20594592018E+02  0.31886100310E+02  0.00000000000E+00 0.  1.
         11    1    3    3    0    0  0.57701657548E+01  0.13721632823E+02  0.62284248628E+01  0.16136024811E+02  0.51100000000E-03 0. -1.
        -11    1    3    3    0    0 -0.32335948596E+02 -0.93864623077E+01  0.15019655583E+02  0.36868812028E+02  0.51100000000E-03 0.  1.
         12    1    3    3    0    0  0.40071808649E+01  0.48133621254E+01 -0.65348842845E+00  0.62970628518E+01  0.00000000000E+00 0. -1.
</event>
<event>
 7    1  0.1139627E-011  0.5930210E+02  0.7816164E-02  0.1266604E+00
        -11   -1    0    0    0    0  0.00000000000E+00  0.00000000000E+00  0.45593999997E+02  0.45594000000E+02  0.51100000000E-03 0.  1.
         11   -1    0    0    0    0 -0.00000000000E+00 -0.00000000000E+00 -0.45593999997E+02  0.45594000000E+02  0.51100000000E-03 0. -1.
    9900012    2    1    2    0    0  0.17386528821E+02 -0.18526018142E+02 -0.19266702919E+02  0.59302100703E+02  0.50000285737E+02 0.  0.
        -12    1    1    2    0    0 -0.17386528821E+02  0.18526018142E+02  0.19266702919E+02  0.31885899297E+02  0.00000000000E+00 0.  1.
         11    1    3    3    0    0  0.28477753033E+01 -0.26303648794E+02 -0.11807343488E+02  0.28972489098E+02  0.51100000000E-03 0. -1.
        -11    1    3    3    0    0  0.13795760298E+01  0.14056788104E+02 -0.69464485897E+01  0.15740065759E+02  0.51100000000E-03 0.  1.
        -12    1    3    3    0    0  0.13159177488E+02 -0.62791574517E+01 -0.51291084192E+00  0.14589545846E+02  0.00000000000E+00 0.  1.
</event>
<event>
 7    1  0.1139627E-011  0.5930194E+02  0.7816164E-02  0.1266605E+00
        -11   -1    0    0    0    0  0.00000000000E+00  0.00000000000E+00  0.45593999997E+02  0.45594000000E+02  0.51100000000E-03 0. -1.
         11   -1    0    0    0    0 -0.00000000000E+00 -0.00000000000E+00 -0.45593999997E+02  0.45594000000E+02  0.51100000000E-03 0.  1.
    9900012    2    1    2    0    0  0.35298463102E+01 -0.16016053470E+02 -0.27344960469E+02  0.59301942752E+02  0.49999997674E+02 0.  0.
        -12    1    1    2    0    0 -0.35298463102E+01  0.16016053470E+02  0.27344960469E+02  0.31886057248E+02  0.00000000000E+00 0.  1.
         11    1    3    3    0    0 -0.24014340661E+01 -0.23589791677E+01  0.88025503299E+01  0.94242538622E+01  0.51100000000E-03 0. -1.
        -11    1    3    3    0    0  0.17822579032E+02 -0.23827192099E+01 -0.18829598232E+02  0.26036041251E+02  0.51100000000E-03 0.  1.
        -12    1    3    3    0    0 -0.11891298655E+02 -0.11274355093E+02 -0.17317912568E+02  0.23841647639E+02  0.00000000000E+00 0.  1.
</event>
<event>
 7    1  0.1139627E-011  0.5930191E+02  0.7816164E-02  0.1266605E+00
        -11   -1    0    0    0    0  0.00000000000E+00  0.00000000000E+00  0.45593999997E+02  0.45594000000E+02  0.51100000000E-03 0.  1.
         11   -1    0    0    0    0 -0.00000000000E+00 -0.00000000000E+00 -0.45593999997E+02  0.45594000000E+02  0.51100000000E-03 0. -1.
    9900012    2    1    2    0    0  0.83843599103E+01 -0.26280314771E+02 -0.15992827116E+02  0.59301906562E+02  0.49999931671E+02 0.  0.
        -12    1    1    2    0    0 -0.83843599103E+01  0.26280314771E+02  0.15992827116E+02  0.31886093438E+02  0.00000000000E+00 0.  1.
         11    1    3    3    0    0  0.16577665028E+01 -0.28208131001E+02 -0.16582891928E+02  0.32763381225E+02  0.51100000000E-03 0. -1.
        -11    1    3    3    0    0 -0.14701280887E+01  0.40646756809E+01  0.11754690594E+02  0.12524201220E+02  0.51100000000E-03 0.  1.
        -12    1    3    3    0    0  0.81967214963E+01 -0.21368594513E+01 -0.11164625782E+02  0.14014324117E+02  0.00000000000E+00 0.  1.
</event>
<event>
 7    1  0.1139627E-011  0.5930195E+02  0.7816164E-02  0.1266605E+00
        -11   -1    0    0    0    0  0.00000000000E+00  0.00000000000E+00  0.45593999997E+02  0.45594000000E+02  0.51100000000E-03 0.  1.
         11   -1    0    0    0    0 -0.00000000000E+00 -0.00000000000E+00 -0.45593999997E+02  0.45594000000E+02  0.51100000000E-03 0. -1.
    9900012    2    1    2    0    0  0.19122971147E+02 -0.24961355777E+02 -0.52879770394E+01  0.59301952755E+02  0.50000015917E+02 0.  0.
        -12    1    1    2    0    0 -0.19122971147E+02  0.24961355777E+02  0.52879770394E+01  0.31886047245E+02  0.00000000000E+00 0.  1.
         11    1    3    3    0    0  0.13764489461E+02 -0.12780488488E+01 -0.18932269513E+02  0.23441958283E+02  0.51100000000E-03 0. -1.
        -11    1    3    3    0    0 -0.20925621481E+01 -0.16842648945E+02 -0.21465067376E+01  0.17107341444E+02  0.51100000000E-03 0.  1.
         12    1    3    3    0    0  0.74510438344E+01 -0.68406579828E+01  0.15790799212E+02  0.18752653028E+02  0.00000000000E+00 0. -1.
</event>
<event>
 7    1  0.1139627E-011  0.5930202E+02  0.7816164E-02  0.1266605E+00
        -11   -1    0    0    0    0  0.00000000000E+00  0.00000000000E+00  0.45593999997E+02  0.45594000000E+02  0.51100000000E-03 0.  1.
         11   -1    0    0    0    0 -0.00000000000E+00 -0.00000000000E+00 -0.45593999997E+02  0.45594000000E+02  0.51100000000E-03 0. -1.
    9900012    2    1    2    0    0 -0.20636958755E+02 -0.89387104127E+01 -0.22603791990E+02  0.59302015260E+02  0.50000129911E+02 0.  0.
        -12    1    1    2    0    0  0.20636958755E+02  0.89387104127E+01  0.22603791990E+02  0.31885984740E+02  0.00000000000E+00 0.  1.
         11    1    3    3    0    0 -0.83791659267E+00  0.15333340614E+02 -0.20396559038E+02  0.25531021512E+02  0.51100000000E-03 0. -1.
        -11    1    3    3    0    0 -0.33188141734E+00 -0.88679977441E+01 -0.54657495692E+00  0.88910220847E+01  0.51100000000E-03 0.  1.
         12    1    3    3    0    0 -0.19467160745E+02 -0.15404053283E+02 -0.16606579957E+01  0.24879971663E+02  0.00000000000E+00 0. -1.
</event>
<event>
 7    1  0.1139627E-011  0.5930193E+02  0.7816164E-02  0.1266605E+00
        -11   -1    0    0    0    0  0.00000000000E+00  0.00000000000E+00  0.45593999997E+02  0.45594000000E+02  0.51100000000E-03 0.  1.
         11   -1    0    0    0    0 -0.00000000000E+00 -0.00000000000E+00 -0.45593999997E+02  0.45594000000E+02  0.51100000000E-03 0. -1.
    9900012    2    1    2    0    0 -0.14015539542E+02  0.28295531649E+02  0.44327099924E+01  0.59301931289E+02  0.49999976767E+02 0.  0.
        -12    1    1    2    0    0  0.14015539542E+02 -0.28295531649E+02 -0.44327099924E+01  0.31886068711E+02  0.00000000000E+00 0.  1.
         11    1    3    3    0    0  0.76875920465E+01  0.64379109538E+01  0.17221926981E+02  0.19928385236E+02  0.51100000000E-03 0. -1.
        -11    1    3    3    0    0 -0.28466422389E+01  0.92676475436E+01 -0.13581121550E+02  0.16686507299E+02  0.51100000000E-03 0.  1.
         12    1    3    3    0    0 -0.18856489350E+02  0.12589973152E+02  0.79190456156E+00  0.22687038754E+02  0.00000000000E+00 0. -1.
</event>
<event>
 7    1  0.1139627E-011  0.5930197E+02  0.7816164E-02  0.1266605E+00
        -11   -1    0    0    0    0  0.00000000000E+00  0.00000000000E+00  0.45593999997E+02  0.45594000000E+02  0.51100000000E-03 0.  1.
         11   -1    0    0    0    0 -0.00000000000E+00 -0.00000000000E+00 -0.45593999997E+02  0.45594000000E+02  0.51100000000E-03 0. -1.
    9900012    2    1    2    0    0 -0.21681694005E+02  0.20649436176E+02 -0.10964659212E+02  0.59301971383E+02  0.50000049890E+02 0.  0.
        -12    1    1    2    0    0  0.21681694005E+02 -0.20649436176E+02  0.10964659212E+02  0.31886028617E+02  0.00000000000E+00 0.  1.
         11    1    3    3    0    0 -0.79730140541E+01 -0.14846328124E+01 -0.24467181444E+02  0.25776269237E+02  0.51100000000E-03 0. -1.
        -11    1    3    3    0    0  0.28869122654E+00  0.12106272082E+02  0.10539668542E+02  0.16053964607E+02  0.51100000000E-03 0.  1.
         12    1    3    3    0    0 -0.13997371177E+02  0.10027796906E+02  0.29628536895E+01  0.17471737540E+02  0.00000000000E+00 0. -1.
</event>
<event>
 7    1  0.1139627E-011  0.5930200E+02  0.7816164E-02  0.1266605E+00
        -11   -1    0    0    0    0  0.00000000000E+00  0.00000000000E+00  0.45593999997E+02  0.45594000000E+02  0.51100000000E-03 0. -1.
         11   -1    0    0    0    0 -0.00000000000E+00 -0.00000000000E+00 -0.45593999997E+02  0.45594000000E+02  0.51100000000E-03 0.  1.
    9900012    2    1    2    0    0  0.10675336859E+02  0.24520528192E+02  0.17363699541E+02  0.59301997089E+02  0.50000096771E+02 0.  0.
        -12    1    1    2    0    0 -0.10675336859E+02 -0.24520528192E+02 -0.17363699541E+02  0.31886002911E+02  0.00000000000E+00 0.  1.
         11    1    3    3    0    0  0.13896729845E+02  0.89144224421E+01  0.19385611022E+02  0.25463462899E+02  0.51100000000E-03 0. -1.
        -11    1    3    3    0    0 -0.22920770046E+00  0.24229087298E+02  0.92326440158E+00  0.24247755048E+02  0.51100000000E-03 0.  1.
        -12    1    3    3    0    0 -0.29921852859E+01 -0.86229815478E+01 -0.29451758829E+01  0.95907791415E+01  0.00000000000E+00 0.  1.
</event>
<event>
 7    1  0.1139627E-011  0.5930196E+02  0.7816164E-02  0.1266605E+00
        -11   -1    0    0    0    0  0.00000000000E+00  0.00000000000E+00  0.45593999997E+02  0.45594000000E+02  0.51100000000E-03 0.  1.
         11   -1    0    0    0    0 -0.00000000000E+00 -0.00000000000E+00 -0.45593999997E+02  0.45594000000E+02  0.51100000000E-03 0. -1.
    9900012    2    1    2    0    0 -0.16160177548E+02 -0.26265345939E+02 -0.81055381417E+01  0.59301960982E+02  0.50000030921E+02 0.  0.
        -12    1    1    2    0    0  0.16160177548E+02  0.26265345939E+02  0.81055381417E+01  0.31886039018E+02  0.00000000000E+00 0.  1.
         11    1    3    3    0    0 -0.91562031702E+01 -0.18686301434E+02 -0.14904327185E+02  0.25595954502E+02  0.51100000000E-03 0. -1.
        -11    1    3    3    0    0  0.84769596706E+00  0.97697648082E+01 -0.52977120020E+01  0.11145969925E+02  0.51100000000E-03 0.  1.
        -12    1    3    3    0    0 -0.78516703449E+01 -0.17348809314E+02  0.12096501046E+02  0.22560036555E+02  0.00000000000E+00 0.  1.
</event>
<event>
 7    1  0.1139627E-011  0.5930195E+02  0.7816164E-02  0.1266605E+00
        -11   -1    0    0    0    0  0.00000000000E+00  0.00000000000E+00  0.45593999997E+02  0.45594000000E+02  0.51100000000E-03 0. -1.
         11   -1    0    0    0    0 -0.00000000000E+00 -0.00000000000E+00 -0.45593999997E+02  0.45594000000E+02  0.51100000000E-03 0.  1.
    9900012    2    1    2    0    0 -0.42464263253E+01 -0.52738367337E+00  0.31597620990E+02  0.59301954113E+02  0.50000018393E+02 0.  0.
        -12    1    1    2    0    0  0.42464263253E+01  0.52738367337E+00 -0.31597620990E+02  0.31886045887E+02  0.00000000000E+00 0.  1.
         11    1    3    3    0    0  0.15936363941E+02  0.14033572769E+02  0.25054179894E+02  0.32842362746E+02  0.51100000000E-03 0. -1.
        -11    1    3    3    0    0 -0.18194456892E+02 -0.10233017272E+02  0.53694537949E+01  0.21554209296E+02  0.51100000000E-03 0.  1.
         12    1    3    3    0    0 -0.19883333751E+01 -0.43279391703E+01  0.11739873014E+01  0.49053820703E+01  0.00000000000E+00 0. -1.
</event>
<event>
 7    1  0.1139627E-011  0.5930194E+02  0.7816164E-02  0.1266605E+00
        -11   -1    0    0    0    0  0.00000000000E+00  0.00000000000E+00  0.45593999997E+02  0.45594000000E+02  0.51100000000E-03 0.  1.
         11   -1    0    0    0    0 -0.00000000000E+00 -0.00000000000E+00 -0.45593999997E+02  0.45594000000E+02  0.51100000000E-03 0. -1.
    9900012    2    1    2    0    0  0.42718056188E+01  0.31214448579E+02  0.49122849617E+01  0.59301942437E+02  0.49999997099E+02 0.  0.
        -12    1    1    2    0    0 -0.42718056188E+01 -0.31214448579E+02 -0.49122849617E+01  0.31886057563E+02  0.00000000000E+00 0.  1.
         11    1    3    3    0    0  0.19133113946E+02  0.34111230325E+02  0.83863896871E+01  0.39999795196E+02  0.51100000000E-03 0. -1.
        -11    1    3    3    0    0 -0.95238919394E+01  0.39380611971E+01 -0.21824245824E+01  0.10534506205E+02  0.51100000000E-03 0.  1.
         12    1    3    3    0    0 -0.53374163874E+01 -0.68348429422E+01 -0.12916801430E+01  0.87676410356E+01  0.00000000000E+00 0. -1.
</event>
<event>
 7    1  0.1139627E-011  0.5930193E+02  0.7816164E-02  0.1266605E+00
        -11   -1    0    0    0    0  0.00000000000E+00  0.00000000000E+00  0.45593999997E+02  0.45594000000E+02  0.51100000000E-03 0. -1.
         11   -1    0    0    0    0 -0.00000000000E+00 -0.00000000000E+00 -0.45593999997E+02  0.45594000000E+02  0.51100000000E-03 0.  1.
    9900012    2    1    2    0    0 -0.21111269774E+02 -0.19090380499E+02  0.14373340713E+02  0.59301933101E+02  0.49999980072E+02 0.  0.
        -12    1    1    2    0    0  0.21111269774E+02  0.19090380499E+02 -0.14373340713E+02  0.31886066899E+02  0.00000000000E+00 0.  1.
         11    1    3    3    0    0 -0.42984771863E+01  0.10414087521E+02  0.16046936696E+02  0.19606996266E+02  0.51100000000E-03 0. -1.
        -11    1    3    3    0    0 -0.16303841267E+02 -0.15474851947E+02 -0.85660192653E+01  0.24055414550E+02  0.51100000000E-03 0.  1.
         12    1    3    3    0    0 -0.50895132021E+00 -0.14029616072E+02  0.68924232824E+01  0.15639522285E+02  0.00000000000E+00 0. -1.
</event>
<event>
 7    1  0.1139627E-011  0.5930194E+02  0.7816164E-02  0.1266605E+00
        -11   -1    0    0    0    0  0.00000000000E+00  0.00000000000E+00  0.45593999997E+02  0.45594000000E+02  0.51100000000E-03 0. -1.
         11   -1    0    0    0    0 -0.00000000000E+00 -0.00000000000E+00 -0.45593999997E+02  0.45594000000E+02  0.51100000000E-03 0.  1.
    9900012    2    1    2    0    0 -0.60880394637E+00 -0.27904771001E+02  0.15416674694E+02  0.59301941205E+02  0.49999994852E+02 0.  0.
        -12    1    1    2    0    0  0.60880394637E+00  0.27904771001E+02 -0.15416674694E+02  0.31886058795E+02  0.00000000000E+00 0.  1.
         11    1    3    3    0    0  0.14769425554E+02 -0.31558499205E+02 -0.62807905294E+00  0.34849236532E+02  0.51100000000E-03 0. -1.
        -11    1    3    3    0    0 -0.25556016428E+01  0.22887565319E+01 -0.50998473248E+00  0.34683700650E+01  0.51100000000E-03 0.  1.
         12    1    3    3    0    0 -0.12822627858E+02  0.13649716726E+01  0.16554738479E+02  0.20984334608E+02  0.00000000000E+00 0. -1.
</event>
<event>
 7    1  0.1139627E-011  0.5930198E+02  0.7816164E-02  0.1266605E+00
        -11   -1    0    0    0    0  0.00000000000E+00  0.00000000000E+00  0.45593999997E+02  0.45594000000E+02  0.51100000000E-03 0.  1.
         11   -1    0    0    0    0 -0.00000000000E+00 -0.00000000000E+00 -0.45593999997E+02  0.45594000000E+02  0.51100000000E-03 0. -1.
    9900012    2    1    2    0    0  0.60272426724E+01 -0.30876861819E+02 -0.51971140982E+01  0.59301980415E+02  0.50000066362E+02 0.  0.
        -12    1    1    2    0    0 -0.60272426724E+01  0.30876861819E+02  0.51971140982E+01  0.31886019585E+02  0.00000000000E+00 0.  1.
         11    1    3    3    0    0  0.21387655165E+02 -0.18947025088E+02  0.10200199869E+02  0.30339176501E+02  0.51100000000E-03 0. -1.
        -11    1    3    3    0    0  0.19342089111E+01 -0.31644173664E+01 -0.68158614017E+01  0.77595533562E+01  0.51100000000E-03 0.  1.
         12    1    3    3    0    0 -0.17294621403E+02 -0.87654193642E+01 -0.85814525654E+01  0.21203250558E+02  0.00000000000E+00 0. -1.
</event>
<event>
 7    1  0.1139627E-011  0.5930205E+02  0.7816164E-02  0.1266604E+00
        -11   -1    0    0    0    0  0.00000000000E+00  0.00000000000E+00  0.45593999997E+02  0.45594000000E+02  0.51100000000E-03 0.  1.
         11   -1    0    0    0    0 -0.00000000000E+00 -0.00000000000E+00 -0.45593999997E+02  0.45594000000E+02  0.51100000000E-03 0. -1.
    9900012    2    1    2    0    0  0.68837568696E+01  0.26173879693E+02 -0.16859879464E+02  0.59302052901E+02  0.50000198559E+02 0.  0.
        -12    1    1    2    0    0 -0.68837568696E+01 -0.26173879693E+02  0.16859879464E+02  0.31885947099E+02  0.00000000000E+00 0.  1.
         11    1    3    3    0    0  0.88761071312E+01  0.15069606357E+02 -0.10689827279E+02  0.20497578420E+02  0.51100000000E-03 0. -1.
        -11    1    3    3    0    0 -0.35794628696E+01  0.30864652804E+00  0.14765313637E+02  0.15196127934E+02  0.51100000000E-03 0.  1.
        -12    1    3    3    0    0  0.15871126079E+01  0.10795626808E+02 -0.20935365822E+02  0.23608346548E+02  0.00000000000E+00 0.  1.
</event>
<event>
 7    1  0.1139627E-011  0.5930196E+02  0.7816164E-02  0.1266605E+00
        -11   -1    0    0    0    0  0.00000000000E+00  0.00000000000E+00  0.45593999997E+02  0.45594000000E+02  0.51100000000E-03 0.  1.
         11   -1    0    0    0    0 -0.00000000000E+00 -0.00000000000E+00 -0.45593999997E+02  0.45594000000E+02  0.51100000000E-03 0. -1.
    9900012    2    1    2    0    0 -0.17375944490E+02 -0.17779784237E-01 -0.26735668158E+02  0.59301957366E+02  0.50000024326E+02 0.  0.
        -12    1    1    2    0    0  0.17375944490E+02  0.17779784237E-01  0.26735668158E+02  0.31886042634E+02  0.00000000000E+00 0.  1.
         11    1    3    3    0    0 -0.18400766136E+02 -0.81214500503E+01 -0.29938884164E+02  0.36067754720E+02  0.51100000000E-03 0. -1.
        -11    1    3    3    0    0 -0.33188486106E+01  0.69182879130E+01  0.11482195670E+02  0.13810078979E+02  0.51100000000E-03 0.  1.
        -12    1    3    3    0    0  0.43436702570E+01  0.11853823531E+01 -0.82789796636E+01  0.94241236672E+01  0.00000000000E+00 0.  1.
</event>
<event>
 7    1  0.1139627E-011  0.5930197E+02  0.7816164E-02  0.1266605E+00
        -11   -1    0    0    0    0  0.00000000000E+00  0.00000000000E+00  0.45593999997E+02  0.45594000000E+02  0.51100000000E-03 0.  1.
         11   -1    0    0    0    0 -0.00000000000E+00 -0.00000000000E+00 -0.45593999997E+02  0.45594000000E+02  0.51100000000E-03 0. -1.
    9900012    2    1    2    0    0  0.30449596654E+02 -0.50375962335E+01 -0.80102183981E+01  0.59301969972E+02  0.50000047316E+02 0.  0.
        -12    1    1    2    0    0 -0.30449596654E+02  0.50375962335E+01  0.80102183981E+01  0.31886030028E+02  0.00000000000E+00 0.  1.
         11    1    3    3    0    0  0.43104222610E+01  0.72627290659E+01 -0.15553591635E+01  0.85875558771E+01  0.51100000000E-03 0. -1.
        -11    1    3    3    0    0  0.37208145536E+02 -0.66803800293E+01 -0.61251463375E+01  0.38296096269E+02  0.51100000000E-03 0.  1.
        -12    1    3    3    0    0 -0.11068971143E+02 -0.56199452702E+01 -0.32971289700E+00  0.12418317825E+02  0.00000000000E+00 0.  1.
</event>
<event>
 7    1  0.1139627E-011  0.5930193E+02  0.7816164E-02  0.1266605E+00
        -11   -1    0    0    0    0  0.00000000000E+00  0.00000000000E+00  0.45593999997E+02  0.45594000000E+02  0.51100000000E-03 0. -1.
         11   -1    0    0    0    0 -0.00000000000E+00 -0.00000000000E+00 -0.45593999997E+02  0.45594000000E+02  0.51100000000E-03 0.  1.
    9900012    2    1    2    0    0  0.18467584720E+02 -0.20268009818E+02  0.16275052633E+02  0.59301933363E+02  0.49999980550E+02 0.  0.
        -12    1    1    2    0    0 -0.18467584720E+02  0.20268009818E+02 -0.16275052633E+02  0.31886066637E+02  0.00000000000E+00 0.  1.
         11    1    3    3    0    0 -0.14332839379E+02 -0.11157726588E+02  0.16787434415E+01  0.18241253441E+02  0.51100000000E-03 0. -1.
        -11    1    3    3    0    0  0.73379457159E+01  0.42362439504E+01 -0.68979724509E+00  0.85010017432E+01  0.51100000000E-03 0.  1.
         12    1    3    3    0    0  0.25462478383E+02 -0.13346527180E+02  0.15286106437E+02  0.32559678179E+02  0.00000000000E+00 0. -1.
</event>
<event>
 7    1  0.1139627E-011  0.5930195E+02  0.7816164E-02  0.1266605E+00
        -11   -1    0    0    0    0  0.00000000000E+00  0.00000000000E+00  0.45593999997E+02  0.45594000000E+02  0.51100000000E-03 0.  1.
         11   -1    0    0    0    0 -0.00000000000E+00 -0.00000000000E+00 -0.45593999997E+02  0.45594000000E+02  0.51100000000E-03 0. -1.
    9900012    2    1    2    0    0 -0.18886105396E+02  0.13716895241E+02  0.21722844785E+02  0.59301950109E+02  0.50000011091E+02 0.  0.
        -12    1    1    2    0    0  0.18886105396E+02 -0.13716895241E+02 -0.21722844785E+02  0.31886049891E+02  0.00000000000E+00 0.  1.
         11    1    3    3    0    0 -0.10026794156E+02  0.79945963965E+01  0.16064751389E+02  0.20555447211E+02  0.51100000000E-03 0. -1.
        -11    1    3    3    0    0  0.12220662986E+02 -0.51195378619E+01  0.70357101141E+01  0.15001849513E+02  0.51100000000E-03 0.  1.
        -12    1    3    3    0    0 -0.21079974226E+02  0.10841836706E+02 -0.13776167180E+01  0.23744653385E+02  0.00000000000E+00 0.  1.
</event>
<event>
 7    1  0.1139627E-011  0.5930194E+02  0.7816164E-02  0.1266605E+00
        -11   -1    0    0    0    0  0.00000000000E+00  0.00000000000E+00  0.45593999997E+02  0.45594000000E+02  0.51100000000E-03 0.  1.
         11   -1    0    0    0    0 -0.00000000000E+00 -0.00000000000E+00 -0.45593999997E+02  0.45594000000E+02  0.51100000000E-03 0. -1.
    9900012    2    1    2    0    0  0.17112047832E+02 -0.47092486195E+00 -0.26901242008E+02  0.59301940777E+02  0.49999994071E+02 0.  0.
        -12    1    1    2    0    0 -0.17112047832E+02  0.47092486195E+00  0.26901242008E+02  0.31886059223E+02  0.00000000000E+00 0.  1.
         11    1    3    3    0    0  0.17126897692E+02 -0.15951637835E+01  0.74963042731E+01  0.18763521793E+02  0.51100000000E-03 0.  1.
        -11    1    3    3    0    0 -0.10329067435E+02  0.19286234463E+01 -0.12570680981E+02  0.16383871431E+02  0.51100000000E-03 0. -1.
         12    1    3    3    0    0  0.10314217576E+02 -0.80438452472E+00 -0.21826865300E+02  0.24154547553E+02  0.00000000000E+00 0. -1.
</event>
<event>
 7    1  0.1139627E-011  0.5930205E+02  0.7816164E-02  0.1266604E+00
        -11   -1    0    0    0    0  0.00000000000E+00  0.00000000000E+00  0.45593999997E+02  0.45594000000E+02  0.51100000000E-03 0. -1.
         11   -1    0    0    0    0 -0.00000000000E+00 -0.00000000000E+00 -0.45593999997E+02  0.45594000000E+02  0.51100000000E-03 0.  1.
    9900012    2    1    2    0    0  0.31616200369E+02 -0.69297273669E+00 -0.40804133966E+01  0.59302045248E+02  0.50000184600E+02 0.  0.
        -12    1    1    2    0    0 -0.31616200369E+02  0.69297273669E+00  0.40804133966E+01  0.31885954752E+02  0.00000000000E+00 0.  1.
         11    1    3    3    0    0  0.23618700077E+02 -0.49449508408E+01 -0.20033253516E+02  0.31362824791E+02  0.51100000000E-03 0.  1.
        -11    1    3    3    0    0  0.14845765673E+02  0.31887131688E+01  0.14202606056E+02  0.20791312348E+02  0.51100000000E-03 0. -1.
        -12    1    3    3    0    0 -0.68482653813E+01  0.10632649352E+01  0.17502340633E+01  0.71479081088E+01  0.00000000000E+00 0.  1.
</event>
<event>
 7    1  0.1139627E-011  0.5930191E+02  0.7816164E-02  0.1266605E+00
        -11   -1    0    0    0    0  0.00000000000E+00  0.00000000000E+00  0.45593999997E+02  0.45594000000E+02  0.51100000000E-03 0. -1.
         11   -1    0    0    0    0 -0.00000000000E+00 -0.00000000000E+00 -0.45593999997E+02  0.45594000000E+02  0.51100000000E-03 0.  1.
    9900012    2    1    2    0    0 -0.16839934970E+02  0.25638015591E+02  0.87081223187E+01  0.59301911379E+02  0.49999940456E+02 0.  0.
        -12    1    1    2    0    0  0.16839934970E+02 -0.25638015591E+02 -0.87081223187E+01  0.31886088621E+02  0.00000000000E+00 0.  1.
         11    1    3    3    0    0  0.14499954090E+02  0.33043986551E+01  0.10565279382E+02  0.18242610772E+02  0.51100000000E-03 0. -1.
        -11    1    3    3    0    0 -0.19429061953E+02  0.95703870356E+01 -0.71649291915E+01  0.22812649275E+02  0.51100000000E-03 0.  1.
         12    1    3    3    0    0 -0.11910827107E+02  0.12763229901E+02  0.53077721280E+01  0.18246651332E+02  0.00000000000E+00 0. -1.
</event>
<event>
 7    1  0.1139627E-011  0.5930192E+02  0.7816164E-02  0.1266605E+00
        -11   -1    0    0    0    0  0.00000000000E+00  0.00000000000E+00  0.45593999997E+02  0.45594000000E+02  0.51100000000E-03 0. -1.
         11   -1    0    0    0    0 -0.00000000000E+00 -0.00000000000E+00 -0.45593999997E+02  0.45594000000E+02  0.51100000000E-03 0.  1.
    9900012    2    1    2    0    0 -0.25793125606E+02  0.12687277044E+02  0.13801082684E+02  0.59301918231E+02  0.49999952953E+02 0.  0.
        -12    1    1    2    0    0  0.25793125606E+02 -0.12687277044E+02 -0.13801082684E+02  0.31886081769E+02  0.00000000000E+00 0.  1.
         11    1    3    3    0    0 -0.75562567226E+01  0.21898210468E+02 -0.77352760383E-01  0.23165375479E+02  0.51100000000E-03 0. -1.
        -11    1    3    3    0    0 -0.26922297316E+01 -0.15095735190E+02  0.11876030334E+02  0.19395087486E+02  0.51100000000E-03 0.  1.
         12    1    3    3    0    0 -0.15544639152E+02  0.58848017662E+01  0.20024051113E+01  0.16741455266E+02  0.00000000000E+00 0. -1.
</event>
<event>
 7    1  0.1139627E-011  0.5930193E+02  0.7816164E-02  0.1266605E+00
        -11   -1    0    0    0    0  0.00000000000E+00  0.00000000000E+00  0.45593999997E+02  0.45594000000E+02  0.51100000000E-03 0.  1.
         11   -1    0    0    0    0 -0.00000000000E+00 -0.00000000000E+00 -0.45593999997E+02  0.45594000000E+02  0.51100000000E-03 0. -1.
    9900012    2    1    2    0    0  0.41816712119E+01 -0.31526149818E+02 -0.23101911604E+01  0.59301929692E+02  0.49999973856E+02 0.  0.
        -12    1    1    2    0    0 -0.41816712119E+01  0.31526149818E+02  0.23101911604E+01  0.31886070308E+02  0.00000000000E+00 0.  1.
         11    1    3    3    0    0  0.15837565217E+02 -0.19958158993E+02 -0.42866597442E+01  0.25836641314E+02  0.51100000000E-03 0. -1.
        -11    1    3    3    0    0 -0.14845942040E+02  0.53924095569E+01  0.33730116875E+01  0.16151076868E+02  0.51100000000E-03 0.  1.
         12    1    3    3    0    0  0.31900480353E+01 -0.16960400382E+02 -0.13965431037E+01  0.17314211510E+02  0.00000000000E+00 0. -1.
</event>
<event>
 7    1  0.1139627E-011  0.5930194E+02  0.7816164E-02  0.1266605E+00
        -11   -1    0    0    0    0  0.00000000000E+00  0.00000000000E+00  0.45593999997E+02  0.45594000000E+02  0.51100000000E-03 0.  1.
         11   -1    0    0    0    0 -0.00000000000E+00 -0.00000000000E+00 -0.45593999997E+02  0.45594000000E+02  0.51100000000E-03 0. -1.
    9900012    2    1    2    0    0  0.24559377388E+01 -0.31487069763E+01 -0.31635026747E+02  0.59301938733E+02  0.49999990344E+02 0.  0.
        -12    1    1    2    0    0 -0.24559377388E+01  0.31487069763E+01  0.31635026747E+02  0.31886061267E+02  0.00000000000E+00 0.  1.
         11    1    3    3    0    0 -0.86063562577E+01  0.16815479770E+02 -0.14404534779E+02  0.23755427809E+02  0.51100000000E-03 0.  1.
        -11    1    3    3    0    0  0.95288429365E+01 -0.81500410357E+01 -0.19726802097E+02  0.23374531821E+02  0.51100000000E-03 0. -1.
        -12    1    3    3    0    0  0.15334510601E+01 -0.11814145711E+02  0.24963101289E+01  0.12171979103E+02  0.00000000000E+00 0.  1.
</event>
<event>
 7    1  0.1139627E-011  0.5930196E+02  0.7816164E-02  0.1266605E+00
        -11   -1    0    0    0    0  0.00000000000E+00  0.00000000000E+00  0.45593999997E+02  0.45594000000E+02  0.51100000000E-03 0.  1.
         11   -1    0    0    0    0 -0.00000000000E+00 -0.00000000000E+00 -0.45593999997E+02  0.45594000000E+02  0.51100000000E-03 0. -1.
    9900012    2    1    2    0    0 -0.26181821724E+02  0.12422751992E+02 -0.13300647077E+02  0.59301956524E+02  0.50000022791E+02 0.  0.
        -12    1    1    2    0    0  0.26181821724E+02 -0.12422751992E+02  0.13300647077E+02  0.31886043476E+02  0.00000000000E+00 0.  1.
         11    1    3    3    0    0 -0.10940703897E+02 -0.34478471962E+00 -0.11359512059E+02  0.15775182812E+02  0.51100000000E-03 0. -1.
        -11    1    3    3    0    0 -0.35443443667E+01  0.19693623597E+02  0.12579935783E+02  0.23635904297E+02  0.51100000000E-03 0.  1.
        -12    1    3    3    0    0 -0.11696773460E+02 -0.69260868849E+01 -0.14521070800E+02  0.19890869416E+02  0.00000000000E+00 0.  1.
</event>
<event>
 7    1  0.1139627E-011  0.5930194E+02  0.7816164E-02  0.1266605E+00
        -11   -1    0    0    0    0  0.00000000000E+00  0.00000000000E+00  0.45593999997E+02  0.45594000000E+02  0.51100000000E-03 0. -1.
         11   -1    0    0    0    0 -0.00000000000E+00 -0.00000000000E+00 -0.45593999997E+02  0.45594000000E+02  0.51100000000E-03 0.  1.
    9900012    2    1    2    0    0 -0.58863662750E+01 -0.19877596350E+02 -0.24227101651E+02  0.59301943502E+02  0.49999999042E+02 0.  0.
        -12    1    1    2    0    0  0.58863662750E+01  0.19877596350E+02  0.24227101651E+02  0.31886056498E+02  0.00000000000E+00 0.  1.
         11    1    3    3    0    0  0.19996907435E+01 -0.90587775384E+01  0.12614187115E+02  0.15658158589E+02  0.51100000000E-03 0. -1.
        -11    1    3    3    0    0 -0.14122770204E+02 -0.61998384483E+01 -0.21615136437E+02  0.26553808738E+02  0.51100000000E-03 0.  1.
        -12    1    3    3    0    0  0.62367131851E+01 -0.46189803628E+01 -0.15226152329E+02  0.17089976176E+02  0.00000000000E+00 0.  1.
</event>
<event>
 7    1  0.1139627E-011  0.5930194E+02  0.7816164E-02  0.1266605E+00
        -11   -1    0    0    0    0  0.00000000000E+00  0.00000000000E+00  0.45593999997E+02  0.45594000000E+02  0.51100000000E-03 0.  1.
         11   -1    0    0    0    0 -0.00000000000E+00 -0.00000000000E+00 -0.45593999997E+02  0.45594000000E+02  0.51100000000E-03 0. -1.
    9900012    2    1    2    0    0 -0.28516677441E+01  0.98386226345E+01 -0.30195861607E+02  0.59301944075E+02  0.50000000086E+02 0.  0.
        -12    1    1    2    0    0  0.28516677441E+01 -0.98386226345E+01  0.30195861607E+02  0.31886055925E+02  0.00000000000E+00 0.  1.
         11    1    3    3    0    0  0.12622904935E+02  0.15310422092E+02 -0.45062958525E+01  0.20348303522E+02  0.51100000000E-03 0. -1.
        -11    1    3    3    0    0 -0.17833075441E+02  0.48094467938E+01 -0.18797966870E+02  0.26353612976E+02  0.51100000000E-03 0.  1.
        -12    1    3    3    0    0  0.23585027623E+01 -0.10281246251E+02 -0.68915988848E+01  0.12600027577E+02  0.00000000000E+00 0.  1.
</event>
<event>
 7    1  0.1139627E-011  0.5930194E+02  0.7816164E-02  0.1266605E+00
        -11   -1    0    0    0    0  0.00000000000E+00  0.00000000000E+00  0.45593999997E+02  0.45594000000E+02  0.51100000000E-03 0.  1.
         11   -1    0    0    0    0 -0.00000000000E+00 -0.00000000000E+00 -0.45593999997E+02  0.45594000000E+02  0.51100000000E-03 0. -1.
    9900012    2    1    2    0    0  0.25302173425E+02  0.54143663519E+01 -0.18633458306E+02  0.59301935466E+02  0.49999984385E+02 0.  0.
        -12    1    1    2    0    0 -0.25302173425E+02 -0.54143663519E+01  0.18633458306E+02  0.31886064534E+02  0.00000000000E+00 0.  1.
         11    1    3    3    0    0  0.28448454626E+01  0.38330157394E+01 -0.13067400663E+01  0.49490125507E+01  0.51100000000E-03 0. -1.
        -11    1    3    3    0    0 -0.55469146343E+01  0.75657652352E-01 -0.24732403288E+02  0.25346908267E+02  0.51100000000E-03 0.  1.
        -12    1    3    3    0    0  0.28004242597E+02  0.15056929602E+01  0.74056850480E+01  0.29006014648E+02  0.00000000000E+00 0.  1.
</event>
<event>
 7    1  0.1139627E-011  0.5930193E+02  0.7816164E-02  0.1266605E+00
        -11   -1    0    0    0    0  0.00000000000E+00  0.00000000000E+00  0.45593999997E+02  0.45594000000E+02  0.51100000000E-03 0.  1.
         11   -1    0    0    0    0 -0.00000000000E+00 -0.00000000000E+00 -0.45593999997E+02  0.45594000000E+02  0.51100000000E-03 0. -1.
    9900012    2    1    2    0    0 -0.47221651936E+01  0.49887150026E+01 -0.31137361619E+02  0.59301930784E+02  0.49999975846E+02 0.  0.
        -12    1    1    2    0    0  0.47221651936E+01 -0.49887150026E+01  0.31137361619E+02  0.31886069216E+02  0.00000000000E+00 0.  1.
         11    1    3    3    0    0  0.88937141643E+01  0.63445497055E+01 -0.92812617825E+01  0.14335036907E+02  0.51100000000E-03 0. -1.
        -11    1    3    3    0    0 -0.74348129704E+01 -0.18730568609E+02 -0.15628984937E+02  0.25502466837E+02  0.51100000000E-03 0.  1.
         12    1    3    3    0    0 -0.61810663875E+01  0.17374733907E+02 -0.62271148993E+01  0.19464427040E+02  0.00000000000E+00 0. -1.
</event>
<event>
 7    1  0.1139627E-011  0.5930197E+02  0.7816164E-02  0.1266605E+00
        -11   -1    0    0    0    0  0.00000000000E+00  0.00000000000E+00  0.45593999997E+02  0.45594000000E+02  0.51100000000E-03 0.  1.
         11   -1    0    0    0    0 -0.00000000000E+00 -0.00000000000E+00 -0.45593999997E+02  0.45594000000E+02  0.51100000000E-03 0. -1.
    9900012    2    1    2    0    0  0.16926563544E+01 -0.29439507737E+02 -0.12131337752E+02  0.59301967682E+02  0.50000043140E+02 0.  0.
        -12    1    1    2    0    0 -0.16926563544E+01  0.29439507737E+02  0.12131337752E+02  0.31886032318E+02  0.00000000000E+00 0.  1.
         11    1    3    3    0    0  0.38057369499E+01 -0.11122078569E+02 -0.11774451197E+02  0.16637967625E+02  0.51100000000E-03 0. -1.
        -11    1    3    3    0    0 -0.84461548744E+01 -0.60758964163E+01  0.17346770181E+02  0.20227814647E+02  0.51100000000E-03 0.  1.
        -12    1    3    3    0    0  0.63330742788E+01 -0.12241532752E+02 -0.17703656736E+02  0.22436185410E+02  0.00000000000E+00 0.  1.
</event>
<event>
 7    1  0.1139627E-011  0.5930194E+02  0.7816164E-02  0.1266605E+00
        -11   -1    0    0    0    0  0.00000000000E+00  0.00000000000E+00  0.45593999997E+02  0.45594000000E+02  0.51100000000E-03 0.  1.
         11   -1    0    0    0    0 -0.00000000000E+00 -0.00000000000E+00 -0.45593999997E+02  0.45594000000E+02  0.51100000000E-03 0. -1.
    9900012    2    1    2    0    0  0.15754122908E+02  0.70846325289E+01 -0.26801800991E+02  0.59301938107E+02  0.49999989202E+02 0.  0.
        -12    1    1    2    0    0 -0.15754122908E+02 -0.70846325289E+01  0.26801800991E+02  0.31886061893E+02  0.00000000000E+00 0.  1.
         11    1    3    3    0    0  0.82147104610E+01  0.55973805097E+01 -0.29754916932E+02  0.31371439534E+02  0.51100000000E-03 0. -1.
        -11    1    3    3    0    0 -0.66575261005E+01 -0.46143127562E+01 -0.59919636803E+01  0.10075622313E+02  0.51100000000E-03 0.  1.
         12    1    3    3    0    0  0.14196938547E+02  0.61015647754E+01  0.89450796209E+01  0.17854876260E+02  0.00000000000E+00 0. -1.
</event>
<event>
 7    1  0.1139627E-011  0.5930165E+02  0.7816164E-02  0.1266606E+00
        -11   -1    0    0    0    0  0.00000000000E+00  0.00000000000E+00  0.45593999997E+02  0.45594000000E+02  0.51100000000E-03 0.  1.
         11   -1    0    0    0    0 -0.00000000000E+00 -0.00000000000E+00 -0.45593999997E+02  0.45594000000E+02  0.51100000000E-03 0. -1.
    9900012    2    1    2    0    0  0.54514331114E+01 -0.15396933333E+02 -0.27385315389E+02  0.59301652169E+02  0.49999467717E+02 0.  0.
        -12    1    1    2    0    0 -0.54514331114E+01  0.15396933333E+02  0.27385315389E+02  0.31886347831E+02  0.00000000000E+00 0.  1.
         11    1    3    3    0    0  0.15644597045E+02 -0.10908170506E+01 -0.40072934536E+01  0.16186466558E+02  0.51100000000E-03 0. -1.
        -11    1    3    3    0    0 -0.13020430666E+02  0.65748033017E+01 -0.13374159273E+02  0.19789587912E+02  0.51100000000E-03 0.  1.
        -12    1    3    3    0    0  0.28272667326E+01 -0.20880919584E+02 -0.10003862662E+02  0.23325597699E+02  0.00000000000E+00 0.  1.
</event>
<event>
 7    1  0.1139627E-011  0.5930195E+02  0.7816164E-02  0.1266605E+00
        -11   -1    0    0    0    0  0.00000000000E+00  0.00000000000E+00  0.45593999997E+02  0.45594000000E+02  0.51100000000E-03 0. -1.
         11   -1    0    0    0    0 -0.00000000000E+00 -0.00000000000E+00 -0.45593999997E+02  0.45594000000E+02  0.51100000000E-03 0.  1.
    9900012    2    1    2    0    0 -0.17360797884E+02 -0.11581843436E+01  0.26720436598E+02  0.59301946212E+02  0.50000003984E+02 0.  0.
        -12    1    1    2    0    0  0.17360797884E+02  0.11581843436E+01 -0.26720436598E+02  0.31886053788E+02  0.00000000000E+00 0.  1.
         11    1    3    3    0    0 -0.40478120553E+01  0.16123069741E+02  0.10017017687E+02  0.19408214857E+02  0.51100000000E-03 0. -1.
        -11    1    3    3    0    0 -0.15135356636E+02 -0.24488568172E+02  0.13567691436E+02  0.31825323923E+02  0.51100000000E-03 0.  1.
        -12    1    3    3    0    0  0.18223708072E+01  0.72073140872E+01  0.31357274749E+01  0.80684074331E+01  0.00000000000E+00 0.  1.
</event>
<event>
 7    1  0.1139627E-011  0.5930195E+02  0.7816164E-02  0.1266605E+00
        -11   -1    0    0    0    0  0.00000000000E+00  0.00000000000E+00  0.45593999997E+02  0.45594000000E+02  0.51100000000E-03 0.  1.
         11   -1    0    0    0    0 -0.00000000000E+00 -0.00000000000E+00 -0.45593999997E+02  0.45594000000E+02  0.51100000000E-03 0. -1.
    9900012    2    1    2    0    0 -0.26293709457E+02 -0.92705617419E+01 -0.15473124025E+02  0.59301952281E+02  0.50000015052E+02 0.  0.
        -12    1    1    2    0    0  0.26293709457E+02  0.92705617419E+01  0.15473124025E+02  0.31886047719E+02  0.00000000000E+00 0.  1.
         11    1    3    3    0    0  0.95860997119E+01 -0.57905686108E+01  0.88301626422E+01  0.14261688717E+02  0.51100000000E-03 0.  1.
        -11    1    3    3    0    0 -0.31189595719E+02 -0.29817538721E+01 -0.15281196807E+02  0.34859671734E+02  0.51100000000E-03 0. -1.
        -12    1    3    3    0    0 -0.46902134503E+01 -0.49823925905E+00 -0.90220898599E+01  0.10180591830E+02  0.00000000000E+00 0.  1.
</event>
<event>
 7    1  0.1139627E-011  0.5930196E+02  0.7816164E-02  0.1266605E+00
        -11   -1    0    0    0    0  0.00000000000E+00  0.00000000000E+00  0.45593999997E+02  0.45594000000E+02  0.51100000000E-03 0.  1.
         11   -1    0    0    0    0 -0.00000000000E+00 -0.00000000000E+00 -0.45593999997E+02  0.45594000000E+02  0.51100000000E-03 0. -1.
    9900012    2    1    2    0    0  0.47833658221E+01  0.31462225029E+02  0.19918121179E+01  0.59301960611E+02  0.50000030245E+02 0.  0.
        -12    1    1    2    0    0 -0.47833658221E+01 -0.31462225029E+02 -0.19918121179E+01  0.31886039389E+02  0.00000000000E+00 0.  1.
         11    1    3    3    0    0  0.10608151406E+02  0.32728257875E+02 -0.11465714578E+02  0.36264781135E+02  0.51100000000E-03 0. -1.
        -11    1    3    3    0    0  0.12517530260E+01  0.26542179097E+01  0.14577697982E+02  0.14870139107E+02  0.51100000000E-03 0.  1.
         12    1    3    3    0    0 -0.70765386098E+01 -0.39202507551E+01 -0.11201712861E+01  0.81670403690E+01  0.00000000000E+00 0. -1.
</event>
<event>
 7    1  0.1139627E-011  0.5930201E+02  0.7816164E-02  0.1266605E+00
        -11   -1    0    0    0    0  0.00000000000E+00  0.00000000000E+00  0.45593999997E+02  0.45594000000E+02  0.51100000000E-03 0. -1.
         11   -1    0    0    0    0 -0.00000000000E+00 -0.00000000000E+00 -0.45593999997E+02  0.45594000000E+02  0.51100000000E-03 0.  1.
    9900012    2    1    2    0    0  0.30338821737E+02 -0.91641608648E+01  0.35057427902E+01  0.59302012776E+02  0.50000125381E+02 0.  0.
        -12    1    1    2    0    0 -0.30338821737E+02  0.91641608648E+01 -0.35057427902E+01  0.31885987224E+02  0.00000000000E+00 0.  1.
         11    1    3    3    0    0  0.22215999721E+02  0.49864874169E+01  0.22943405498E+02  0.32323606799E+02  0.51100000000E-03 0. -1.
        -11    1    3    3    0    0  0.25402204315E+01 -0.77587203894E+01 -0.15719431251E+02  0.17713017276E+02  0.51100000000E-03 0.  1.
         12    1    3    3    0    0  0.55826015837E+01 -0.63919278923E+01 -0.37182314567E+01  0.92653887014E+01  0.00000000000E+00 0. -1.
</event>
<event>
 7    1  0.1139627E-011  0.5930195E+02  0.7816164E-02  0.1266605E+00
        -11   -1    0    0    0    0  0.00000000000E+00  0.00000000000E+00  0.45593999997E+02  0.45594000000E+02  0.51100000000E-03 0.  1.
         11   -1    0    0    0    0 -0.00000000000E+00 -0.00000000000E+00 -0.45593999997E+02  0.45594000000E+02  0.51100000000E-03 0. -1.
    9900012    2    1    2    0    0  0.18030640734E+02  0.88632768710E+01 -0.24760018276E+02  0.59301949959E+02  0.50000010818E+02 0.  0.
        -12    1    1    2    0    0 -0.18030640734E+02 -0.88632768710E+01  0.24760018276E+02  0.31886050041E+02  0.00000000000E+00 0.  1.
         11    1    3    3    0    0  0.21133582342E+02  0.49035191994E+01 -0.37498953617E+02  0.43322561394E+02  0.51100000000E-03 0. -1.
        -11    1    3    3    0    0  0.28142385878E+01  0.11408780839E+01  0.32615609558E+01  0.44563798941E+01  0.51100000000E-03 0.  1.
         12    1    3    3    0    0 -0.59171801959E+01  0.28188795878E+01  0.94773743847E+01  0.11523008671E+02  0.00000000000E+00 0. -1.
</event>
<event>
 7    1  0.1139627E-011  0.5930190E+02  0.7816164E-02  0.1266605E+00
        -11   -1    0    0    0    0  0.00000000000E+00  0.00000000000E+00  0.45593999997E+02  0.45594000000E+02  0.51100000000E-03 0.  1.
         11   -1    0    0    0    0 -0.00000000000E+00 -0.00000000000E+00 -0.45593999997E+02  0.45594000000E+02  0.51100000000E-03 0. -1.
    9900012    2    1    2    0    0 -0.52087876750E+01  0.21108781472E+02 -0.23324046144E+02  0.59301901888E+02  0.49999923148E+02 0.  0.
        -12    1    1    2    0    0  0.52087876750E+01 -0.21108781472E+02  0.23324046144E+02  0.31886098112E+02  0.00000000000E+00 0.  1.
         11    1    3    3    0    0 -0.76225028150E+01  0.89996227242E+01  0.85272378574E+01  0.14553678026E+02  0.51100000000E-03 0.  1.
        -11    1    3    3    0    0 -0.57717968984E+01  0.14145355167E+01 -0.30657082683E+02  0.31227732371E+02  0.51100000000E-03 0. -1.
        -12    1    3    3    0    0  0.81855120384E+01  0.10694623231E+02 -0.11942013184E+01  0.13520491491E+02  0.00000000000E+00 0.  1.
</event>
<event>
 7    1  0.1139627E-011  0.5930194E+02  0.7816164E-02  0.1266605E+00
        -11   -1    0    0    0    0  0.00000000000E+00  0.00000000000E+00  0.45593999997E+02  0.45594000000E+02  0.51100000000E-03 0.  1.
         11   -1    0    0    0    0 -0.00000000000E+00 -0.00000000000E+00 -0.45593999997E+02  0.45594000000E+02  0.51100000000E-03 0. -1.
    9900012    2    1    2    0    0 -0.22437457718E+02 -0.88797834073E+01 -0.20843001841E+02  0.59301940539E+02  0.49999993637E+02 0.  0.
        -12    1    1    2    0    0  0.22437457718E+02  0.88797834073E+01  0.20843001841E+02  0.31886059461E+02  0.00000000000E+00 0.  1.
         11    1    3    3    0    0 -0.24621444907E+02 -0.39094230244E+01 -0.24392942210E+02  0.34878571754E+02  0.51100000000E-03 0. -1.
        -11    1    3    3    0    0  0.82356712975E+00 -0.12443067159E+02  0.87363549428E+01  0.15226033006E+02  0.51100000000E-03 0.  1.
        -12    1    3    3    0    0  0.13604200589E+01  0.74727067764E+01 -0.51864145736E+01  0.91973357790E+01  0.00000000000E+00 0.  1.
</event>
<event>
 7    1  0.1139627E-011  0.5930197E+02  0.7816164E-02  0.1266605E+00
        -11   -1    0    0    0    0  0.00000000000E+00  0.00000000000E+00  0.45593999997E+02  0.45594000000E+02  0.51100000000E-03 0. -1.
         11   -1    0    0    0    0 -0.00000000000E+00 -0.00000000000E+00 -0.45593999997E+02  0.45594000000E+02  0.51100000000E-03 0.  1.
    9900012    2    1    2    0    0  0.17072796498E+02  0.10738981078E+02  0.24696413194E+02  0.59301969838E+02  0.50000047072E+02 0.  0.
        -12    1    1    2    0    0 -0.17072796498E+02 -0.10738981078E+02 -0.24696413194E+02  0.31886030162E+02  0.00000000000E+00 0.  1.
         11    1    3    3    0    0  0.16970277752E+02 -0.81957671674E+00  0.28074417729E+02  0.32815163630E+02  0.51100000000E-03 0. -1.
        -11    1    3    3    0    0  0.34120341291E+01  0.18114932077E+02 -0.74231899339E-01  0.18433617434E+02  0.51100000000E-03 0.  1.
         12    1    3    3    0    0 -0.33095153830E+01 -0.65563742828E+01 -0.33037726361E+01  0.80531887745E+01  0.00000000000E+00 0. -1.
</event>
<event>
 7    1  0.1139627E-011  0.5930193E+02  0.7816164E-02  0.1266605E+00
        -11   -1    0    0    0    0  0.00000000000E+00  0.00000000000E+00  0.45593999997E+02  0.45594000000E+02  0.51100000000E-03 0.  1.
         11   -1    0    0    0    0 -0.00000000000E+00 -0.00000000000E+00 -0.45593999997E+02  0.45594000000E+02  0.51100000000E-03 0. -1.
    9900012    2    1    2    0    0  0.18831403096E+02  0.19902341700E+02 -0.16309389976E+02  0.59301934876E+02  0.49999983309E+02 0.  0.
        -12    1    1    2    0    0 -0.18831403096E+02 -0.19902341700E+02  0.16309389976E+02  0.31886065124E+02  0.00000000000E+00 0.  1.
         11    1    3    3    0    0  0.25808654822E+02 -0.14613390989E+01 -0.20732154744E+02  0.33136753255E+02  0.51100000000E-03 0. -1.
        -11    1    3    3    0    0 -0.10075326994E+02  0.17488533901E+02  0.58296429078E+01  0.21008230976E+02  0.51100000000E-03 0.  1.
         12    1    3    3    0    0  0.30980752681E+01  0.38751468980E+01 -0.14068781404E+01  0.51569506445E+01  0.00000000000E+00 0. -1.
</event>
<event>
 7    1  0.1139627E-011  0.5930197E+02  0.7816164E-02  0.1266605E+00
        -11   -1    0    0    0    0  0.00000000000E+00  0.00000000000E+00  0.45593999997E+02  0.45594000000E+02  0.51100000000E-03 0. -1.
         11   -1    0    0    0    0 -0.00000000000E+00 -0.00000000000E+00 -0.45593999997E+02  0.45594000000E+02  0.51100000000E-03 0.  1.
    9900012    2    1    2    0    0  0.21673579872E+02 -0.12678019465E+02  0.19653064262E+02  0.59301965801E+02  0.50000039710E+02 0.  0.
        -12    1    1    2    0    0 -0.21673579872E+02  0.12678019465E+02 -0.19653064262E+02  0.31886034199E+02  0.00000000000E+00 0.  1.
         11    1    3    3    0    0  0.16924662012E+01  0.12474978907E+02  0.21231959625E+02  0.24683712249E+02  0.51100000000E-03 0. -1.
        -11    1    3    3    0    0  0.44148143114E+01 -0.14128653729E+02 -0.41448352793E+01  0.15371698063E+02  0.51100000000E-03 0.  1.
         12    1    3    3    0    0  0.15566299359E+02 -0.11024344643E+02  0.25659399164E+01  0.19246555489E+02  0.00000000000E+00 0. -1.
</event>
<event>
 7    1  0.1139627E-011  0.5930196E+02  0.7816164E-02  0.1266605E+00
        -11   -1    0    0    0    0  0.00000000000E+00  0.00000000000E+00  0.45593999997E+02  0.45594000000E+02  0.51100000000E-03 0.  1.
         11   -1    0    0    0    0 -0.00000000000E+00 -0.00000000000E+00 -0.45593999997E+02  0.45594000000E+02  0.51100000000E-03 0. -1.
    9900012    2    1    2    0    0  0.23754457935E+02 -0.11807038930E+02  0.17692919181E+02  0.59301955573E+02  0.50000021055E+02 0.  0.
        -12    1    1    2    0    0 -0.23754457935E+02  0.11807038930E+02 -0.17692919181E+02  0.31886044427E+02  0.00000000000E+00 0.  1.
         11    1    3    3    0    0  0.41540382281E+00  0.28305249565E+01 -0.72130788214E+01  0.77596996212E+01  0.51100000000E-03 0. -1.
        -11    1    3    3    0    0  0.30053488246E+02 -0.55304864755E+01  0.26070196601E+02  0.40167817808E+02  0.51100000000E-03 0.  1.
        -12    1    3    3    0    0 -0.67144341338E+01 -0.91070774105E+01 -0.11641985980E+01  0.11374438143E+02  0.00000000000E+00 0.  1.
</event>
<event>
 7    1  0.1139627E-011  0.5930195E+02  0.7816164E-02  0.1266605E+00
        -11   -1    0    0    0    0  0.00000000000E+00  0.00000000000E+00  0.45593999997E+02  0.45594000000E+02  0.51100000000E-03 0.  1.
         11   -1    0    0    0    0 -0.00000000000E+00 -0.00000000000E+00 -0.45593999997E+02  0.45594000000E+02  0.51100000000E-03 0. -1.
    9900012    2    1    2    0    0 -0.65803780092E+01 -0.30971419727E+02  0.37669300145E+01  0.59301953265E+02  0.50000016846E+02 0.  0.
        -12    1    1    2    0    0  0.65803780092E+01  0.30971419727E+02 -0.37669300145E+01  0.31886046735E+02  0.00000000000E+00 0.  1.
         11    1    3    3    0    0  0.16862945319E+02 -0.11914477419E+02  0.62075272903E+01  0.21560312899E+02  0.51100000000E-03 0. -1.
        -11    1    3    3    0    0 -0.20115287526E+02 -0.19429596035E+02  0.60508012301E+01  0.28613741282E+02  0.51100000000E-03 0.  1.
        -12    1    3    3    0    0 -0.33280358018E+01  0.37265372631E+00 -0.84913985058E+01  0.91278990837E+01  0.00000000000E+00 0.  1.
</event>
<event>
 7    1  0.1139627E-011  0.5930197E+02  0.7816164E-02  0.1266605E+00
        -11   -1    0    0    0    0  0.00000000000E+00  0.00000000000E+00  0.45593999997E+02  0.45594000000E+02  0.51100000000E-03 0. -1.
         11   -1    0    0    0    0 -0.00000000000E+00 -0.00000000000E+00 -0.45593999997E+02  0.45594000000E+02  0.51100000000E-03 0.  1.
    9900012    2    1    2    0    0 -0.53242721345E+01  0.18090954924E+02  0.25711644986E+02  0.59301965255E+02  0.50000038714E+02 0.  0.
        -12    1    1    2    0    0  0.53242721345E+01 -0.18090954924E+02 -0.25711644986E+02  0.31886034745E+02  0.00000000000E+00 0.  1.
         11    1    3    3    0    0 -0.20775293294E+02  0.19046799698E+02  0.19459293798E+02  0.34249927089E+02  0.51100000000E-03 0. -1.
        -11    1    3    3    0    0  0.18983477681E+02 -0.15043496224E+01  0.14954187767E+01  0.19101616953E+02  0.51100000000E-03 0.  1.
         12    1    3    3    0    0 -0.35324565212E+01  0.54850484893E+00  0.47569324117E+01  0.59504212130E+01  0.00000000000E+00 0. -1.
</event>
<event>
 7    1  0.1139627E-011  0.5930194E+02  0.7816164E-02  0.1266605E+00
        -11   -1    0    0    0    0  0.00000000000E+00  0.00000000000E+00  0.45593999997E+02  0.45594000000E+02  0.51100000000E-03 0.  1.
         11   -1    0    0    0    0 -0.00000000000E+00 -0.00000000000E+00 -0.45593999997E+02  0.45594000000E+02  0.51100000000E-03 0. -1.
    9900012    2    1    2    0    0 -0.26966386758E+02 -0.10250105024E+02 -0.13581983463E+02  0.59301938115E+02  0.49999989216E+02 0.  0.
        -12    1    1    2    0    0  0.26966386758E+02  0.10250105024E+02  0.13581983463E+02  0.31886061885E+02  0.00000000000E+00 0.  1.
         11    1    3    3    0    0 -0.24763320459E+02 -0.12816698121E+02 -0.13240580951E+02  0.30867503545E+02  0.51100000000E-03 0. -1.
        -11    1    3    3    0    0  0.59318025348E+01  0.13433349646E+02 -0.17435813653E+01  0.14787874772E+02  0.51100000000E-03 0.  1.
        -12    1    3    3    0    0 -0.81348688334E+01 -0.10866756548E+02  0.14021788532E+01  0.13646559799E+02  0.00000000000E+00 0.  1.
</event>
<event>
 7    1  0.1139627E-011  0.5930194E+02  0.7816164E-02  0.1266605E+00
        -11   -1    0    0    0    0  0.00000000000E+00  0.00000000000E+00  0.45593999997E+02  0.45594000000E+02  0.51100000000E-03 0.  1.
         11   -1    0    0    0    0 -0.00000000000E+00 -0.00000000000E+00 -0.45593999997E+02  0.45594000000E+02  0.51100000000E-03 0. -1.
    9900012    2    1    2    0    0  0.15662218310E+01  0.27919000623E+02 -0.15323091046E+02  0.59301940886E+02  0.49999994270E+02 0.  0.
        -12    1    1    2    0    0 -0.15662218310E+01 -0.27919000623E+02  0.15323091046E+02  0.31886059114E+02  0.00000000000E+00 0.  1.
         11    1    3    3    0    0 -0.10972927402E+02 -0.49252985628E+01 -0.17988359332E+02  0.21638964241E+02  0.51100000000E-03 0. -1.
        -11    1    3    3    0    0  0.10723022531E+02  0.21431246346E+02  0.75369828718E+01  0.25121457824E+02  0.51100000000E-03 0.  1.
         12    1    3    3    0    0  0.18161267019E+01  0.11413052841E+02 -0.48717145857E+01  0.12541518821E+02  0.00000000000E+00 0. -1.
</event>
<event>
 7    1  0.1139627E-011  0.5930195E+02  0.7816164E-02  0.1266605E+00
        -11   -1    0    0    0    0  0.00000000000E+00  0.00000000000E+00  0.45593999997E+02  0.45594000000E+02  0.51100000000E-03 0. -1.
         11   -1    0    0    0    0 -0.00000000000E+00 -0.00000000000E+00 -0.45593999997E+02  0.45594000000E+02  0.51100000000E-03 0.  1.
    9900012    2    1    2    0    0  0.25867508736E+02 -0.54516305436E+01  0.17828968874E+02  0.59301946389E+02  0.50000004306E+02 0.  0.
        -12    1    1    2    0    0 -0.25867508736E+02  0.54516305436E+01 -0.17828968874E+02  0.31886053611E+02  0.00000000000E+00 0.  1.
         11    1    3    3    0    0 -0.28800659274E+01 -0.68959058357E+01  0.20433929646E+02  0.21757614255E+02  0.51100000000E-03 0. -1.
        -11    1    3    3    0    0  0.10556727614E+02  0.61760265157E+01 -0.11465490493E+02  0.16764404968E+02  0.51100000000E-03 0.  1.
         12    1    3    3    0    0  0.18190847050E+02 -0.47317512236E+01  0.88605297207E+01  0.20779927165E+02  0.00000000000E+00 0. -1.
</event>
<event>
 7    1  0.1139627E-011  0.5930194E+02  0.7816164E-02  0.1266605E+00
        -11   -1    0    0    0    0  0.00000000000E+00  0.00000000000E+00  0.45593999997E+02  0.45594000000E+02  0.51100000000E-03 0.  1.
         11   -1    0    0    0    0 -0.00000000000E+00 -0.00000000000E+00 -0.45593999997E+02  0.45594000000E+02  0.51100000000E-03 0. -1.
    9900012    2    1    2    0    0  0.10801190906E+02 -0.23209939426E+02 -0.19009305451E+02  0.59301941810E+02  0.49999995955E+02 0.  0.
        -12    1    1    2    0    0 -0.10801190906E+02  0.23209939426E+02  0.19009305451E+02  0.31886058190E+02  0.00000000000E+00 0.  1.
         11    1    3    3    0    0 -0.74384530840E+01 -0.24223922591E+02 -0.24013438202E+02  0.34910947058E+02  0.51100000000E-03 0. -1.
        -11    1    3    3    0    0  0.19119563781E+02 -0.33432251896E+01  0.44312268554E+01  0.19909059383E+02  0.51100000000E-03 0.  1.
        -12    1    3    3    0    0 -0.87991979091E+00  0.43572083540E+01  0.57290589526E+00  0.44819353680E+01  0.00000000000E+00 0.  1.
</event>
<event>
 7    1  0.1139627E-011  0.5930196E+02  0.7816164E-02  0.1266605E+00
        -11   -1    0    0    0    0  0.00000000000E+00  0.00000000000E+00  0.45593999997E+02  0.45594000000E+02  0.51100000000E-03 0.  1.
         11   -1    0    0    0    0 -0.00000000000E+00 -0.00000000000E+00 -0.45593999997E+02  0.45594000000E+02  0.51100000000E-03 0. -1.
    9900012    2    1    2    0    0  0.13059941643E+01  0.16141653599E+02 -0.27467453397E+02  0.59301959202E+02  0.50000027674E+02 0.  0.
        -12    1    1    2    0    0 -0.13059941643E+01 -0.16141653599E+02  0.27467453397E+02  0.31886040798E+02  0.00000000000E+00 0.  1.
         11    1    3    3    0    0  0.15504807318E+02  0.23753942370E+02 -0.25602304632E+02  0.38211605970E+02  0.51100000000E-03 0. -1.
        -11    1    3    3    0    0 -0.76086233326E+01 -0.10229660114E+02  0.21689964739E+01  0.12932193976E+02  0.51100000000E-03 0.  1.
        -12    1    3    3    0    0 -0.65901898213E+01  0.26173713428E+01 -0.40341452390E+01  0.81581592554E+01  0.00000000000E+00 0.  1.
</event>
<event>
 7    1  0.1139627E-011  0.5930194E+02  0.7816164E-02  0.1266605E+00
        -11   -1    0    0    0    0  0.00000000000E+00  0.00000000000E+00  0.45593999997E+02  0.45594000000E+02  0.51100000000E-03 0.  1.
         11   -1    0    0    0    0 -0.00000000000E+00 -0.00000000000E+00 -0.45593999997E+02  0.45594000000E+02  0.51100000000E-03 0. -1.
    9900012    2    1    2    0    0  0.17363655581E+02 -0.18627355454E+02 -0.19189727967E+02  0.59301944023E+02  0.49999999991E+02 0.  0.
        -12    1    1    2    0    0 -0.17363655581E+02  0.18627355454E+02  0.19189727967E+02  0.31886055977E+02  0.00000000000E+00 0.  1.
         11    1    3    3    0    0 -0.88229779403E+01 -0.38383690946E+00 -0.15910646077E+02  0.18197278076E+02  0.51100000000E-03 0. -1.
        -11    1    3    3    0    0  0.28822235929E+02 -0.12581049630E+02 -0.89195955951E+01  0.32688886178E+02  0.51100000000E-03 0.  1.
        -12    1    3    3    0    0 -0.26356024070E+01 -0.56624689145E+01  0.56405137056E+01  0.84157797688E+01  0.00000000000E+00 0.  1.
</event>
<event>
 7    1  0.1139627E-011  0.5930198E+02  0.7816164E-02  0.1266605E+00
        -11   -1    0    0    0    0  0.00000000000E+00  0.00000000000E+00  0.45593999997E+02  0.45594000000E+02  0.51100000000E-03 0.  1.
         11   -1    0    0    0    0 -0.00000000000E+00 -0.00000000000E+00 -0.45593999997E+02  0.45594000000E+02  0.51100000000E-03 0. -1.
    9900012    2    1    2    0    0 -0.20469289480E+02 -0.20052246429E+02 -0.13986911314E+02  0.59301982896E+02  0.50000070886E+02 0.  0.
        -12    1    1    2    0    0  0.20469289480E+02  0.20052246429E+02  0.13986911314E+02  0.31886017104E+02  0.00000000000E+00 0.  1.
         11    1    3    3    0    0 -0.28337184296E+02 -0.18830309940E+02 -0.19691986329E+02  0.39310951554E+02  0.51100000000E-03 0. -1.
        -11    1    3    3    0    0  0.78628684511E+01  0.40408431110E+01 -0.34022142202E+01  0.94724957212E+01  0.51100000000E-03 0.  1.
         12    1    3    3    0    0  0.50263656066E-02 -0.52627796006E+01  0.91072892348E+01  0.10518535620E+02  0.00000000000E+00 0. -1.
</event>
<event>
 7    1  0.1139627E-011  0.5930195E+02  0.7816164E-02  0.1266605E+00
        -11   -1    0    0    0    0  0.00000000000E+00  0.00000000000E+00  0.45593999997E+02  0.45594000000E+02  0.51100000000E-03 0. -1.
         11   -1    0    0    0    0 -0.00000000000E+00 -0.00000000000E+00 -0.45593999997E+02  0.45594000000E+02  0.51100000000E-03 0.  1.
    9900012    2    1    2    0    0 -0.16674248366E+02  0.15398140018E+02  0.22396137215E+02  0.59301949183E+02  0.50000009402E+02 0.  0.
        -12    1    1    2    0    0  0.16674248366E+02 -0.15398140018E+02 -0.22396137215E+02  0.31886050817E+02  0.00000000000E+00 0.  1.
         11    1    3    3    0    0  0.14629302167E+02  0.10272883185E+02  0.25035575009E+01  0.18050385349E+02  0.51100000000E-03 0. -1.
        -11    1    3    3    0    0 -0.12531924518E+02 -0.43456807954E+01  0.14280025241E+02  0.19489822853E+02  0.51100000000E-03 0.  1.
        -12    1    3    3    0    0 -0.18771626015E+02  0.94709376278E+01  0.56125544725E+01  0.21761740980E+02  0.00000000000E+00 0.  1.
</event>
<event>
 7    1  0.1139627E-011  0.5930194E+02  0.7816164E-02  0.1266605E+00
        -11   -1    0    0    0    0  0.00000000000E+00  0.00000000000E+00  0.45593999997E+02  0.45594000000E+02  0.51100000000E-03 0.  1.
         11   -1    0    0    0    0 -0.00000000000E+00 -0.00000000000E+00 -0.45593999997E+02  0.45594000000E+02  0.51100000000E-03 0. -1.
    9900012    2    1    2    0    0  0.22342029222E+02 -0.16863185415E+02 -0.15270487647E+02  0.59301935880E+02  0.49999985140E+02 0.  0.
        -12    1    1    2    0    0 -0.22342029222E+02  0.16863185415E+02  0.15270487647E+02  0.31886064120E+02  0.00000000000E+00 0.  1.
         11    1    3    3    0    0 -0.82583638631E+01 -0.43964960854E+00 -0.11071914292E+02  0.13819593042E+02  0.51100000000E-03 0. -1.
        -11    1    3    3    0    0  0.23736817650E+02 -0.23737945028E+02 -0.84044906656E+01  0.34605808904E+02  0.51100000000E-03 0.  1.
        -12    1    3    3    0    0  0.68635754345E+01  0.73144092206E+01  0.42059173113E+01  0.10876533934E+02  0.00000000000E+00 0.  1.
</event>
<event>
 7    1  0.1139627E-011  0.5930184E+02  0.7816164E-02  0.1266605E+00
        -11   -1    0    0    0    0  0.00000000000E+00  0.00000000000E+00  0.45593999997E+02  0.45594000000E+02  0.51100000000E-03 0.  1.
         11   -1    0    0    0    0 -0.00000000000E+00 -0.00000000000E+00 -0.45593999997E+02  0.45594000000E+02  0.51100000000E-03 0. -1.
    9900012    2    1    2    0    0  0.13931890091E+02  0.28655647114E+02  0.12180985637E+01  0.59301836274E+02  0.49999803482E+02 0.  0.
        -12    1    1    2    0    0 -0.13931890091E+02 -0.28655647114E+02 -0.12180985637E+01  0.31886163726E+02  0.00000000000E+00 0.  1.
         11    1    3    3    0    0  0.33920465147E+01  0.28233643584E+02  0.38417008925E+01  0.28695004367E+02  0.51100000000E-03 0. -1.
        -11    1    3    3    0    0  0.16469019106E+02  0.15136589522E+01  0.80153626534E+01  0.18378405602E+02  0.51100000000E-03 0.  1.
         12    1    3    3    0    0 -0.59291755295E+01 -0.10916554217E+01 -0.10638964982E+02  0.12228426306E+02  0.00000000000E+00 0. -1.
</event>
<event>
 7    1  0.1139627E-011  0.5930194E+02  0.7816164E-02  0.1266605E+00
        -11   -1    0    0    0    0  0.00000000000E+00  0.00000000000E+00  0.45593999997E+02  0.45594000000E+02  0.51100000000E-03 0.  1.
         11   -1    0    0    0    0 -0.00000000000E+00 -0.00000000000E+00 -0.45593999997E+02  0.45594000000E+02  0.51100000000E-03 0. -1.
    9900012    2    1    2    0    0 -0.11126462971E+01 -0.31166726557E+02 -0.66421276196E+01  0.59301942147E+02  0.49999996570E+02 0.  0.
        -12    1    1    2    0    0  0.11126462971E+01  0.31166726557E+02  0.66421276196E+01  0.31886057853E+02  0.00000000000E+00 0.  1.
         11    1    3    3    0    0 -0.16816955090E+02 -0.21059706674E+01 -0.49284388285E+01  0.17650342787E+02  0.51100000000E-03 0.  1.
        -11    1    3    3    0    0  0.14135718143E+02 -0.18764421375E+02  0.10386275129E+02  0.25686509071E+02  0.51100000000E-03 0. -1.
        -12    1    3    3    0    0  0.15685906502E+01 -0.10296334515E+02 -0.12099963920E+02  0.15965090289E+02  0.00000000000E+00 0.  1.
</event>
<event>
 7    1  0.1139627E-011  0.5930194E+02  0.7816164E-02  0.1266605E+00
        -11   -1    0    0    0    0  0.00000000000E+00  0.00000000000E+00  0.45593999997E+02  0.45594000000E+02  0.51100000000E-03 0.  1.
         11   -1    0    0    0    0 -0.00000000000E+00 -0.00000000000E+00 -0.45593999997E+02  0.45594000000E+02  0.51100000000E-03 0. -1.
    9900012    2    1    2    0    0 -0.30996996338E+02  0.44721911041E+01 -0.59922200603E+01  0.59301937583E+02  0.49999988246E+02 0.  0.
        -12    1    1    2    0    0  0.30996996338E+02 -0.44721911041E+01  0.59922200603E+01  0.31886062417E+02  0.00000000000E+00 0.  1.
         11    1    3    3    0    0 -0.13116294982E+02  0.13356056199E+02 -0.88890532311E+00  0.18740639908E+02  0.51100000000E-03 0. -1.
        -11    1    3    3    0    0 -0.25060574383E+02 -0.16000233096E+02 -0.13025018880E+01  0.29761323206E+02  0.51100000000E-03 0.  1.
        -12    1    3    3    0    0  0.71798730270E+01  0.71163680012E+01 -0.38008128492E+01  0.10799974469E+02  0.00000000000E+00 0.  1.
</event>
<event>
 7    1  0.1139627E-011  0.5930181E+02  0.7816164E-02  0.1266605E+00
        -11   -1    0    0    0    0  0.00000000000E+00  0.00000000000E+00  0.45593999997E+02  0.45594000000E+02  0.51100000000E-03 0.  1.
         11   -1    0    0    0    0 -0.00000000000E+00 -0.00000000000E+00 -0.45593999997E+02  0.45594000000E+02  0.51100000000E-03 0. -1.
    9900012    2    1    2    0    0 -0.20914523100E+02 -0.12527315603E+02 -0.20551845352E+02  0.59301807689E+02  0.49999751350E+02 0.  0.
        -12    1    1    2    0    0  0.20914523100E+02  0.12527315603E+02  0.20551845352E+02  0.31886192311E+02  0.00000000000E+00 0.  1.
         11    1    3    3    0    0 -0.12928377242E+02 -0.26252481557E+02 -0.97701163361E+01  0.30851108562E+02  0.51100000000E-03 0. -1.
        -11    1    3    3    0    0 -0.10205370535E+02  0.57535139508E+01  0.32525299173E+01  0.12158596205E+02  0.51100000000E-03 0.  1.
         12    1    3    3    0    0  0.22192246776E+01  0.79716520029E+01 -0.14034258933E+02  0.16292102922E+02  0.00000000000E+00 0. -1.
</event>
<event>
 7    1  0.1139627E-011  0.5930194E+02  0.7816164E-02  0.1266605E+00
        -11   -1    0    0    0    0  0.00000000000E+00  0.00000000000E+00  0.45593999997E+02  0.45594000000E+02  0.51100000000E-03 0.  1.
         11   -1    0    0    0    0 -0.00000000000E+00 -0.00000000000E+00 -0.45593999997E+02  0.45594000000E+02  0.51100000000E-03 0. -1.
    9900012    2    1    2    0    0  0.88926080789E+01  0.10620666484E+02 -0.28720092113E+02  0.59301941510E+02  0.49999995409E+02 0.  0.
        -12    1    1    2    0    0 -0.88926080789E+01 -0.10620666484E+02  0.28720092113E+02  0.31886058490E+02  0.00000000000E+00 0.  1.
         11    1    3    3    0    0  0.95280464403E+01  0.17952503371E+02 -0.35311125428E+02  0.40742503918E+02  0.51100000000E-03 0. -1.
        -11    1    3    3    0    0  0.32639094646E+00 -0.99766219706E+01  0.10006439345E+02  0.14133943032E+02  0.51100000000E-03 0.  1.
        -12    1    3    3    0    0 -0.96182930780E+00  0.26447850840E+01 -0.34154060299E+01  0.44254945607E+01  0.00000000000E+00 0.  1.
</event>
<event>
 7    1  0.1139627E-011  0.5930194E+02  0.7816164E-02  0.1266605E+00
        -11   -1    0    0    0    0  0.00000000000E+00  0.00000000000E+00  0.45593999997E+02  0.45594000000E+02  0.51100000000E-03 0.  1.
         11   -1    0    0    0    0 -0.00000000000E+00 -0.00000000000E+00 -0.45593999997E+02  0.45594000000E+02  0.51100000000E-03 0. -1.
    9900012    2    1    2    0    0 -0.17490372627E+02  0.45179314118E+01 -0.26275388950E+02  0.59301938730E+02  0.49999990338E+02 0.  0.
        -12    1    1    2    0    0  0.17490372627E+02 -0.45179314118E+01  0.26275388950E+02  0.31886061270E+02  0.00000000000E+00 0.  1.
         11    1    3    3    0    0 -0.67160123778E+00 -0.85168251962E+01 -0.52430504438E+01  0.10023818527E+02  0.51100000000E-03 0. -1.
        -11    1    3    3    0    0 -0.17842129821E+02  0.88551992008E+01  0.68515357307E+01  0.21064180297E+02  0.51100000000E-03 0.  1.
        -12    1    3    3    0    0  0.10233584321E+01  0.41795574073E+01 -0.27883874237E+02  0.28213939906E+02  0.00000000000E+00 0.  1.
</event>
<event>
 7    1  0.1139627E-011  0.5930188E+02  0.7816164E-02  0.1266605E+00
        -11   -1    0    0    0    0  0.00000000000E+00  0.00000000000E+00  0.45593999997E+02  0.45594000000E+02  0.51100000000E-03 0.  1.
         11   -1    0    0    0    0 -0.00000000000E+00 -0.00000000000E+00 -0.45593999997E+02  0.45594000000E+02  0.51100000000E-03 0. -1.
    9900012    2    1    2    0    0 -0.19697437200E+02  0.37309533627E+01 -0.24795475911E+02  0.59301879651E+02  0.49999882592E+02 0.  0.
        -12    1    1    2    0    0  0.19697437200E+02 -0.37309533627E+01  0.24795475911E+02  0.31886120349E+02  0.00000000000E+00 0.  1.
         11    1    3    3    0    0 -0.51750579093E+01  0.13460114566E+02 -0.97428519954E+01  0.17403421323E+02  0.51100000000E-03 0. -1.
        -11    1    3    3    0    0 -0.18495138156E+02 -0.20289741230E+02 -0.13205284116E+02  0.30465115516E+02  0.51100000000E-03 0.  1.
        -12    1    3    3    0    0  0.39727588647E+01  0.10560580027E+02 -0.18473398004E+01  0.11433342811E+02  0.00000000000E+00 0.  1.
</event>
<event>
 7    1  0.1139627E-011  0.5930194E+02  0.7816164E-02  0.1266605E+00
        -11   -1    0    0    0    0  0.00000000000E+00  0.00000000000E+00  0.45593999997E+02  0.45594000000E+02  0.51100000000E-03 0.  1.
         11   -1    0    0    0    0 -0.00000000000E+00 -0.00000000000E+00 -0.45593999997E+02  0.45594000000E+02  0.51100000000E-03 0. -1.
    9900012    2    1    2    0    0 -0.75034600636E+01  0.19744339605E+01 -0.30927666044E+02  0.59301939890E+02  0.49999992454E+02 0.  0.
        -12    1    1    2    0    0  0.75034600636E+01 -0.19744339605E+01  0.30927666044E+02  0.31886060110E+02  0.00000000000E+00 0.  1.
         11    1    3    3    0    0  0.15393746805E+02 -0.92104639309E+01 -0.17219085964E+02  0.24865578783E+02  0.51100000000E-03 0. -1.
        -11    1    3    3    0    0 -0.15215325693E+02  0.96816923435E+01 -0.18024719001E+02  0.25497682206E+02  0.51100000000E-03 0.  1.
        -12    1    3    3    0    0 -0.76818811756E+01  0.15032055479E+01  0.43161389200E+01  0.89386789008E+01  0.00000000000E+00 0.  1.
</event>
<event>
 7    1  0.1139627E-011  0.5930193E+02  0.7816164E-02  0.1266605E+00
        -11   -1    0    0    0    0  0.00000000000E+00  0.00000000000E+00  0.45593999997E+02  0.45594000000E+02  0.51100000000E-03 0.  1.
         11   -1    0    0    0    0 -0.00000000000E+00 -0.00000000000E+00 -0.45593999997E+02  0.45594000000E+02  0.51100000000E-03 0. -1.
    9900012    2    1    2    0    0  0.27406516111E+00 -0.40472310935E+01 -0.31626984389E+02  0.59301931996E+02  0.49999978057E+02 0.  0.
        -12    1    1    2    0    0 -0.27406516111E+00  0.40472310935E+01  0.31626984389E+02  0.31886068004E+02  0.00000000000E+00 0.  1.
         11    1    3    3    0    0  0.64646058468E+01 -0.10491328246E+02 -0.11569200423E+02  0.16902825083E+02  0.51100000000E-03 0. -1.
        -11    1    3    3    0    0 -0.33874416158E+00  0.21299052724E+02 -0.10027733877E+02  0.23543997993E+02  0.51100000000E-03 0.  1.
        -12    1    3    3    0    0 -0.58517965241E+01 -0.14854955571E+02 -0.10030050089E+02  0.18855108920E+02  0.00000000000E+00 0.  1.
</event>
<event>
 7    1  0.1139627E-011  0.5930191E+02  0.7816164E-02  0.1266605E+00
        -11   -1    0    0    0    0  0.00000000000E+00  0.00000000000E+00  0.45593999997E+02  0.45594000000E+02  0.51100000000E-03 0.  1.
         11   -1    0    0    0    0 -0.00000000000E+00 -0.00000000000E+00 -0.45593999997E+02  0.45594000000E+02  0.51100000000E-03 0. -1.
    9900012    2    1    2    0    0  0.30175819615E+01  0.15723262868E+02 -0.27575275477E+02  0.59301911909E+02  0.49999941424E+02 0.  0.
        -12    1    1    2    0    0 -0.30175819615E+01 -0.15723262868E+02  0.27575275477E+02  0.31886088091E+02  0.00000000000E+00 0.  1.
         11    1    3    3    0    0 -0.40612529732E+01  0.32884842787E+01 -0.42654710753E+01  0.67455280237E+01  0.51100000000E-03 0. -1.
        -11    1    3    3    0    0  0.34037367992E+01 -0.16630053149E+02 -0.39103865255E+01  0.17419391923E+02  0.51100000000E-03 0.  1.
        -12    1    3    3    0    0  0.36750981356E+01  0.29064831738E+02 -0.19399417876E+02  0.35136991963E+02  0.00000000000E+00 0.  1.
</event>
<event>
 7    1  0.1139627E-011  0.5930195E+02  0.7816164E-02  0.1266605E+00
        -11   -1    0    0    0    0  0.00000000000E+00  0.00000000000E+00  0.45593999997E+02  0.45594000000E+02  0.51100000000E-03 0. -1.
         11   -1    0    0    0    0 -0.00000000000E+00 -0.00000000000E+00 -0.45593999997E+02  0.45594000000E+02  0.51100000000E-03 0.  1.
    9900012    2    1    2    0    0 -0.10149111476E+02  0.27031475312E+02  0.13528314179E+02  0.59301946531E+02  0.50000004566E+02 0.  0.
        -12    1    1    2    0    0  0.10149111476E+02 -0.27031475312E+02 -0.13528314179E+02  0.31886053469E+02  0.00000000000E+00 0.  1.
         11    1    3    3    0    0 -0.49940511552E+01  0.20021858826E+02 -0.14121545630E+02  0.25004668145E+02  0.51100000000E-03 0. -1.
        -11    1    3    3    0    0  0.35380096053E+01 -0.42841483795E+01  0.46768712430E+01  0.72625452969E+01  0.51100000000E-03 0.  1.
         12    1    3    3    0    0 -0.86930699256E+01  0.11293764866E+02  0.22972988566E+02  0.27034733090E+02  0.00000000000E+00 0. -1.
</event>
<event>
 7    1  0.1139627E-011  0.5930191E+02  0.7816164E-02  0.1266605E+00
        -11   -1    0    0    0    0  0.00000000000E+00  0.00000000000E+00  0.45593999997E+02  0.45594000000E+02  0.51100000000E-03 0.  1.
         11   -1    0    0    0    0 -0.00000000000E+00 -0.00000000000E+00 -0.45593999997E+02  0.45594000000E+02  0.51100000000E-03 0. -1.
    9900012    2    1    2    0    0  0.20855967267E+02 -0.21621764976E+02 -0.10688802902E+02  0.59301912143E+02  0.49999941850E+02 0.  0.
        -12    1    1    2    0    0 -0.20855967267E+02  0.21621764976E+02  0.10688802902E+02  0.31886087857E+02  0.00000000000E+00 0.  1.
         11    1    3    3    0    0  0.23048282807E+01 -0.12758972873E+01 -0.41890166831E+01  0.49485359778E+01  0.51100000000E-03 0. -1.
        -11    1    3    3    0    0 -0.11279300836E+02 -0.80915809412E+01  0.10954789504E+02  0.17683430742E+02  0.51100000000E-03 0.  1.
        -12    1    3    3    0    0  0.29830439822E+02 -0.12254286748E+02 -0.17454575723E+02  0.36669945423E+02  0.00000000000E+00 0.  1.
</event>
<event>
 7    1  0.1139627E-011  0.5930193E+02  0.7816164E-02  0.1266605E+00
        -11   -1    0    0    0    0  0.00000000000E+00  0.00000000000E+00  0.45593999997E+02  0.45594000000E+02  0.51100000000E-03 0.  1.
         11   -1    0    0    0    0 -0.00000000000E+00 -0.00000000000E+00 -0.45593999997E+02  0.45594000000E+02  0.51100000000E-03 0. -1.
    9900012    2    1    2    0    0  0.32092787566E+01  0.25242849942E+02 -0.19215113627E+02  0.59301928824E+02  0.49999972273E+02 0.  0.
        -12    1    1    2    0    0 -0.32092787566E+01 -0.25242849942E+02  0.19215113627E+02  0.31886071176E+02  0.00000000000E+00 0.  1.
         11    1    3    3    0    0 -0.42981961024E+01 -0.82207736115E+01  0.28782989052E+01  0.97128890324E+01  0.51100000000E-03 0.  1.
        -11    1    3    3    0    0 -0.30225650401E+01  0.26954023594E+02 -0.36376514651E+01  0.27365814363E+02  0.51100000000E-03 0. -1.
         12    1    3    3    0    0  0.10530039899E+02  0.65095999597E+01 -0.18455761067E+02  0.22223225429E+02  0.00000000000E+00 0. -1.
</event>
<event>
 7    1  0.1139627E-011  0.5930194E+02  0.7816164E-02  0.1266605E+00
        -11   -1    0    0    0    0  0.00000000000E+00  0.00000000000E+00  0.45593999997E+02  0.45594000000E+02  0.51100000000E-03 0.  1.
         11   -1    0    0    0    0 -0.00000000000E+00 -0.00000000000E+00 -0.45593999997E+02  0.45594000000E+02  0.51100000000E-03 0. -1.
    9900012    2    1    2    0    0 -0.23544817935E+02  0.21327272996E+02  0.27403546497E+01  0.59301943978E+02  0.49999999910E+02 0.  0.
        -12    1    1    2    0    0  0.23544817935E+02 -0.21327272996E+02 -0.27403546497E+01  0.31886056022E+02  0.00000000000E+00 0.  1.
         11    1    3    3    0    0 -0.15305603013E+02 -0.11771992279E+02  0.25031735680E+01  0.19470674462E+02  0.51100000000E-03 0. -1.
        -11    1    3    3    0    0 -0.49974229637E+01  0.13969595340E+02  0.10215542308E+02  0.18013359907E+02  0.51100000000E-03 0.  1.
         12    1    3    3    0    0 -0.32417919580E+01  0.19129669936E+02 -0.99783612267E+01  0.21817909609E+02  0.00000000000E+00 0. -1.
</event>
<event>
 7    1  0.1139627E-011  0.5930193E+02  0.7816164E-02  0.1266605E+00
        -11   -1    0    0    0    0  0.00000000000E+00  0.00000000000E+00  0.45593999997E+02  0.45594000000E+02  0.51100000000E-03 0. -1.
         11   -1    0    0    0    0 -0.00000000000E+00 -0.00000000000E+00 -0.45593999997E+02  0.45594000000E+02  0.51100000000E-03 0.  1.
    9900012    2    1    2    0    0 -0.26357922619E+02  0.21034905057E+01  0.17820123244E+02  0.59301928597E+02  0.49999971858E+02 0.  0.
        -12    1    1    2    0    0  0.26357922619E+02 -0.21034905057E+01 -0.17820123244E+02  0.31886071403E+02  0.00000000000E+00 0.  1.
         11    1    3    3    0    0 -0.22110386315E+02 -0.19117526745E+02 -0.28645101419E+00  0.29230652854E+02  0.51100000000E-03 0. -1.
        -11    1    3    3    0    0 -0.55308904128E+01  0.42462992506E+01  0.57137825268E+01  0.90149385527E+01  0.51100000000E-03 0.  1.
         12    1    3    3    0    0  0.12833541087E+01  0.16974718000E+02  0.12392791732E+02  0.21056337190E+02  0.00000000000E+00 0. -1.
</event>
<event>
 7    1  0.1139627E-011  0.5930188E+02  0.7816164E-02  0.1266605E+00
        -11   -1    0    0    0    0  0.00000000000E+00  0.00000000000E+00  0.45593999997E+02  0.45594000000E+02  0.51100000000E-03 0.  1.
         11   -1    0    0    0    0 -0.00000000000E+00 -0.00000000000E+00 -0.45593999997E+02  0.45594000000E+02  0.51100000000E-03 0. -1.
    9900012    2    1    2    0    0 -0.63916006588E+01 -0.67737161460E+01 -0.30495717747E+02  0.59301880915E+02  0.49999884897E+02 0.  0.
        -12    1    1    2    0    0  0.63916006588E+01  0.67737161460E+01  0.30495717747E+02  0.31886119085E+02  0.00000000000E+00 0.  1.
         11    1    3    3    0    0  0.17133966913E+02  0.43421668904E+01 -0.19592566779E+01  0.17783866916E+02  0.51100000000E-03 0. -1.
        -11    1    3    3    0    0 -0.15148219048E+02 -0.13676228717E+02 -0.14737654160E+02  0.25173522254E+02  0.51100000000E-03 0.  1.
        -12    1    3    3    0    0 -0.83773485246E+01  0.25603456809E+01 -0.13798806909E+02  0.16344491745E+02  0.00000000000E+00 0.  1.
</event>
<event>
 7    1  0.1139627E-011  0.5930194E+02  0.7816164E-02  0.1266605E+00
        -11   -1    0    0    0    0  0.00000000000E+00  0.00000000000E+00  0.45593999997E+02  0.45594000000E+02  0.51100000000E-03 0. -1.
         11   -1    0    0    0    0 -0.00000000000E+00 -0.00000000000E+00 -0.45593999997E+02  0.45594000000E+02  0.51100000000E-03 0.  1.
    9900012    2    1    2    0    0  0.20695314731E+02 -0.46047032133E+01  0.23816409058E+02  0.59301942171E+02  0.49999996613E+02 0.  0.
        -12    1    1    2    0    0 -0.20695314731E+02  0.46047032133E+01 -0.23816409058E+02  0.31886057829E+02  0.00000000000E+00 0.  1.
         11    1    3    3    0    0 -0.54162391380E+01 -0.99248444851E+01  0.24797661893E+02  0.27253664342E+02  0.51100000000E-03 0. -1.
        -11    1    3    3    0    0  0.62802210865E+01 -0.59163413852E+01 -0.30731294478E+01  0.91590609314E+01  0.51100000000E-03 0.  1.
         12    1    3    3    0    0  0.19831332782E+02  0.11236482657E+02  0.20918766130E+01  0.22889216897E+02  0.00000000000E+00 0. -1.
</event>
<event>
 7    1  0.1139627E-011  0.5930195E+02  0.7816164E-02  0.1266605E+00
        -11   -1    0    0    0    0  0.00000000000E+00  0.00000000000E+00  0.45593999997E+02  0.45594000000E+02  0.51100000000E-03 0. -1.
         11   -1    0    0    0    0 -0.00000000000E+00 -0.00000000000E+00 -0.45593999997E+02  0.45594000000E+02  0.51100000000E-03 0.  1.
    9900012    2    1    2    0    0  0.28874059134E+02 -0.81764418383E+01  0.10777511041E+02  0.59301949190E+02  0.50000009415E+02 0.  0.
        -12    1    1    2    0    0 -0.28874059134E+02  0.81764418383E+01 -0.10777511041E+02  0.31886050810E+02  0.00000000000E+00 0.  1.
         11    1    3    3    0    0  0.11145254916E+02 -0.33175847210E+01  0.14055661137E+02  0.18242387063E+02  0.51100000000E-03 0. -1.
        -11    1    3    3    0    0  0.17940631857E+02 -0.17575808981E+01 -0.18318916222E+02  0.25700934883E+02  0.51100000000E-03 0.  1.
        -12    1    3    3    0    0 -0.21182763857E+00 -0.31012762192E+01  0.15040766127E+02  0.15358627244E+02  0.00000000000E+00 0.  1.
</event>
<event>
 7    1  0.1389644E-011  0.5930194E+02  0.7816164E-02  0.1266605E+00
        -11   -1    0    0    0    0  0.00000000000E+00  0.00000000000E+00  0.45593999997E+02  0.45594000000E+02  0.51100000000E-03 0. -1.
         11   -1    0    0    0    0 -0.00000000000E+00 -0.00000000000E+00 -0.45593999997E+02  0.45594000000E+02  0.51100000000E-03 0.  1.
    9900012    2    1    2    0    0  0.14683812544E+01  0.86083126986E+01  0.30666946964E+02  0.59301939925E+02  0.49999992517E+02 0.  0.
        -12    1    1    2    0    0 -0.14683812544E+01 -0.86083126986E+01 -0.30666946964E+02  0.31886060075E+02  0.00000000000E+00 0.  1.
         11    1    3    3    0    0 -0.51204075480E+01  0.38506743105E+01  0.36705477107E+02  0.37260412183E+02  0.51100000000E-03 0. -1.
        -11    1    3    3    0    0  0.50596262437E+01 -0.40186709781E+01 -0.10305686940E+02  0.12163746040E+02  0.51100000000E-03 0.  1.
         12    1    3    3    0    0  0.15291625587E+01  0.87763093662E+01  0.42671567973E+01  0.98777817021E+01  0.00000000000E+00 0. -1.
</event>
<event>
 7    1  0.1139627E-011  0.5930200E+02  0.7816164E-02  0.1266605E+00
        -11   -1    0    0    0    0  0.00000000000E+00  0.00000000000E+00  0.45593999997E+02  0.45594000000E+02  0.51100000000E-03 0. -1.
         11   -1    0    0    0    0 -0.00000000000E+00 -0.00000000000E+00 -0.45593999997E+02  0.45594000000E+02  0.51100000000E-03 0.  1.
    9900012    2    1    2    0    0 -0.19104808285E+02 -0.53598589887E+01  0.24959875859E+02  0.59301996944E+02  0.50000096506E+02 0.  0.
        -12    1    1    2    0    0  0.19104808285E+02  0.53598589887E+01 -0.24959875859E+02  0.31886003056E+02  0.00000000000E+00 0.  1.
         11    1    3    3    0    0 -0.26657422044E+02 -0.19564428941E+02  0.24871367629E+02  0.41375958693E+02  0.51100000000E-03 0. -1.
        -11    1    3    3    0    0 -0.14383374465E+01  0.35697075989E+01  0.97995821996E+00  0.39713908553E+01  0.51100000000E-03 0.  1.
         12    1    3    3    0    0  0.89909512053E+01  0.10634862353E+02 -0.89144998931E+00  0.13954647395E+02  0.00000000000E+00 0. -1.
</event>
<event>
 7    1  0.1139627E-011  0.5930196E+02  0.7816164E-02  0.1266605E+00
        -11   -1    0    0    0    0  0.00000000000E+00  0.00000000000E+00  0.45593999997E+02  0.45594000000E+02  0.51100000000E-03 0.  1.
         11   -1    0    0    0    0 -0.00000000000E+00 -0.00000000000E+00 -0.45593999997E+02  0.45594000000E+02  0.51100000000E-03 0. -1.
    9900012    2    1    2    0    0 -0.12200940946E+02 -0.15611520039E+02 -0.24982737935E+02  0.59301957401E+02  0.50000024390E+02 0.  0.
        -12    1    1    2    0    0  0.12200940946E+02  0.15611520039E+02  0.24982737935E+02  0.31886042599E+02  0.00000000000E+00 0.  1.
         11    1    3    3    0    0  0.21976049333E+01 -0.13225352634E+01 -0.50718865198E+01  0.56835376393E+01  0.51100000000E-03 0. -1.
        -11    1    3    3    0    0 -0.49857044449E+01  0.13964524291E+02  0.40775831790E+01  0.15378292243E+02  0.51100000000E-03 0.  1.
        -12    1    3    3    0    0 -0.94128414341E+01 -0.28253509066E+02 -0.23988434594E+02  0.38240127519E+02  0.00000000000E+00 0.  1.
</event>
<event>
 7    1  0.1139627E-011  0.5930196E+02  0.7816164E-02  0.1266605E+00
        -11   -1    0    0    0    0  0.00000000000E+00  0.00000000000E+00  0.45593999997E+02  0.45594000000E+02  0.51100000000E-03 0.  1.
         11   -1    0    0    0    0 -0.00000000000E+00 -0.00000000000E+00 -0.45593999997E+02  0.45594000000E+02  0.51100000000E-03 0. -1.
    9900012    2    1    2    0    0  0.21097150905E+02 -0.23166580249E+02  0.59109749875E+01  0.59301955372E+02  0.50000020689E+02 0.  0.
        -12    1    1    2    0    0 -0.21097150905E+02  0.23166580249E+02 -0.59109749875E+01  0.31886044628E+02  0.00000000000E+00 0.  1.
         11    1    3    3    0    0 -0.10381903221E+02 -0.16874919995E+02  0.13529056524E+02  0.23991294463E+02  0.51100000000E-03 0. -1.
        -11    1    3    3    0    0  0.16794248020E+02  0.30188360183E+01 -0.30610476882E+01  0.17335805452E+02  0.51100000000E-03 0.  1.
         12    1    3    3    0    0  0.14684806105E+02 -0.93104962726E+01 -0.45570338485E+01  0.17974855456E+02  0.00000000000E+00 0. -1.
</event>
<event>
 7    1  0.1139627E-011  0.5930175E+02  0.7816164E-02  0.1266605E+00
        -11   -1    0    0    0    0  0.00000000000E+00  0.00000000000E+00  0.45593999997E+02  0.45594000000E+02  0.51100000000E-03 0. -1.
         11   -1    0    0    0    0 -0.00000000000E+00 -0.00000000000E+00 -0.45593999997E+02  0.45594000000E+02  0.51100000000E-03 0.  1.
    9900012    2    1    2    0    0  0.16228634401E+02  0.23773375689E+02  0.13718279677E+02  0.59301746481E+02  0.49999639721E+02 0.  0.
        -12    1    1    2    0    0 -0.16228634401E+02 -0.23773375689E+02 -0.13718279677E+02  0.31886253519E+02  0.00000000000E+00 0.  1.
         11    1    3    3    0    0 -0.28972865242E+01  0.66419645118E+01  0.27673233952E+02  0.28606255250E+02  0.51100000000E-03 0. -1.
        -11    1    3    3    0    0  0.13238353363E+02  0.16804620681E+02 -0.11693682433E+02  0.24380145305E+02  0.51100000000E-03 0.  1.
         12    1    3    3    0    0  0.58875675622E+01  0.32679049671E+00 -0.22612718420E+01  0.63153459266E+01  0.00000000000E+00 0. -1.
</event>
<event>
 7    1  0.1139627E-011  0.5930196E+02  0.7816164E-02  0.1266605E+00
        -11   -1    0    0    0    0  0.00000000000E+00  0.00000000000E+00  0.45593999997E+02  0.45594000000E+02  0.51100000000E-03 0. -1.
         11   -1    0    0    0    0 -0.00000000000E+00 -0.00000000000E+00 -0.45593999997E+02  0.45594000000E+02  0.51100000000E-03 0.  1.
    9900012    2    1    2    0    0 -0.19633647502E+02 -0.23566718122E+02  0.87091570341E+01  0.59301957073E+02  0.50000023791E+02 0.  0.
        -12    1    1    2    0    0  0.19633647502E+02  0.23566718122E+02 -0.87091570341E+01  0.31886042927E+02  0.00000000000E+00 0.  1.
         11    1    3    3    0    0  0.38945460486E-01 -0.32192356295E+02  0.60055479071E+01  0.32747762160E+02  0.51100000000E-03 0. -1.
        -11    1    3    3    0    0 -0.33959594861E+00  0.54227855742E+01 -0.29178834198E+01  0.61673310844E+01  0.51100000000E-03 0.  1.
         12    1    3    3    0    0 -0.19332997014E+02  0.32028525983E+01  0.56214925469E+01  0.20386863829E+02  0.00000000000E+00 0. -1.
</event>
<event>
 7    1  0.1139627E-011  0.5930194E+02  0.7816164E-02  0.1266605E+00
        -11   -1    0    0    0    0  0.00000000000E+00  0.00000000000E+00  0.45593999997E+02  0.45594000000E+02  0.51100000000E-03 0.  1.
         11   -1    0    0    0    0 -0.00000000000E+00 -0.00000000000E+00 -0.45593999997E+02  0.45594000000E+02  0.51100000000E-03 0. -1.
    9900012    2    1    2    0    0  0.14490061925E+02  0.25273045659E+02 -0.12962715387E+02  0.59301941578E+02  0.49999995533E+02 0.  0.
        -12    1    1    2    0    0 -0.14490061925E+02 -0.25273045659E+02  0.12962715387E+02  0.31886058422E+02  0.00000000000E+00 0.  1.
         11    1    3    3    0    0 -0.49339924745E+01  0.22843515585E+02  0.54809800143E+01  0.24004408516E+02  0.51100000000E-03 0.  1.
        -11    1    3    3    0    0  0.12055551015E+01 -0.20063072060E+01 -0.16251368144E+02  0.16419062048E+02  0.51100000000E-03 0. -1.
        -12    1    3    3    0    0  0.18218499298E+02  0.44358372799E+01 -0.21923272568E+01  0.18878471015E+02  0.00000000000E+00 0.  1.
</event>
<event>
 7    1  0.1139627E-011  0.5930205E+02  0.7816164E-02  0.1266604E+00
        -11   -1    0    0    0    0  0.00000000000E+00  0.00000000000E+00  0.45593999997E+02  0.45594000000E+02  0.51100000000E-03 0. -1.
         11   -1    0    0    0    0 -0.00000000000E+00 -0.00000000000E+00 -0.45593999997E+02  0.45594000000E+02  0.51100000000E-03 0.  1.
    9900012    2    1    2    0    0 -0.16171713530E+02  0.21335237627E+01  0.27397766750E+02  0.59302049097E+02  0.50000191620E+02 0.  0.
        -12    1    1    2    0    0  0.16171713530E+02 -0.21335237627E+01 -0.27397766750E+02  0.31885950903E+02  0.00000000000E+00 0.  1.
         11    1    3    3    0    0 -0.19320617690E+02  0.19983348988E+02  0.11950840066E+02  0.30256289978E+02  0.51100000000E-03 0. -1.
        -11    1    3    3    0    0  0.40820474312E+01 -0.86294122064E+01  0.17145460939E+02  0.19623880791E+02  0.51100000000E-03 0.  1.
         12    1    3    3    0    0 -0.93314327122E+00 -0.92204130186E+01 -0.16985342550E+01  0.94218783273E+01  0.00000000000E+00 0. -1.
</event>
<event>
 7    1  0.1139627E-011  0.5930194E+02  0.7816164E-02  0.1266605E+00
        -11   -1    0    0    0    0  0.00000000000E+00  0.00000000000E+00  0.45593999997E+02  0.45594000000E+02  0.51100000000E-03 0.  1.
         11   -1    0    0    0    0 -0.00000000000E+00 -0.00000000000E+00 -0.45593999997E+02  0.45594000000E+02  0.51100000000E-03 0. -1.
    9900012    2    1    2    0    0  0.14478806630E+02  0.14867941631E+02 -0.24208040875E+02  0.59301940777E+02  0.49999994072E+02 0.  0.
        -12    1    1    2    0    0 -0.14478806630E+02 -0.14867941631E+02  0.24208040875E+02  0.31886059223E+02  0.00000000000E+00 0.  1.
         11    1    3    3    0    0 -0.11363036596E+01  0.12423933955E+02 -0.21025779821E+02  0.24448491534E+02  0.51100000000E-03 0. -1.
        -11    1    3    3    0    0  0.15293309839E+02 -0.12263492813E+02 -0.44044920231E+01  0.20091742882E+02  0.51100000000E-03 0.  1.
        -12    1    3    3    0    0  0.32180045020E+00  0.14707500489E+02  0.12222309697E+01  0.14761706361E+02  0.00000000000E+00 0.  1.
</event>
<event>
 7    1  0.1139627E-011  0.5930196E+02  0.7816164E-02  0.1266605E+00
        -11   -1    0    0    0    0  0.00000000000E+00  0.00000000000E+00  0.45593999997E+02  0.45594000000E+02  0.51100000000E-03 0.  1.
         11   -1    0    0    0    0 -0.00000000000E+00 -0.00000000000E+00 -0.45593999997E+02  0.45594000000E+02  0.51100000000E-03 0. -1.
    9900012    2    1    2    0    0 -0.26712381290E+02  0.98031508632E+01 -0.14389804017E+02  0.59301960098E+02  0.50000029308E+02 0.  0.
        -12    1    1    2    0    0  0.26712381290E+02 -0.98031508632E+01  0.14389804017E+02  0.31886039902E+02  0.00000000000E+00 0.  1.
         11    1    3    3    0    0 -0.27781395895E+02  0.17407162505E+02  0.12872502429E+01  0.32809636965E+02  0.51100000000E-03 0. -1.
        -11    1    3    3    0    0 -0.37215517085E+01 -0.10056922206E+02 -0.89468257800E+00  0.10760673239E+02  0.51100000000E-03 0.  1.
         12    1    3    3    0    0  0.47905663138E+01  0.24529105641E+01 -0.14782371682E+02  0.15731649894E+02  0.00000000000E+00 0. -1.
</event>
<event>
 7    1  0.1139627E-011  0.5930202E+02  0.7816164E-02  0.1266605E+00
        -11   -1    0    0    0    0  0.00000000000E+00  0.00000000000E+00  0.45593999997E+02  0.45594000000E+02  0.51100000000E-03 0.  1.
         11   -1    0    0    0    0 -0.00000000000E+00 -0.00000000000E+00 -0.45593999997E+02  0.45594000000E+02  0.51100000000E-03 0. -1.
    9900012    2    1    2    0    0  0.19745185552E+02 -0.19815636779E+02 -0.15303076838E+02  0.59302016024E+02  0.50000131303E+02 0.  0.
        -12    1    1    2    0    0 -0.19745185552E+02  0.19815636779E+02  0.15303076838E+02  0.31885983976E+02  0.00000000000E+00 0.  1.
         11    1    3    3    0    0  0.17764723495E+02  0.10998230499E+02 -0.13954752781E+02  0.25125317917E+02  0.51100000000E-03 0. -1.
        -11    1    3    3    0    0  0.57587556547E+01 -0.13411644480E+02  0.47572169927E+01  0.15351436028E+02  0.51100000000E-03 0.  1.
         12    1    3    3    0    0 -0.37782935976E+01 -0.17402222799E+02 -0.61055410490E+01  0.18825262079E+02  0.00000000000E+00 0. -1.
</event>
<event>
 7    1  0.1139627E-011  0.5930191E+02  0.7816164E-02  0.1266605E+00
        -11   -1    0    0    0    0  0.00000000000E+00  0.00000000000E+00  0.45593999997E+02  0.45594000000E+02  0.51100000000E-03 0. -1.
         11   -1    0    0    0    0 -0.00000000000E+00 -0.00000000000E+00 -0.45593999997E+02  0.45594000000E+02  0.51100000000E-03 0.  1.
    9900012    2    1    2    0    0  0.17495871555E+02 -0.12320241454E+02  0.23639567219E+02  0.59301905707E+02  0.49999930113E+02 0.  0.
        -12    1    1    2    0    0 -0.17495871555E+02  0.12320241454E+02 -0.23639567219E+02  0.31886094293E+02  0.00000000000E+00 0.  1.
         11    1    3    3    0    0 -0.10932552379E+01 -0.11084019915E+02 -0.42410521047E+01  0.11917937226E+02  0.51100000000E-03 0.  1.
        -11    1    3    3    0    0  0.27975347207E+02  0.21632510327E+01  0.22953588768E+02  0.36251440578E+02  0.51100000000E-03 0. -1.
         12    1    3    3    0    0 -0.93862204143E+01 -0.33994725710E+01  0.49270305557E+01  0.11132527904E+02  0.00000000000E+00 0. -1.
</event>
<event>
 7    1  0.1139627E-011  0.5930193E+02  0.7816164E-02  0.1266605E+00
        -11   -1    0    0    0    0  0.00000000000E+00  0.00000000000E+00  0.45593999997E+02  0.45594000000E+02  0.51100000000E-03 0.  1.
         11   -1    0    0    0    0 -0.00000000000E+00 -0.00000000000E+00 -0.45593999997E+02  0.45594000000E+02  0.51100000000E-03 0. -1.
    9900012    2    1    2    0    0  0.12204217015E+02 -0.17464454990E+02 -0.23722806232E+02  0.59301927233E+02  0.49999969370E+02 0.  0.
        -12    1    1    2    0    0 -0.12204217015E+02  0.17464454990E+02  0.23722806232E+02  0.31886072767E+02  0.00000000000E+00 0.  1.
         11    1    3    3    0    0 -0.14811489084E+02  0.41876281551E+00 -0.19164659024E+01  0.14940830398E+02  0.51100000000E-03 0. -1.
        -11    1    3    3    0    0  0.25308765767E+02 -0.61695036915E+01 -0.10808434074E+02  0.28203167337E+02  0.51100000000E-03 0.  1.
         12    1    3    3    0    0  0.17069403308E+01 -0.11713714114E+02 -0.10997906256E+02  0.16157929497E+02  0.00000000000E+00 0. -1.
</event>
<event>
 7    1  0.1139627E-011  0.5930194E+02  0.7816164E-02  0.1266605E+00
        -11   -1    0    0    0    0  0.00000000000E+00  0.00000000000E+00  0.45593999997E+02  0.45594000000E+02  0.51100000000E-03 0.  1.
         11   -1    0    0    0    0 -0.00000000000E+00 -0.00000000000E+00 -0.45593999997E+02  0.45594000000E+02  0.51100000000E-03 0. -1.
    9900012    2    1    2    0    0 -0.25616416718E+01  0.27853502391E+02 -0.15308206094E+02  0.59301940706E+02  0.49999993942E+02 0.  0.
        -12    1    1    2    0    0  0.25616416718E+01 -0.27853502391E+02  0.15308206094E+02  0.31886059294E+02  0.00000000000E+00 0.  1.
         11    1    3    3    0    0 -0.35994152413E+01  0.29021091638E+02 -0.12781232379E+02  0.31914564878E+02  0.51100000000E-03 0. -1.
        -11    1    3    3    0    0 -0.38802833584E+00 -0.11579044399E+02  0.67167247846E+01  0.13391759678E+02  0.51100000000E-03 0.  1.
        -12    1    3    3    0    0  0.14258019053E+01  0.10411455152E+02 -0.92436985003E+01  0.13995616150E+02  0.00000000000E+00 0.  1.
</event>
<event>
 7    1  0.1139627E-011  0.5930194E+02  0.7816164E-02  0.1266605E+00
        -11   -1    0    0    0    0  0.00000000000E+00  0.00000000000E+00  0.45593999997E+02  0.45594000000E+02  0.51100000000E-03 0. -1.
         11   -1    0    0    0    0 -0.00000000000E+00 -0.00000000000E+00 -0.45593999997E+02  0.45594000000E+02  0.51100000000E-03 0.  1.
    9900012    2    1    2    0    0  0.15937752892E+02  0.79983246317E+00  0.27605601148E+02  0.59301938563E+02  0.49999990034E+02 0.  0.
        -12    1    1    2    0    0 -0.15937752892E+02 -0.79983246317E+00 -0.27605601148E+02  0.31886061437E+02  0.00000000000E+00 0.  1.
         11    1    3    3    0    0 -0.72789852285E+01 -0.48312602150E+01  0.16407719813E+02  0.18588651671E+02  0.51100000000E-03 0. -1.
        -11    1    3    3    0    0  0.13981902228E+02  0.11206622247E+01 -0.99519558326E+01  0.17198572583E+02  0.51100000000E-03 0.  1.
         12    1    3    3    0    0  0.92348358922E+01  0.45104304535E+01  0.21149837168E+02  0.23514714309E+02  0.00000000000E+00 0. -1.
</event>
<event>
 7    1  0.1139627E-011  0.5930195E+02  0.7816164E-02  0.1266605E+00
        -11   -1    0    0    0    0  0.00000000000E+00  0.00000000000E+00  0.45593999997E+02  0.45594000000E+02  0.51100000000E-03 0.  1.
         11   -1    0    0    0    0 -0.00000000000E+00 -0.00000000000E+00 -0.45593999997E+02  0.45594000000E+02  0.51100000000E-03 0. -1.
    9900012    2    1    2    0    0 -0.17487204998E+01 -0.10392454917E+02 -0.30094172768E+02  0.59301946980E+02  0.50000005384E+02 0.  0.
        -12    1    1    2    0    0  0.17487204998E+01  0.10392454917E+02  0.30094172768E+02  0.31886053020E+02  0.00000000000E+00 0.  1.
         11    1    3    3    0    0  0.16745527477E+02 -0.75978213218E+01 -0.30903089821E+02  0.35960263348E+02  0.51100000000E-03 0. -1.
        -11    1    3    3    0    0 -0.10974156122E+02 -0.68179332886E+01  0.49818400294E+01  0.13846842501E+02  0.51100000000E-03 0.  1.
        -12    1    3    3    0    0 -0.75200918544E+01  0.40232996936E+01 -0.41729229769E+01  0.94948411305E+01  0.00000000000E+00 0.  1.
</event>
<event>
 7    1  0.1139627E-011  0.5930196E+02  0.7816164E-02  0.1266605E+00
        -11   -1    0    0    0    0  0.00000000000E+00  0.00000000000E+00  0.45593999997E+02  0.45594000000E+02  0.51100000000E-03 0. -1.
         11   -1    0    0    0    0 -0.00000000000E+00 -0.00000000000E+00 -0.45593999997E+02  0.45594000000E+02  0.51100000000E-03 0.  1.
    9900012    2    1    2    0    0 -0.30373120825E+00 -0.28685700516E+02 -0.13919704707E+02  0.59301955312E+02  0.50000020580E+02 0.  0.
        -12    1    1    2    0    0  0.30373120825E+00  0.28685700516E+02  0.13919704707E+02  0.31886044688E+02  0.00000000000E+00 0.  1.
         11    1    3    3    0    0  0.96553868413E+01 -0.17163988723E+02  0.14694224204E+02  0.24571309064E+02  0.51100000000E-03 0. -1.
        -11    1    3    3    0    0 -0.59079787099E+01 -0.54472916997E+01 -0.25600015049E+02  0.26831659846E+02  0.51100000000E-03 0.  1.
         12    1    3    3    0    0 -0.40511393397E+01 -0.60744200933E+01 -0.30139138615E+01  0.78989864023E+01  0.00000000000E+00 0. -1.
</event>
<event>
 7    1  0.1139627E-011  0.5930196E+02  0.7816164E-02  0.1266605E+00
        -11   -1    0    0    0    0  0.00000000000E+00  0.00000000000E+00  0.45593999997E+02  0.45594000000E+02  0.51100000000E-03 0. -1.
         11   -1    0    0    0    0 -0.00000000000E+00 -0.00000000000E+00 -0.45593999997E+02  0.45594000000E+02  0.51100000000E-03 0.  1.
    9900012    2    1    2    0    0 -0.74713774152E+01  0.27896946802E+02  0.13515111797E+02  0.59301962801E+02  0.50000034239E+02 0.  0.
        -12    1    1    2    0    0  0.74713774152E+01 -0.27896946802E+02 -0.13515111797E+02  0.31886037199E+02  0.00000000000E+00 0.  1.
         11    1    3    3    0    0 -0.35412821183E+01  0.19180262225E+02  0.29848868599E+02  0.35656389259E+02  0.51100000000E-03 0. -1.
        -11    1    3    3    0    0 -0.67464136907E+01  0.33936613401E+01 -0.15873695556E+01  0.77169150147E+01  0.51100000000E-03 0.  1.
         12    1    3    3    0    0  0.28163183938E+01  0.53230232367E+01 -0.14746387247E+02  0.15928658528E+02  0.00000000000E+00 0. -1.
</event>
<event>
 7    1  0.1139627E-011  0.5930196E+02  0.7816164E-02  0.1266605E+00
        -11   -1    0    0    0    0  0.00000000000E+00  0.00000000000E+00  0.45593999997E+02  0.45594000000E+02  0.51100000000E-03 0.  1.
         11   -1    0    0    0    0 -0.00000000000E+00 -0.00000000000E+00 -0.45593999997E+02  0.45594000000E+02  0.51100000000E-03 0. -1.
    9900012    2    1    2    0    0  0.26858666812E+02 -0.71700215211E+01 -0.15618007294E+02  0.59301963191E+02  0.50000034950E+02 0.  0.
        -12    1    1    2    0    0 -0.26858666812E+02  0.71700215211E+01  0.15618007294E+02  0.31886036809E+02  0.00000000000E+00 0.  1.
         11    1    3    3    0    0  0.26911147366E+02  0.12870345104E+02 -0.10769586737E+02  0.31714974924E+02  0.51100000000E-03 0. -1.
        -11    1    3    3    0    0  0.54977160338E+01 -0.17590455584E+02 -0.87216977707E+01  0.20389139794E+02  0.51100000000E-03 0.  1.
         12    1    3    3    0    0 -0.55501965880E+01 -0.24499110410E+01  0.38732772144E+01  0.71978484740E+01  0.00000000000E+00 0. -1.
</event>
<event>
 7    1  0.1139627E-011  0.5930189E+02  0.7816164E-02  0.1266605E+00
        -11   -1    0    0    0    0  0.00000000000E+00  0.00000000000E+00  0.45593999997E+02  0.45594000000E+02  0.51100000000E-03 0. -1.
         11   -1    0    0    0    0 -0.00000000000E+00 -0.00000000000E+00 -0.45593999997E+02  0.45594000000E+02  0.51100000000E-03 0.  1.
    9900012    2    1    2    0    0 -0.12138528620E+02  0.18672587537E+02  0.22819175325E+02  0.59301887586E+02  0.49999897064E+02 0.  0.
        -12    1    1    2    0    0  0.12138528620E+02 -0.18672587537E+02 -0.22819175325E+02  0.31886112414E+02  0.00000000000E+00 0.  1.
         11    1    3    3    0    0 -0.10194564073E+02 -0.48230393232E+01 -0.33145489605E+01  0.11754874735E+02  0.51100000000E-03 0.  1.
        -11    1    3    3    0    0  0.89303710914E+01  0.26876254857E+02  0.19165571623E+02  0.34196545715E+02  0.51100000000E-03 0. -1.
        -12    1    3    3    0    0 -0.10874335638E+02 -0.33806279969E+01  0.69681526618E+01  0.13350467136E+02  0.00000000000E+00 0.  1.
</event>
<event>
 7    1  0.1139627E-011  0.5930204E+02  0.7816164E-02  0.1266604E+00
        -11   -1    0    0    0    0  0.00000000000E+00  0.00000000000E+00  0.45593999997E+02  0.45594000000E+02  0.51100000000E-03 0.  1.
         11   -1    0    0    0    0 -0.00000000000E+00 -0.00000000000E+00 -0.45593999997E+02  0.45594000000E+02  0.51100000000E-03 0. -1.
    9900012    2    1    2    0    0  0.26651766295E+02 -0.15334264936E+02 -0.84414595225E+01  0.59302038094E+02  0.50000171554E+02 0.  0.
        -12    1    1    2    0    0 -0.26651766295E+02  0.15334264936E+02  0.84414595225E+01  0.31885961906E+02  0.00000000000E+00 0.  1.
         11    1    3    3    0    0  0.35031674207E+02  0.29134550727E+01 -0.10998243243E+02  0.36832971274E+02  0.51100000000E-03 0. -1.
        -11    1    3    3    0    0 -0.47093255310E+01 -0.54331616960E+01  0.52079984723E+01  0.88780764426E+01  0.51100000000E-03 0.  1.
         12    1    3    3    0    0 -0.36705823804E+01 -0.12814558313E+02 -0.26512147516E+01  0.13590990377E+02  0.00000000000E+00 0. -1.
</event>
<event>
 7    1  0.1139627E-011  0.5930195E+02  0.7816164E-02  0.1266605E+00
        -11   -1    0    0    0    0  0.00000000000E+00  0.00000000000E+00  0.45593999997E+02  0.45594000000E+02  0.51100000000E-03 0. -1.
         11   -1    0    0    0    0 -0.00000000000E+00 -0.00000000000E+00 -0.45593999997E+02  0.45594000000E+02  0.51100000000E-03 0.  1.
    9900012    2    1    2    0    0  0.24105367955E+02  0.33648893750E+01  0.20599243421E+02  0.59301951730E+02  0.50000014047E+02 0.  0.
        -12    1    1    2    0    0 -0.24105367955E+02 -0.33648893750E+01 -0.20599243421E+02  0.31886048270E+02  0.00000000000E+00 0.  1.
         11    1    3    3    0    0 -0.44765643970E+01 -0.11428163739E+02  0.17710376930E+02  0.21547621829E+02  0.51100000000E-03 0. -1.
        -11    1    3    3    0    0  0.68565807541E+01  0.12773472958E+02 -0.37001295136E+01  0.14962127848E+02  0.51100000000E-03 0.  1.
         12    1    3    3    0    0  0.21725351598E+02  0.20195801554E+01  0.65889960054E+01  0.22792202053E+02  0.00000000000E+00 0. -1.
</event>
<event>
 7    1  0.1139627E-011  0.5930195E+02  0.7816164E-02  0.1266605E+00
        -11   -1    0    0    0    0  0.00000000000E+00  0.00000000000E+00  0.45593999997E+02  0.45594000000E+02  0.51100000000E-03 0.  1.
         11   -1    0    0    0    0 -0.00000000000E+00 -0.00000000000E+00 -0.45593999997E+02  0.45594000000E+02  0.51100000000E-03 0. -1.
    9900012    2    1    2    0    0 -0.61871581383E+01  0.31277241954E+02  0.41667930043E+00  0.59301946439E+02  0.50000004397E+02 0.  0.
        -12    1    1    2    0    0  0.61871581383E+01 -0.31277241954E+02 -0.41667930043E+00  0.31886053561E+02  0.00000000000E+00 0.  1.
         11    1    3    3    0    0  0.11270847062E+02  0.10956607532E+02 -0.19292039791E+02  0.24884976224E+02  0.51100000000E-03 0. -1.
        -11    1    3    3    0    0 -0.14967923495E+02  0.12227478993E+02  0.10860095995E+02  0.22169611219E+02  0.51100000000E-03 0.  1.
         12    1    3    3    0    0 -0.24900817046E+01  0.80931554278E+01  0.88486230968E+01  0.12247358996E+02  0.00000000000E+00 0. -1.
</event>
<event>
 7    1  0.1139627E-011  0.5930196E+02  0.7816164E-02  0.1266605E+00
        -11   -1    0    0    0    0  0.00000000000E+00  0.00000000000E+00  0.45593999997E+02  0.45594000000E+02  0.51100000000E-03 0.  1.
         11   -1    0    0    0    0 -0.00000000000E+00 -0.00000000000E+00 -0.45593999997E+02  0.45594000000E+02  0.51100000000E-03 0. -1.
    9900012    2    1    2    0    0 -0.14172681039E+02 -0.28431493856E+02 -0.27395423880E+01  0.59301955667E+02  0.50000021228E+02 0.  0.
        -12    1    1    2    0    0  0.14172681039E+02  0.28431493856E+02  0.27395423880E+01  0.31886044333E+02  0.00000000000E+00 0.  1.
         11    1    3    3    0    0  0.13008565911E+01 -0.18537999481E+02  0.14471328093E+01  0.18639845661E+02  0.51100000000E-03 0. -1.
        -11    1    3    3    0    0  0.73235780677E+00  0.23774353135E+01  0.13493878658E+02  0.13721272103E+02  0.51100000000E-03 0.  1.
        -12    1    3    3    0    0 -0.16205895437E+02 -0.12270929688E+02 -0.17680553855E+02  0.26940837903E+02  0.00000000000E+00 0.  1.
</event>
<event>
 7    1  0.1139627E-011  0.5930193E+02  0.7816164E-02  0.1266605E+00
        -11   -1    0    0    0    0  0.00000000000E+00  0.00000000000E+00  0.45593999997E+02  0.45594000000E+02  0.51100000000E-03 0.  1.
         11   -1    0    0    0    0 -0.00000000000E+00 -0.00000000000E+00 -0.45593999997E+02  0.45594000000E+02  0.51100000000E-03 0. -1.
    9900012    2    1    2    0    0  0.29698688957E+02  0.11263558692E+02  0.28002983813E+01  0.59301928571E+02  0.49999971810E+02 0.  0.
        -12    1    1    2    0    0 -0.29698688957E+02 -0.11263558692E+02 -0.28002983813E+01  0.31886071429E+02  0.00000000000E+00 0.  1.
         11    1    3    3    0    0  0.37355635090E+01 -0.46409324131E+01 -0.36868633827E+00  0.59689712907E+01  0.51100000000E-03 0. -1.
        -11    1    3    3    0    0  0.37765284526E+02  0.15445864140E+02 -0.98206195157E+00  0.40813672713E+02  0.51100000000E-03 0.  1.
        -12    1    3    3    0    0 -0.11802159078E+02  0.45862696565E+00  0.41510466711E+01  0.12519284567E+02  0.00000000000E+00 0.  1.
</event>
<event>
 7    1  0.1139627E-011  0.5930194E+02  0.7816164E-02  0.1266605E+00
        -11   -1    0    0    0    0  0.00000000000E+00  0.00000000000E+00  0.45593999997E+02  0.45594000000E+02  0.51100000000E-03 0.  1.
         11   -1    0    0    0    0 -0.00000000000E+00 -0.00000000000E+00 -0.45593999997E+02  0.45594000000E+02  0.51100000000E-03 0. -1.
    9900012    2    1    2    0    0 -0.11786778027E+02  0.24424995672E+02 -0.16769386043E+02  0.59301939440E+02  0.49999991632E+02 0.  0.
        -12    1    1    2    0    0  0.11786778027E+02 -0.24424995672E+02  0.16769386043E+02  0.31886060560E+02  0.00000000000E+00 0.  1.
         11    1    3    3    0    0 -0.98761478446E+01  0.18533179100E+02 -0.31633962347E+02  0.37970048694E+02  0.51100000000E-03 0. -1.
        -11    1    3    3    0    0 -0.94006347284E+00  0.84060834401E+01  0.27098606750E+01  0.88819650570E+01  0.51100000000E-03 0.  1.
         12    1    3    3    0    0 -0.97056670931E+00 -0.25142668681E+01  0.12154715629E+02  0.12449925689E+02  0.00000000000E+00 0. -1.
</event>
<event>
 7    1  0.1139627E-011  0.5930201E+02  0.7816164E-02  0.1266605E+00
        -11   -1    0    0    0    0  0.00000000000E+00  0.00000000000E+00  0.45593999997E+02  0.45594000000E+02  0.51100000000E-03 0.  1.
         11   -1    0    0    0    0 -0.00000000000E+00 -0.00000000000E+00 -0.45593999997E+02  0.45594000000E+02  0.51100000000E-03 0. -1.
    9900012    2    1    2    0    0 -0.20075952261E+02 -0.14990308009E+02 -0.19722147644E+02  0.59302010896E+02  0.50000121952E+02 0.  0.
        -12    1    1    2    0    0  0.20075952261E+02  0.14990308009E+02  0.19722147644E+02  0.31885989104E+02  0.00000000000E+00 0.  1.
         11    1    3    3    0    0  0.82833872227E+01 -0.14129804249E+02 -0.22114492590E+02  0.27519386889E+02  0.51100000000E-03 0. -1.
        -11    1    3    3    0    0 -0.25153262746E+02 -0.57909547744E+01  0.19411074656E+01  0.25884158909E+02  0.51100000000E-03 0.  1.
         12    1    3    3    0    0 -0.32060767380E+01  0.49304510141E+01  0.45123748007E+00  0.58984650983E+01  0.00000000000E+00 0. -1.
</event>
<event>
 7    1  0.1139627E-011  0.5930206E+02  0.7816164E-02  0.1266604E+00
        -11   -1    0    0    0    0  0.00000000000E+00  0.00000000000E+00  0.45593999997E+02  0.45594000000E+02  0.51100000000E-03 0. -1.
         11   -1    0    0    0    0 -0.00000000000E+00 -0.00000000000E+00 -0.45593999997E+02  0.45594000000E+02  0.51100000000E-03 0.  1.
    9900012    2    1    2    0    0  0.99123716401E+01  0.24438060062E+02  0.17923145456E+02  0.59302062125E+02  0.50000215380E+02 0.  0.
        -12    1    1    2    0    0 -0.99123716401E+01 -0.24438060062E+02 -0.17923145456E+02  0.31885937875E+02  0.00000000000E+00 0.  1.
         11    1    3    3    0    0 -0.78508371967E+01 -0.43529737710E+01  0.19241567784E+02  0.21232568295E+02  0.51100000000E-03 0. -1.
        -11    1    3    3    0    0  0.14025632689E+02  0.27482211160E+02  0.43450886412E+01  0.31158788458E+02  0.51100000000E-03 0.  1.
         12    1    3    3    0    0  0.37375761480E+01  0.13088226732E+01 -0.56635109688E+01  0.69107053725E+01  0.00000000000E+00 0. -1.
</event>
<event>
 7    1  0.1139627E-011  0.5930186E+02  0.7816164E-02  0.1266605E+00
        -11   -1    0    0    0    0  0.00000000000E+00  0.00000000000E+00  0.45593999997E+02  0.45594000000E+02  0.51100000000E-03 0.  1.
         11   -1    0    0    0    0 -0.00000000000E+00 -0.00000000000E+00 -0.45593999997E+02  0.45594000000E+02  0.51100000000E-03 0. -1.
    9900012    2    1    2    0    0  0.47446417189E+01 -0.74401942917E+01 -0.30640785751E+02  0.59301860886E+02  0.49999848369E+02 0.  0.
        -12    1    1    2    0    0 -0.47446417189E+01  0.74401942917E+01  0.30640785751E+02  0.31886139114E+02  0.00000000000E+00 0.  1.
         11    1    3    3    0    0  0.51006324583E+00 -0.17334035078E+02 -0.26831456256E+02  0.31947706986E+02  0.51100000000E-03 0. -1.
        -11    1    3    3    0    0 -0.71851732260E+01  0.13340104355E+02 -0.18200264770E+01  0.15260982771E+02  0.51100000000E-03 0.  1.
         12    1    3    3    0    0  0.11419751699E+02 -0.34462635696E+01 -0.19893030189E+01  0.12093171129E+02  0.00000000000E+00 0. -1.
</event>
<event>
 7    1  0.1139627E-011  0.5930205E+02  0.7816164E-02  0.1266604E+00
        -11   -1    0    0    0    0  0.00000000000E+00  0.00000000000E+00  0.45593999997E+02  0.45594000000E+02  0.51100000000E-03 0. -1.
         11   -1    0    0    0    0 -0.00000000000E+00 -0.00000000000E+00 -0.45593999997E+02  0.45594000000E+02  0.51100000000E-03 0.  1.
    9900012    2    1    2    0    0  0.24196593203E+02 -0.10706984473E+02  0.17793235454E+02  0.59302049065E+02  0.50000191562E+02 0.  0.
        -12    1    1    2    0    0 -0.24196593203E+02  0.10706984473E+02 -0.17793235454E+02  0.31885950935E+02  0.00000000000E+00 0.  1.
         11    1    3    3    0    0  0.32038421347E+01  0.57427591475E+01 -0.48217382953E+01  0.81543269189E+01  0.51100000000E-03 0. -1.
        -11    1    3    3    0    0 -0.50383709048E+00 -0.59496097560E-01  0.24070927809E+02  0.24076273745E+02  0.51100000000E-03 0.  1.
         12    1    3    3    0    0  0.21496588158E+02 -0.16390247523E+02 -0.14559540592E+01  0.27071448401E+02  0.00000000000E+00 0. -1.
</event>
<event>
 7    1  0.1139627E-011  0.5930195E+02  0.7816164E-02  0.1266605E+00
        -11   -1    0    0    0    0  0.00000000000E+00  0.00000000000E+00  0.45593999997E+02  0.45594000000E+02  0.51100000000E-03 0.  1.
         11   -1    0    0    0    0 -0.00000000000E+00 -0.00000000000E+00 -0.45593999997E+02  0.45594000000E+02  0.51100000000E-03 0. -1.
    9900012    2    1    2    0    0  0.63273533096E+01 -0.10605339337E+02 -0.29397478531E+02  0.59301947150E+02  0.50000005695E+02 0.  0.
        -12    1    1    2    0    0 -0.63273533096E+01  0.10605339337E+02  0.29397478531E+02  0.31886052850E+02  0.00000000000E+00 0.  1.
         11    1    3    3    0    0  0.14350348163E+02  0.20542104231E+01 -0.34334766527E+02  0.37269672196E+02  0.51100000000E-03 0. -1.
        -11    1    3    3    0    0 -0.11562685612E+02 -0.95729425713E+01 -0.27829903684E+00  0.15013806268E+02  0.51100000000E-03 0.  1.
         12    1    3    3    0    0  0.35396907587E+01 -0.30866071888E+01  0.52155870328E+01  0.70184686863E+01  0.00000000000E+00 0. -1.
</event>
<event>
 7    1  0.1139627E-011  0.5930189E+02  0.7816164E-02  0.1266605E+00
        -11   -1    0    0    0    0  0.00000000000E+00  0.00000000000E+00  0.45593999997E+02  0.45594000000E+02  0.51100000000E-03 0.  1.
         11   -1    0    0    0    0 -0.00000000000E+00 -0.00000000000E+00 -0.45593999997E+02  0.45594000000E+02  0.51100000000E-03 0. -1.
    9900012    2    1    2    0    0 -0.82322615780E+01 -0.10415550745E+02 -0.28990863611E+02  0.59301890157E+02  0.49999901753E+02 0.  0.
        -12    1    1    2    0    0  0.82322615780E+01  0.10415550745E+02  0.28990863611E+02  0.31886109843E+02  0.00000000000E+00 0.  1.
         11    1    3    3    0    0 -0.16650228904E+02 -0.53276224389E+01 -0.25822214483E+02  0.31183336006E+02  0.51100000000E-03 0. -1.
        -11    1    3    3    0    0  0.15543175625E+02 -0.10697982981E+02 -0.22895470658E+01  0.19007345275E+02  0.51100000000E-03 0.  1.
        -12    1    3    3    0    0 -0.71252082988E+01  0.56100546742E+01 -0.87910206155E+00  0.91112088761E+01  0.00000000000E+00 0.  1.
</event>
<event>
 7    1  0.1139627E-011  0.5930196E+02  0.7816164E-02  0.1266605E+00
        -11   -1    0    0    0    0  0.00000000000E+00  0.00000000000E+00  0.45593999997E+02  0.45594000000E+02  0.51100000000E-03 0.  1.
         11   -1    0    0    0    0 -0.00000000000E+00 -0.00000000000E+00 -0.45593999997E+02  0.45594000000E+02  0.51100000000E-03 0. -1.
    9900012    2    1    2    0    0  0.14102454909E+02 -0.26662615451E+02 -0.10341445107E+02  0.59301956281E+02  0.50000022346E+02 0.  0.
        -12    1    1    2    0    0 -0.14102454909E+02  0.26662615451E+02  0.10341445107E+02  0.31886043719E+02  0.00000000000E+00 0.  1.
         11    1    3    3    0    0  0.57264060413E+01 -0.15801243111E+02 -0.15399283367E+02  0.22794932298E+02  0.51100000000E-03 0. -1.
        -11    1    3    3    0    0 -0.74400630598E+01  0.12286238227E+01  0.13036180309E+02  0.15060081413E+02  0.51100000000E-03 0.  1.
         12    1    3    3    0    0  0.15816111928E+02 -0.12089996163E+02 -0.79783420496E+01  0.21446942570E+02  0.00000000000E+00 0. -1.
</event>
<event>
 7    1  0.1139627E-011  0.5930195E+02  0.7816164E-02  0.1266605E+00
        -11   -1    0    0    0    0  0.00000000000E+00  0.00000000000E+00  0.45593999997E+02  0.45594000000E+02  0.51100000000E-03 0.  1.
         11   -1    0    0    0    0 -0.00000000000E+00 -0.00000000000E+00 -0.45593999997E+02  0.45594000000E+02  0.51100000000E-03 0. -1.
    9900012    2    1    2    0    0 -0.63567116594E+01  0.30957255149E+02 -0.42379825191E+01  0.59301954066E+02  0.50000018306E+02 0.  0.
        -12    1    1    2    0    0  0.63567116594E+01 -0.30957255149E+02  0.42379825191E+01  0.31886045934E+02  0.00000000000E+00 0.  1.
         11    1    3    3    0    0  0.67438036319E+01 -0.61079411829E+01  0.41719603820E+01  0.10009549771E+02  0.51100000000E-03 0. -1.
        -11    1    3    3    0    0 -0.16373950797E+02  0.23700498464E+02  0.59387358233E+01  0.29412386431E+02  0.51100000000E-03 0.  1.
         12    1    3    3    0    0  0.32734355058E+01  0.13364697868E+02 -0.14348678724E+02  0.19880017864E+02  0.00000000000E+00 0. -1.
</event>
<event>
 7    1  0.1139627E-011  0.5930195E+02  0.7816164E-02  0.1266605E+00
        -11   -1    0    0    0    0  0.00000000000E+00  0.00000000000E+00  0.45593999997E+02  0.45594000000E+02  0.51100000000E-03 0.  1.
         11   -1    0    0    0    0 -0.00000000000E+00 -0.00000000000E+00 -0.45593999997E+02  0.45594000000E+02  0.51100000000E-03 0. -1.
    9900012    2    1    2    0    0  0.17562365286E+02  0.15645167429E+02 -0.21529327176E+02  0.59301954981E+02  0.50000019976E+02 0.  0.
        -12    1    1    2    0    0 -0.17562365286E+02 -0.15645167429E+02  0.21529327176E+02  0.31886045019E+02  0.00000000000E+00 0.  1.
         11    1    3    3    0    0  0.56238518172E+01 -0.49760263887E+01 -0.13947367740E+02  0.15840379257E+02  0.51100000000E-03 0. -1.
        -11    1    3    3    0    0  0.75514819814E-01  0.28374926744E+02 -0.28386036206E+01  0.28516659008E+02  0.51100000000E-03 0.  1.
        -12    1    3    3    0    0  0.11862998649E+02 -0.77537329266E+01 -0.47433558158E+01  0.14944916715E+02  0.00000000000E+00 0.  1.
</event>
<event>
 7    1  0.1139627E-011  0.5930196E+02  0.7816164E-02  0.1266605E+00
        -11   -1    0    0    0    0  0.00000000000E+00  0.00000000000E+00  0.45593999997E+02  0.45594000000E+02  0.51100000000E-03 0.  1.
         11   -1    0    0    0    0 -0.00000000000E+00 -0.00000000000E+00 -0.45593999997E+02  0.45594000000E+02  0.51100000000E-03 0. -1.
    9900012    2    1    2    0    0  0.17768524811E+02 -0.25274691865E+02 -0.78859921723E+01  0.59301962376E+02  0.50000033463E+02 0.  0.
        -12    1    1    2    0    0 -0.17768524811E+02  0.25274691865E+02  0.78859921723E+01  0.31886037624E+02  0.00000000000E+00 0.  1.
         11    1    3    3    0    0  0.99868964682E+01 -0.31377901981E+02 -0.85394149645E+00  0.32939946116E+02  0.51100000000E-03 0. -1.
        -11    1    3    3    0    0 -0.47281394251E+01  0.25000429116E+01 -0.11431162799E+02  0.12620499205E+02  0.51100000000E-03 0.  1.
         12    1    3    3    0    0  0.12509767768E+02  0.36031672048E+01  0.43991121232E+01  0.13741517055E+02  0.00000000000E+00 0. -1.
</event>
<event>
 7    1  0.1139627E-011  0.5930193E+02  0.7816164E-02  0.1266605E+00
        -11   -1    0    0    0    0  0.00000000000E+00  0.00000000000E+00  0.45593999997E+02  0.45594000000E+02  0.51100000000E-03 0.  1.
         11   -1    0    0    0    0 -0.00000000000E+00 -0.00000000000E+00 -0.45593999997E+02  0.45594000000E+02  0.51100000000E-03 0. -1.
    9900012    2    1    2    0    0 -0.22427772986E+02  0.52685049386E+01  0.22044482190E+02  0.59301931876E+02  0.49999977838E+02 0.  0.
        -12    1    1    2    0    0  0.22427772986E+02 -0.52685049386E+01 -0.22044482190E+02  0.31886068124E+02  0.00000000000E+00 0.  1.
         11    1    3    3    0    0 -0.91076808639E+01 -0.72436263378E+01  0.32856335026E+02  0.34856258044E+02  0.51100000000E-03 0.  1.
        -11    1    3    3    0    0 -0.40735817557E+01  0.91679501260E+01 -0.27833641088E+00  0.10036077384E+02  0.51100000000E-03 0. -1.
         12    1    3    3    0    0 -0.92465103661E+01  0.33441811504E+01 -0.10533516425E+02  0.14409596448E+02  0.00000000000E+00 0. -1.
</event>
<event>
 7    1  0.1139627E-011  0.5930168E+02  0.7816164E-02  0.1266606E+00
        -11   -1    0    0    0    0  0.00000000000E+00  0.00000000000E+00  0.45593999997E+02  0.45594000000E+02  0.51100000000E-03 0.  1.
         11   -1    0    0    0    0 -0.00000000000E+00 -0.00000000000E+00 -0.45593999997E+02  0.45594000000E+02  0.51100000000E-03 0. -1.
    9900012    2    1    2    0    0 -0.53304860400E+01  0.26629679911E+02 -0.16708783187E+02  0.59301680532E+02  0.49999519446E+02 0.  0.
        -12    1    1    2    0    0  0.53304860400E+01 -0.26629679911E+02  0.16708783187E+02  0.31886319468E+02  0.00000000000E+00 0.  1.
         11    1    3    3    0    0 -0.73014511860E+01  0.12677363446E+02 -0.21669761690E+02  0.26145846809E+02  0.51100000000E-03 0. -1.
        -11    1    3    3    0    0  0.12251371028E+02  0.96183698758E+01  0.12261356357E+02  0.19822966254E+02  0.51100000000E-03 0.  1.
        -12    1    3    3    0    0 -0.10280405882E+02  0.43339465894E+01 -0.73003778537E+01  0.13332867469E+02  0.00000000000E+00 0.  1.
</event>
<event>
 7    1  0.1139627E-011  0.5930193E+02  0.7816164E-02  0.1266605E+00
        -11   -1    0    0    0    0  0.00000000000E+00  0.00000000000E+00  0.45593999997E+02  0.45594000000E+02  0.51100000000E-03 0. -1.
         11   -1    0    0    0    0 -0.00000000000E+00 -0.00000000000E+00 -0.45593999997E+02  0.45594000000E+02  0.51100000000E-03 0.  1.
    9900012    2    1    2    0    0  0.22586177030E+02 -0.20634936289E+02  0.89880736361E+01  0.59301930060E+02  0.49999974527E+02 0.  0.
        -12    1    1    2    0    0 -0.22586177030E+02  0.20634936289E+02 -0.89880736361E+01  0.31886069940E+02  0.00000000000E+00 0.  1.
         11    1    3    3    0    0  0.12227579987E+02  0.16183708652E+01  0.11972105964E+02  0.17189070890E+02  0.51100000000E-03 0.  1.
        -11    1    3    3    0    0  0.20292752810E+02 -0.22890106597E+02  0.25977476350E+01  0.30700180612E+02  0.51100000000E-03 0. -1.
        -12    1    3    3    0    0 -0.99341557660E+01  0.63679944220E+00 -0.55817799628E+01  0.11412678558E+02  0.00000000000E+00 0.  1.
</event>
<event>
 7    1  0.1139627E-011  0.5930196E+02  0.7816164E-02  0.1266605E+00
        -11   -1    0    0    0    0  0.00000000000E+00  0.00000000000E+00  0.45593999997E+02  0.45594000000E+02  0.51100000000E-03 0.  1.
         11   -1    0    0    0    0 -0.00000000000E+00 -0.00000000000E+00 -0.45593999997E+02  0.45594000000E+02  0.51100000000E-03 0. -1.
    9900012    2    1    2    0    0 -0.74744860933E+01 -0.20094895109E+02 -0.23601844910E+02  0.59301955483E+02  0.50000020891E+02 0.  0.
        -12    1    1    2    0    0  0.74744860933E+01  0.20094895109E+02  0.23601844910E+02  0.31886044517E+02  0.00000000000E+00 0.  1.
         11    1    3    3    0    0  0.11260889021E+02 -0.63318125827E+01 -0.43265855638E+01  0.13624199611E+02  0.51100000000E-03 0.  1.
        -11    1    3    3    0    0 -0.27837452376E+02 -0.12596786677E+02 -0.88959604027E+01  0.31823590324E+02  0.51100000000E-03 0. -1.
        -12    1    3    3    0    0  0.91020772617E+01 -0.11662958500E+01 -0.10379298943E+02  0.13854165548E+02  0.00000000000E+00 0.  1.
</event>
<event>
 7    1  0.1139627E-011  0.5930194E+02  0.7816164E-02  0.1266605E+00
        -11   -1    0    0    0    0  0.00000000000E+00  0.00000000000E+00  0.45593999997E+02  0.45594000000E+02  0.51100000000E-03 0.  1.
         11   -1    0    0    0    0 -0.00000000000E+00 -0.00000000000E+00 -0.45593999997E+02  0.45594000000E+02  0.51100000000E-03 0. -1.
    9900012    2    1    2    0    0  0.19779907707E+02  0.20848031753E+02 -0.13814317750E+02  0.59301944243E+02  0.50000000393E+02 0.  0.
        -12    1    1    2    0    0 -0.19779907707E+02 -0.20848031753E+02  0.13814317750E+02  0.31886055757E+02  0.00000000000E+00 0.  1.
         11    1    3    3    0    0 -0.11737180842E+02  0.18864608678E+02  0.44412470789E+01  0.22657439188E+02  0.51100000000E-03 0. -1.
        -11    1    3    3    0    0  0.25533070665E+02  0.28964066914E+01 -0.15319252590E+02  0.29916657057E+02  0.51100000000E-03 0.  1.
         12    1    3    3    0    0  0.59840178832E+01 -0.91298361704E+00 -0.29363122388E+01  0.67278479973E+01  0.00000000000E+00 0. -1.
</event>
<event>
 7    1  0.1139627E-011  0.5930195E+02  0.7816164E-02  0.1266605E+00
        -11   -1    0    0    0    0  0.00000000000E+00  0.00000000000E+00  0.45593999997E+02  0.45594000000E+02  0.51100000000E-03 0.  1.
         11   -1    0    0    0    0 -0.00000000000E+00 -0.00000000000E+00 -0.45593999997E+02  0.45594000000E+02  0.51100000000E-03 0. -1.
    9900012    2    1    2    0    0 -0.29269527551E+02 -0.29081440762E+01 -0.12310879327E+02  0.59301948272E+02  0.50000007740E+02 0.  0.
        -12    1    1    2    0    0  0.29269527551E+02  0.29081440762E+01  0.12310879327E+02  0.31886051728E+02  0.00000000000E+00 0.  1.
         11    1    3    3    0    0 -0.26101469100E+02 -0.12761119750E+02 -0.15688502336E+02  0.33019115255E+02  0.51100000000E-03 0. -1.
        -11    1    3    3    0    0 -0.12398465714E+02  0.11232293626E+02  0.20043549179E+01  0.16849445423E+02  0.51100000000E-03 0.  1.
         12    1    3    3    0    0  0.92304072625E+01 -0.13793179524E+01  0.13732680913E+01  0.94333875939E+01  0.00000000000E+00 0. -1.
</event>
<event>
 7    1  0.1139627E-011  0.5930195E+02  0.7816164E-02  0.1266605E+00
        -11   -1    0    0    0    0  0.00000000000E+00  0.00000000000E+00  0.45593999997E+02  0.45594000000E+02  0.51100000000E-03 0.  1.
         11   -1    0    0    0    0 -0.00000000000E+00 -0.00000000000E+00 -0.45593999997E+02  0.45594000000E+02  0.51100000000E-03 0. -1.
    9900012    2    1    2    0    0 -0.19345304728E+02  0.24872215412E+02 -0.48839024327E+01  0.59301946348E+02  0.50000004232E+02 0.  0.
        -12    1    1    2    0    0  0.19345304728E+02 -0.24872215412E+02  0.48839024327E+01  0.31886053652E+02  0.00000000000E+00 0.  1.
         11    1    3    3    0    0 -0.18450065416E+01 -0.55765719075E+01 -0.12893024192E+02  0.14168001851E+02  0.51100000000E-03 0. -1.
        -11    1    3    3    0    0 -0.22849183356E+02  0.30612677914E+02  0.39225271474E+01  0.38400617815E+02  0.51100000000E-03 0.  1.
        -12    1    3    3    0    0  0.53488851698E+01 -0.16389059473E+00  0.40865946119E+01  0.67333266821E+01  0.00000000000E+00 0.  1.
</event>
<event>
 7    1  0.1139627E-011  0.5930196E+02  0.7816164E-02  0.1266605E+00
        -11   -1    0    0    0    0  0.00000000000E+00  0.00000000000E+00  0.45593999997E+02  0.45594000000E+02  0.51100000000E-03 0.  1.
         11   -1    0    0    0    0 -0.00000000000E+00 -0.00000000000E+00 -0.45593999997E+02  0.45594000000E+02  0.51100000000E-03 0. -1.
    9900012    2    1    2    0    0 -0.25949614935E+01  0.31375911139E+02 -0.50535254056E+01  0.59301956909E+02  0.50000023492E+02 0.  0.
        -12    1    1    2    0    0  0.25949614935E+01 -0.31375911139E+02  0.50535254056E+01  0.31886043091E+02  0.00000000000E+00 0.  1.
         11    1    3    3    0    0  0.65122297170E+01 -0.50881433606E+01 -0.17614350283E+01  0.84499107903E+01  0.51100000000E-03 0. -1.
        -11    1    3    3    0    0 -0.21473906024E+02  0.22335596467E+02 -0.68735188217E+01  0.31737245796E+02  0.51100000000E-03 0.  1.
        -12    1    3    3    0    0  0.12366714814E+02  0.14128458033E+02  0.35814284443E+01  0.19114800322E+02  0.00000000000E+00 0.  1.
</event>
<event>
 7    1  0.1139627E-011  0.5930194E+02  0.7816164E-02  0.1266605E+00
        -11   -1    0    0    0    0  0.00000000000E+00  0.00000000000E+00  0.45593999997E+02  0.45594000000E+02  0.51100000000E-03 0. -1.
         11   -1    0    0    0    0 -0.00000000000E+00 -0.00000000000E+00 -0.45593999997E+02  0.45594000000E+02  0.51100000000E-03 0.  1.
    9900012    2    1    2    0    0  0.11456540096E+02  0.29583868627E+02 -0.32036147535E+01  0.59301941269E+02  0.49999994969E+02 0.  0.
        -12    1    1    2    0    0 -0.11456540096E+02 -0.29583868627E+02  0.32036147535E+01  0.31886058731E+02  0.00000000000E+00 0.  1.
         11    1    3    3    0    0 -0.32402234119E+01  0.33826237491E+02 -0.99308575581E+01  0.35402476222E+02  0.51100000000E-03 0. -1.
        -11    1    3    3    0    0  0.17052255878E+02  0.23828755262E-01  0.80397751745E+01  0.18852532548E+02  0.51100000000E-03 0.  1.
         12    1    3    3    0    0 -0.23554923704E+01 -0.42661976188E+01 -0.13125323699E+01  0.50469324993E+01  0.00000000000E+00 0. -1.
</event>
<event>
 7    1  0.1139627E-011  0.5930197E+02  0.7816164E-02  0.1266605E+00
        -11   -1    0    0    0    0  0.00000000000E+00  0.00000000000E+00  0.45593999997E+02  0.45594000000E+02  0.51100000000E-03 0. -1.
         11   -1    0    0    0    0 -0.00000000000E+00 -0.00000000000E+00 -0.45593999997E+02  0.45594000000E+02  0.51100000000E-03 0.  1.
    9900012    2    1    2    0    0  0.12044570083E+02  0.27638523088E+02  0.10380730913E+02  0.59301965420E+02  0.50000039014E+02 0.  0.
        -12    1    1    2    0    0 -0.12044570083E+02 -0.27638523088E+02 -0.10380730913E+02  0.31886034580E+02  0.00000000000E+00 0.  1.
         11    1    3    3    0    0  0.14338952967E+02 -0.35275077018E+01 -0.99523616081E+01  0.17807256515E+02  0.51100000000E-03 0. -1.
        -11    1    3    3    0    0 -0.74116644977E+01  0.29635360687E+02  0.15341419581E+02  0.34184009839E+02  0.51100000000E-03 0.  1.
        -12    1    3    3    0    0  0.51172816145E+01  0.15306701026E+01  0.49916729398E+01  0.73106990652E+01  0.00000000000E+00 0.  1.
</event>
<event>
 7    1  0.1139627E-011  0.5930196E+02  0.7816164E-02  0.1266605E+00
        -11   -1    0    0    0    0  0.00000000000E+00  0.00000000000E+00  0.45593999997E+02  0.45594000000E+02  0.51100000000E-03 0.  1.
         11   -1    0    0    0    0 -0.00000000000E+00 -0.00000000000E+00 -0.45593999997E+02  0.45594000000E+02  0.51100000000E-03 0. -1.
    9900012    2    1    2    0    0 -0.10739100076E+02  0.18557912826E+02  0.23600743031E+02  0.59301961198E+02  0.50000031314E+02 0.  0.
        -12    1    1    2    0    0  0.10739100076E+02 -0.18557912826E+02 -0.23600743031E+02  0.31886038802E+02  0.00000000000E+00 0.  1.
         11    1    3    3    0    0 -0.16177571584E+02  0.88774122904E+01 -0.31005154719E+01  0.18711907113E+02  0.51100000000E-03 0. -1.
        -11    1    3    3    0    0 -0.32163159868E+01  0.37559009687E+00  0.27657467939E+02  0.27846387369E+02  0.51100000000E-03 0.  1.
        -12    1    3    3    0    0  0.86547874954E+01  0.93049104391E+01 -0.95620943686E+00  0.12743666716E+02  0.00000000000E+00 0.  1.
</event>
<event>
 7    1  0.1139627E-011  0.5930179E+02  0.7816164E-02  0.1266605E+00
        -11   -1    0    0    0    0  0.00000000000E+00  0.00000000000E+00  0.45593999997E+02  0.45594000000E+02  0.51100000000E-03 0.  1.
         11   -1    0    0    0    0 -0.00000000000E+00 -0.00000000000E+00 -0.45593999997E+02  0.45594000000E+02  0.51100000000E-03 0. -1.
    9900012    2    1    2    0    0 -0.24311374848E+02 -0.19734468287E+02  0.60198266365E+01  0.59301788273E+02  0.49999715940E+02 0.  0.
        -12    1    1    2    0    0  0.24311374848E+02  0.19734468287E+02 -0.60198266365E+01  0.31886211727E+02  0.00000000000E+00 0.  1.
         11    1    3    3    0    0  0.64223427582E+01  0.81643379018E+01 -0.31327710850E+01  0.10849753675E+02  0.51100000000E-03 0.  1.
        -11    1    3    3    0    0 -0.14632896577E+02 -0.23639423442E+02  0.13970316535E+02  0.31114526306E+02  0.51100000000E-03 0. -1.
         12    1    3    3    0    0 -0.16100821030E+02 -0.42593827468E+01 -0.48177188138E+01  0.17337508292E+02  0.00000000000E+00 0. -1.
</event>
<event>
 7    1  0.1139627E-011  0.5930193E+02  0.7816164E-02  0.1266605E+00
        -11   -1    0    0    0    0  0.00000000000E+00  0.00000000000E+00  0.45593999997E+02  0.45594000000E+02  0.51100000000E-03 0. -1.
         11   -1    0    0    0    0 -0.00000000000E+00 -0.00000000000E+00 -0.45593999997E+02  0.45594000000E+02  0.51100000000E-03 0.  1.
    9900012    2    1    2    0    0  0.45853040257E+01 -0.14944274140E+02  0.27791453390E+02  0.59301933700E+02  0.49999981165E+02 0.  0.
        -12    1    1    2    0    0 -0.45853040257E+01  0.14944274140E+02 -0.27791453390E+02  0.31886066300E+02  0.00000000000E+00 0.  1.
         11    1    3    3    0    0 -0.86351620780E+01  0.21477980936E+01 -0.85833230410E+01  0.12363352921E+02  0.51100000000E-03 0. -1.
        -11    1    3    3    0    0  0.12135299366E+02 -0.15853743090E+02  0.13721939463E+02  0.24225983645E+02  0.51100000000E-03 0.  1.
         12    1    3    3    0    0  0.10851667378E+01 -0.12383291437E+01  0.22652836967E+02  0.22712597134E+02  0.00000000000E+00 0. -1.
</event>
<event>
 7    1  0.1139627E-011  0.5930195E+02  0.7816164E-02  0.1266605E+00
        -11   -1    0    0    0    0  0.00000000000E+00  0.00000000000E+00  0.45593999997E+02  0.45594000000E+02  0.51100000000E-03 0.  1.
         11   -1    0    0    0    0 -0.00000000000E+00 -0.00000000000E+00 -0.45593999997E+02  0.45594000000E+02  0.51100000000E-03 0. -1.
    9900012    2    1    2    0    0 -0.24403929523E+02 -0.13380482135E+01 -0.20478726273E+02  0.59301946952E+02  0.50000005333E+02 0.  0.
        -12    1    1    2    0    0  0.24403929523E+02  0.13380482135E+01  0.20478726273E+02  0.31886053048E+02  0.00000000000E+00 0.  1.
         11    1    3    3    0    0 -0.13378949630E+02  0.13473703155E+01 -0.30012478473E+02  0.32887088109E+02  0.51100000000E-03 0. -1.
        -11    1    3    3    0    0 -0.11007867948E+02 -0.59981467030E+01  0.15290812591E+02  0.19772705191E+02  0.51100000000E-03 0.  1.
        -12    1    3    3    0    0 -0.17111945239E-01  0.33127281741E+01 -0.57570603917E+01  0.66421536513E+01  0.00000000000E+00 0.  1.
</event>
<event>
 7    1  0.1139627E-011  0.5930195E+02  0.7816164E-02  0.1266605E+00
        -11   -1    0    0    0    0  0.00000000000E+00  0.00000000000E+00  0.45593999997E+02  0.45594000000E+02  0.51100000000E-03 0.  1.
         11   -1    0    0    0    0 -0.00000000000E+00 -0.00000000000E+00 -0.45593999997E+02  0.45594000000E+02  0.51100000000E-03 0. -1.
    9900012    2    1    2    0    0 -0.25330591820E+02  0.19210978609E+02 -0.24535199684E+01  0.59301947543E+02  0.50000006410E+02 0.  0.
        -12    1    1    2    0    0  0.25330591820E+02 -0.19210978609E+02  0.24535199684E+01  0.31886052457E+02  0.00000000000E+00 0.  1.
         11    1    3    3    0    0 -0.15755492143E+02 -0.89930536643E+01 -0.63894791751E+01  0.19233720162E+02  0.51100000000E-03 0. -1.
        -11    1    3    3    0    0 -0.14694453171E+02  0.20435435908E+02 -0.65914300521E+01  0.26018857491E+02  0.51100000000E-03 0.  1.
         12    1    3    3    0    0  0.51193534939E+01  0.77685963654E+01  0.10527389259E+02  0.14049369889E+02  0.00000000000E+00 0. -1.
</event>
<event>
 7    1  0.1139627E-011  0.5930194E+02  0.7816164E-02  0.1266605E+00
        -11   -1    0    0    0    0  0.00000000000E+00  0.00000000000E+00  0.45593999997E+02  0.45594000000E+02  0.51100000000E-03 0.  1.
         11   -1    0    0    0    0 -0.00000000000E+00 -0.00000000000E+00 -0.45593999997E+02  0.45594000000E+02  0.51100000000E-03 0. -1.
    9900012    2    1    2    0    0 -0.21038029303E+02  0.59874631424E+01 -0.23200693260E+02  0.59301944120E+02  0.50000000169E+02 0.  0.
        -12    1    1    2    0    0  0.21038029303E+02 -0.59874631424E+01  0.23200693260E+02  0.31886055880E+02  0.00000000000E+00 0.  1.
         11    1    3    3    0    0 -0.14800885373E+02  0.15499613042E+01 -0.27267760275E+02  0.31064438488E+02  0.51100000000E-03 0. -1.
        -11    1    3    3    0    0 -0.96708819757E+01  0.13864654672E+02  0.61541933277E+01  0.17989683241E+02  0.51100000000E-03 0.  1.
         12    1    3    3    0    0  0.34337380462E+01 -0.94271528334E+01 -0.20871263128E+01  0.10247822391E+02  0.00000000000E+00 0. -1.
</event>
<event>
 7    1  0.1139627E-011  0.5930194E+02  0.7816164E-02  0.1266605E+00
        -11   -1    0    0    0    0  0.00000000000E+00  0.00000000000E+00  0.45593999997E+02  0.45594000000E+02  0.51100000000E-03 0. -1.
         11   -1    0    0    0    0 -0.00000000000E+00 -0.00000000000E+00 -0.45593999997E+02  0.45594000000E+02  0.51100000000E-03 0.  1.
    9900012    2    1    2    0    0  0.51178393655E+01  0.57295181497E+01  0.30946745253E+02  0.59301941922E+02  0.49999996160E+02 0.  0.
        -12    1    1    2    0    0 -0.51178393655E+01 -0.57295181497E+01 -0.30946745253E+02  0.31886058078E+02  0.00000000000E+00 0.  1.
         11    1    3    3    0    0  0.12577032981E+02 -0.12124003706E+01  0.20794086005E+02  0.24331988951E+02  0.51100000000E-03 0. -1.
        -11    1    3    3    0    0 -0.16396323986E+02  0.13277541149E+02  0.17634763793E+01  0.21171735603E+02  0.51100000000E-03 0.  1.
        -12    1    3    3    0    0  0.89371303705E+01 -0.63356226288E+01  0.83891828680E+01  0.13798217368E+02  0.00000000000E+00 0.  1.
</event>
<event>
 7    1  0.1139627E-011  0.5930195E+02  0.7816164E-02  0.1266605E+00
        -11   -1    0    0    0    0  0.00000000000E+00  0.00000000000E+00  0.45593999997E+02  0.45594000000E+02  0.51100000000E-03 0.  1.
         11   -1    0    0    0    0 -0.00000000000E+00 -0.00000000000E+00 -0.45593999997E+02  0.45594000000E+02  0.51100000000E-03 0. -1.
    9900012    2    1    2    0    0 -0.18127679065E+02 -0.10667261452E+02 -0.23964914393E+02  0.59301947610E+02  0.50000006534E+02 0.  0.
        -12    1    1    2    0    0  0.18127679065E+02  0.10667261452E+02  0.23964914393E+02  0.31886052390E+02  0.00000000000E+00 0.  1.
         11    1    3    3    0    0 -0.40950375075E+01  0.10857058175E+02 -0.78670401295E+01  0.14019107142E+02  0.51100000000E-03 0. -1.
        -11    1    3    3    0    0 -0.13305175674E+01 -0.23573200314E+02  0.12974217916E+01  0.23646339116E+02  0.51100000000E-03 0.  1.
        -12    1    3    3    0    0 -0.12702123990E+02  0.20488806872E+01 -0.17395296055E+02  0.21636501352E+02  0.00000000000E+00 0.  1.
</event>
<event>
 7    1  0.1139627E-011  0.5930193E+02  0.7816164E-02  0.1266605E+00
        -11   -1    0    0    0    0  0.00000000000E+00  0.00000000000E+00  0.45593999997E+02  0.45594000000E+02  0.51100000000E-03 0.  1.
         11   -1    0    0    0    0 -0.00000000000E+00 -0.00000000000E+00 -0.45593999997E+02  0.45594000000E+02  0.51100000000E-03 0. -1.
    9900012    2    1    2    0    0 -0.10224289270E+02 -0.18761801913E+02 -0.23668124173E+02  0.59301930879E+02  0.49999976020E+02 0.  0.
        -12    1    1    2    0    0  0.10224289270E+02  0.18761801913E+02  0.23668124173E+02  0.31886069121E+02  0.00000000000E+00 0.  1.
         11    1    3    3    0    0  0.17520509191E+02 -0.97316426099E+00 -0.54156847757E+01  0.18364229710E+02  0.51100000000E-03 0. -1.
        -11    1    3    3    0    0 -0.13776829186E+02 -0.33120250793E+01 -0.14867934673E+02  0.20538403401E+02  0.51100000000E-03 0.  1.
         12    1    3    3    0    0 -0.13967969274E+02 -0.14476612573E+02 -0.33845047252E+01  0.20399297769E+02  0.00000000000E+00 0. -1.
</event>
<event>
 7    1  0.1139627E-011  0.5930192E+02  0.7816164E-02  0.1266605E+00
        -11   -1    0    0    0    0  0.00000000000E+00  0.00000000000E+00  0.45593999997E+02  0.45594000000E+02  0.51100000000E-03 0. -1.
         11   -1    0    0    0    0 -0.00000000000E+00 -0.00000000000E+00 -0.45593999997E+02  0.45594000000E+02  0.51100000000E-03 0.  1.
    9900012    2    1    2    0    0  0.27835063316E+02  0.15444937264E+02  0.18399640628E+01  0.59301916756E+02  0.49999950262E+02 0.  0.
        -12    1    1    2    0    0 -0.27835063316E+02 -0.15444937264E+02 -0.18399640628E+01  0.31886083244E+02  0.00000000000E+00 0.  1.
         11    1    3    3    0    0  0.35217919793E+02  0.15513306431E+02  0.38439611387E+01  0.38674805603E+02  0.51100000000E-03 0. -1.
        -11    1    3    3    0    0  0.17631782279E+01 -0.48120573962E+01  0.57721288624E+01  0.77189484850E+01  0.51100000000E-03 0.  1.
         12    1    3    3    0    0 -0.91460347045E+01  0.47436882294E+01 -0.77761259383E+01  0.12908162667E+02  0.00000000000E+00 0. -1.
</event>
<event>
 7    1  0.1139627E-011  0.5930190E+02  0.7816164E-02  0.1266605E+00
        -11   -1    0    0    0    0  0.00000000000E+00  0.00000000000E+00  0.45593999997E+02  0.45594000000E+02  0.51100000000E-03 0.  1.
         11   -1    0    0    0    0 -0.00000000000E+00 -0.00000000000E+00 -0.45593999997E+02  0.45594000000E+02  0.51100000000E-03 0. -1.
    9900012    2    1    2    0    0 -0.12887429872E+02  0.28616401574E+02  0.56337586317E+01  0.59301897634E+02  0.49999915389E+02 0.  0.
        -12    1    1    2    0    0  0.12887429872E+02 -0.28616401574E+02 -0.56337586317E+01  0.31886102366E+02  0.00000000000E+00 0.  1.
         11    1    3    3    0    0 -0.23704914479E+02  0.20695389481E+02 -0.39525563397E+01  0.31715056647E+02  0.51100000000E-03 0. -1.
        -11    1    3    3    0    0  0.16153996786E+02  0.58171946398E+01  0.12418164230E+02  0.21189671275E+02  0.51100000000E-03 0.  1.
        -12    1    3    3    0    0 -0.53365121784E+01  0.21038174538E+01 -0.28318492585E+01  0.63971697126E+01  0.00000000000E+00 0.  1.
</event>
<event>
 7    1  0.1139627E-011  0.5930193E+02  0.7816164E-02  0.1266605E+00
        -11   -1    0    0    0    0  0.00000000000E+00  0.00000000000E+00  0.45593999997E+02  0.45594000000E+02  0.51100000000E-03 0.  1.
         11   -1    0    0    0    0 -0.00000000000E+00 -0.00000000000E+00 -0.45593999997E+02  0.45594000000E+02  0.51100000000E-03 0. -1.
    9900012    2    1    2    0    0 -0.12600380667E+02  0.24677534725E+02 -0.15778809678E+02  0.59301934895E+02  0.49999983343E+02 0.  0.
        -12    1    1    2    0    0  0.12600380667E+02 -0.24677534725E+02  0.15778809678E+02  0.31886065105E+02  0.00000000000E+00 0.  1.
         11    1    3    3    0    0 -0.70286725737E+00 -0.32605582461E+01  0.11441078573E+02  0.11917363032E+02  0.51100000000E-03 0.  1.
        -11    1    3    3    0    0 -0.13999877980E+02  0.26663523058E+02 -0.12743195231E+02  0.32700597400E+02  0.51100000000E-03 0. -1.
         12    1    3    3    0    0  0.21023645705E+01  0.12745699129E+01 -0.14476693020E+02  0.14683974463E+02  0.00000000000E+00 0. -1.
</event>
<event>
 7    1  0.1139627E-011  0.5930188E+02  0.7816164E-02  0.1266605E+00
        -11   -1    0    0    0    0  0.00000000000E+00  0.00000000000E+00  0.45593999997E+02  0.45594000000E+02  0.51100000000E-03 0.  1.
         11   -1    0    0    0    0 -0.00000000000E+00 -0.00000000000E+00 -0.45593999997E+02  0.45594000000E+02  0.51100000000E-03 0. -1.
    9900012    2    1    2    0    0 -0.11826754226E+02  0.24576654887E+02  0.16517883409E+02  0.59301881496E+02  0.49999885956E+02 0.  0.
        -12    1    1    2    0    0  0.11826754226E+02 -0.24576654887E+02 -0.16517883409E+02  0.31886118504E+02  0.00000000000E+00 0.  1.
         11    1    3    3    0    0  0.32690087362E+01 -0.76464769606E+01  0.13546256517E+02  0.15895159449E+02  0.51100000000E-03 0.  1.
        -11    1    3    3    0    0 -0.12732666941E+02  0.10713819250E+02 -0.87461420640E+01  0.18798982197E+02  0.51100000000E-03 0. -1.
         12    1    3    3    0    0 -0.23630960207E+01  0.21509312597E+02  0.11717768956E+02  0.24607739850E+02  0.00000000000E+00 0. -1.
</event>
<event>
 7    1  0.1139627E-011  0.5930205E+02  0.7816164E-02  0.1266604E+00
        -11   -1    0    0    0    0  0.00000000000E+00  0.00000000000E+00  0.45593999997E+02  0.45594000000E+02  0.51100000000E-03 0.  1.
         11   -1    0    0    0    0 -0.00000000000E+00 -0.00000000000E+00 -0.45593999997E+02  0.45594000000E+02  0.51100000000E-03 0. -1.
    9900012    2    1    2    0    0 -0.19643487638E+02 -0.40447142157E+01 -0.24788856994E+02  0.59302050889E+02  0.50000194889E+02 0.  0.
        -12    1    1    2    0    0  0.19643487638E+02  0.40447142157E+01  0.24788856994E+02  0.31885949111E+02  0.00000000000E+00 0.  1.
         11    1    3    3    0    0 -0.80667560731E+01  0.11579972927E+02  0.23789207088E+01  0.14311798997E+02  0.51100000000E-03 0. -1.
        -11    1    3    3    0    0  0.20951766365E+01 -0.84373163885E+01 -0.28200154763E+02  0.29509774683E+02  0.51100000000E-03 0.  1.
         12    1    3    3    0    0 -0.13671908201E+02 -0.71873707542E+01  0.10323770602E+01  0.15480477209E+02  0.00000000000E+00 0. -1.
</event>
<event>
 7    1  0.2321069E-011  0.5930194E+02  0.7816164E-02  0.1266605E+00
        -11   -1    0    0    0    0  0.00000000000E+00  0.00000000000E+00  0.45593999997E+02  0.45594000000E+02  0.51100000000E-03 0. -1.
         11   -1    0    0    0    0 -0.00000000000E+00 -0.00000000000E+00 -0.45593999997E+02  0.45594000000E+02  0.51100000000E-03 0.  1.
    9900012    2    1    2    0    0 -0.22444197622E+02 -0.10804588615E+01  0.22623252518E+02  0.59301937955E+02  0.49999988925E+02 0.  0.
        -12    1    1    2    0    0  0.22444197622E+02  0.10804588615E+01 -0.22623252518E+02  0.31886062045E+02  0.00000000000E+00 0.  1.
         11    1    3    3    0    0 -0.27438293528E+02  0.38112723270E+01  0.28954839811E+02  0.40072041341E+02  0.51100000000E-03 0. -1.
        -11    1    3    3    0    0  0.57844973096E+01  0.52090963401E+01 -0.43122694290E+01  0.88989191307E+01  0.51100000000E-03 0.  1.
        -12    1    3    3    0    0 -0.79040140329E+00 -0.10100827529E+02 -0.20193178638E+01  0.10330977484E+02  0.00000000000E+00 0.  1.
</event>
<event>
 7    1  0.1139627E-011  0.5930193E+02  0.7816164E-02  0.1266605E+00
        -11   -1    0    0    0    0  0.00000000000E+00  0.00000000000E+00  0.45593999997E+02  0.45594000000E+02  0.51100000000E-03 0. -1.
         11   -1    0    0    0    0 -0.00000000000E+00 -0.00000000000E+00 -0.45593999997E+02  0.45594000000E+02  0.51100000000E-03 0.  1.
    9900012    2    1    2    0    0 -0.29191000602E+00  0.23687376129E+02  0.21343482503E+02  0.59301933377E+02  0.49999980575E+02 0.  0.
        -12    1    1    2    0    0  0.29191000602E+00 -0.23687376129E+02 -0.21343482503E+02  0.31886066623E+02  0.00000000000E+00 0.  1.
         11    1    3    3    0    0  0.10955598112E+02 -0.23416883482E+01  0.28989410758E+01  0.11572056599E+02  0.51100000000E-03 0. -1.
        -11    1    3    3    0    0 -0.56505034364E+01  0.10326532331E+02  0.26661547175E+02  0.29144528768E+02  0.51100000000E-03 0.  1.
        -12    1    3    3    0    0 -0.55970046815E+01  0.15702532146E+02 -0.82170057476E+01  0.18585348010E+02  0.00000000000E+00 0.  1.
</event>
<event>
 7    1  0.1139627E-011  0.5930193E+02  0.7816164E-02  0.1266605E+00
        -11   -1    0    0    0    0  0.00000000000E+00  0.00000000000E+00  0.45593999997E+02  0.45594000000E+02  0.51100000000E-03 0. -1.
         11   -1    0    0    0    0 -0.00000000000E+00 -0.00000000000E+00 -0.45593999997E+02  0.45594000000E+02  0.51100000000E-03 0.  1.
    9900012    2    1    2    0    0 -0.16452639986E+02 -0.10981641131E+02  0.25008713524E+02  0.59301928486E+02  0.49999971656E+02 0.  0.
        -12    1    1    2    0    0  0.16452639986E+02  0.10981641131E+02 -0.25008713524E+02  0.31886071514E+02  0.00000000000E+00 0.  1.
         11    1    3    3    0    0  0.49312817446E+01  0.11850259096E+02  0.11177847356E+02  0.17020295299E+02  0.51100000000E-03 0. -1.
        -11    1    3    3    0    0 -0.87198611395E+01 -0.25488283070E+02  0.81029436176E+01  0.28130877122E+02  0.51100000000E-03 0.  1.
        -12    1    3    3    0    0 -0.12664060591E+02  0.26563828437E+01  0.57279225505E+01  0.14150756065E+02  0.00000000000E+00 0.  1.
</event>
<event>
 7    1  0.1139627E-011  0.5930197E+02  0.7816164E-02  0.1266605E+00
        -11   -1    0    0    0    0  0.00000000000E+00  0.00000000000E+00  0.45593999997E+02  0.45594000000E+02  0.51100000000E-03 0.  1.
         11   -1    0    0    0    0 -0.00000000000E+00 -0.00000000000E+00 -0.45593999997E+02  0.45594000000E+02  0.51100000000E-03 0. -1.
    9900012    2    1    2    0    0 -0.17896632251E+02  0.16516933226E+02 -0.20582043235E+02  0.59301968060E+02  0.50000043829E+02 0.  0.
        -12    1    1    2    0    0  0.17896632251E+02 -0.16516933226E+02  0.20582043235E+02  0.31886031940E+02  0.00000000000E+00 0.  1.
         11    1    3    3    0    0 -0.23731496344E+02  0.16501594783E+01  0.13131364531E+01  0.23825013592E+02  0.51100000000E-03 0. -1.
        -11    1    3    3    0    0  0.24868460091E+01  0.82602514949E+01  0.32844876220E+01  0.92306022032E+01  0.51100000000E-03 0.  1.
         12    1    3    3    0    0  0.33480180840E+01  0.66065222530E+01 -0.25179667310E+02  0.26246352265E+02  0.00000000000E+00 0. -1.
</event>
<event>
 7    1  0.1139627E-011  0.5930190E+02  0.7816164E-02  0.1266605E+00
        -11   -1    0    0    0    0  0.00000000000E+00  0.00000000000E+00  0.45593999997E+02  0.45594000000E+02  0.51100000000E-03 0.  1.
         11   -1    0    0    0    0 -0.00000000000E+00 -0.00000000000E+00 -0.45593999997E+02  0.45594000000E+02  0.51100000000E-03 0. -1.
    9900012    2    1    2    0    0 -0.30217454178E+01 -0.18875608993E+02 -0.25520649428E+02  0.59301904167E+02  0.49999927304E+02 0.  0.
        -12    1    1    2    0    0  0.30217454178E+01  0.18875608993E+02  0.25520649428E+02  0.31886095833E+02  0.00000000000E+00 0.  1.
         11    1    3    3    0    0 -0.43728077519E+01 -0.30236333781E+02 -0.10243060050E+02  0.32222315367E+02  0.51100000000E-03 0. -1.
        -11    1    3    3    0    0  0.11147463653E+01  0.14831854938E+02 -0.17487937421E+02  0.22957668346E+02  0.51100000000E-03 0.  1.
        -12    1    3    3    0    0  0.23631596882E+00 -0.34711301504E+01  0.22103480437E+01  0.41219204544E+01  0.00000000000E+00 0.  1.
</event>
<event>
 7    1  0.1139627E-011  0.5930194E+02  0.7816164E-02  0.1266605E+00
        -11   -1    0    0    0    0  0.00000000000E+00  0.00000000000E+00  0.45593999997E+02  0.45594000000E+02  0.51100000000E-03 0.  1.
         11   -1    0    0    0    0 -0.00000000000E+00 -0.00000000000E+00 -0.45593999997E+02  0.45594000000E+02  0.51100000000E-03 0. -1.
    9900012    2    1    2    0    0  0.19170687081E+02  0.25451197889E+02  0.12007911441E+01  0.59301943227E+02  0.49999998540E+02 0.  0.
        -12    1    1    2    0    0 -0.19170687081E+02 -0.25451197889E+02 -0.12007911441E+01  0.31886056773E+02  0.00000000000E+00 0.  1.
         11    1    3    3    0    0  0.67756374279E+01  0.59932304739E+01  0.69977796207E+01  0.11436651343E+02  0.51100000000E-03 0. -1.
        -11    1    3    3    0    0 -0.87327265354E+01 -0.56745580986E+01 -0.10391521272E+02  0.14712064334E+02  0.51100000000E-03 0.  1.
        -12    1    3    3    0    0  0.21127776189E+02  0.25132525514E+02  0.45945327950E+01  0.33153227550E+02  0.00000000000E+00 0.  1.
</event>
<event>
 7    1  0.1139627E-011  0.5930200E+02  0.7816164E-02  0.1266605E+00
        -11   -1    0    0    0    0  0.00000000000E+00  0.00000000000E+00  0.45593999997E+02  0.45594000000E+02  0.51100000000E-03 0. -1.
         11   -1    0    0    0    0 -0.00000000000E+00 -0.00000000000E+00 -0.45593999997E+02  0.45594000000E+02  0.51100000000E-03 0.  1.
    9900012    2    1    2    0    0 -0.29411122107E+01  0.42891962681E+01  0.31459018773E+02  0.59301996679E+02  0.50000096023E+02 0.  0.
        -12    1    1    2    0    0  0.29411122107E+01 -0.42891962681E+01 -0.31459018773E+02  0.31886003321E+02  0.00000000000E+00 0.  1.
         11    1    3    3    0    0  0.45382778034E+01 -0.15637353279E+01  0.17847658974E+02  0.18481887477E+02  0.51100000000E-03 0. -1.
        -11    1    3    3    0    0 -0.21415366860E+02  0.10409876374E+02  0.88842487144E+01  0.25414825188E+02  0.51100000000E-03 0.  1.
        -12    1    3    3    0    0  0.13935976846E+02 -0.45569447781E+01  0.47271110846E+01  0.15405284014E+02  0.00000000000E+00 0.  1.
</event>
<event>
 7    1  0.1139627E-011  0.5930203E+02  0.7816164E-02  0.1266604E+00
        -11   -1    0    0    0    0  0.00000000000E+00  0.00000000000E+00  0.45593999997E+02  0.45594000000E+02  0.51100000000E-03 0.  1.
         11   -1    0    0    0    0 -0.00000000000E+00 -0.00000000000E+00 -0.45593999997E+02  0.45594000000E+02  0.51100000000E-03 0. -1.
    9900012    2    1    2    0    0 -0.63486870447E+01 -0.27922586972E+02 -0.14026352475E+02  0.59302027314E+02  0.50000151893E+02 0.  0.
        -12    1    1    2    0    0  0.63486870447E+01  0.27922586972E+02  0.14026352475E+02  0.31885972686E+02  0.00000000000E+00 0.  1.
         11    1    3    3    0    0  0.57158787084E+01  0.40688949177E+01 -0.10568621680E+02  0.12685540577E+02  0.51100000000E-03 0. -1.
        -11    1    3    3    0    0 -0.11211423223E+02 -0.28476404757E+02 -0.15313357423E+02  0.34221346472E+02  0.51100000000E-03 0.  1.
        -12    1    3    3    0    0 -0.85314253007E+00 -0.35150771327E+01  0.11855626628E+02  0.12395140264E+02  0.00000000000E+00 0.  1.
</event>
<event>
 7    1  0.1139627E-011  0.5930192E+02  0.7816164E-02  0.1266605E+00
        -11   -1    0    0    0    0  0.00000000000E+00  0.00000000000E+00  0.45593999997E+02  0.45594000000E+02  0.51100000000E-03 0.  1.
         11   -1    0    0    0    0 -0.00000000000E+00 -0.00000000000E+00 -0.45593999997E+02  0.45594000000E+02  0.51100000000E-03 0. -1.
    9900012    2    1    2    0    0  0.14712747738E+02  0.27725234142E+02 -0.56186164858E+01  0.59301915175E+02  0.49999947380E+02 0.  0.
        -12    1    1    2    0    0 -0.14712747738E+02 -0.27725234142E+02  0.56186164858E+01  0.31886084825E+02  0.00000000000E+00 0.  1.
         11    1    3    3    0    0  0.23570531905E+02  0.14652971602E+02  0.14513676316E+02  0.31319743797E+02  0.51100000000E-03 0. -1.
        -11    1    3    3    0    0 -0.14869046858E+01 -0.14601227300E+01 -0.62078974299E+01  0.65483459509E+01  0.51100000000E-03 0.  1.
         12    1    3    3    0    0 -0.73708794812E+01  0.14532385270E+02 -0.13924395372E+02  0.21433825427E+02  0.00000000000E+00 0. -1.
</event>
<event>
 7    1  0.1139627E-011  0.5930196E+02  0.7816164E-02  0.1266605E+00
        -11   -1    0    0    0    0  0.00000000000E+00  0.00000000000E+00  0.45593999997E+02  0.45594000000E+02  0.51100000000E-03 0.  1.
         11   -1    0    0    0    0 -0.00000000000E+00 -0.00000000000E+00 -0.45593999997E+02  0.45594000000E+02  0.51100000000E-03 0. -1.
    9900012    2    1    2    0    0  0.54300168435E+01 -0.30192869529E+02 -0.86962569152E+01  0.59301963281E+02  0.50000035113E+02 0.  0.
        -12    1    1    2    0    0 -0.54300168435E+01  0.30192869529E+02  0.86962569152E+01  0.31886036719E+02  0.00000000000E+00 0.  1.
         11    1    3    3    0    0  0.75068322233E+01 -0.66152382082E+01 -0.80063037017E+01  0.12814632488E+02  0.51100000000E-03 0. -1.
        -11    1    3    3    0    0 -0.17271136602E+02 -0.25878704151E+02 -0.66195232916E+00  0.31119731188E+02  0.51100000000E-03 0.  1.
        -12    1    3    3    0    0  0.15194321222E+02  0.23010728305E+01 -0.28000884328E-01  0.15367599605E+02  0.00000000000E+00 0.  1.
</event>
<event>
 7    1  0.1139627E-011  0.5930194E+02  0.7816164E-02  0.1266605E+00
        -11   -1    0    0    0    0  0.00000000000E+00  0.00000000000E+00  0.45593999997E+02  0.45594000000E+02  0.51100000000E-03 0.  1.
         11   -1    0    0    0    0 -0.00000000000E+00 -0.00000000000E+00 -0.45593999997E+02  0.45594000000E+02  0.51100000000E-03 0. -1.
    9900012    2    1    2    0    0 -0.12050510898E+02 -0.11760550913E+02 -0.27077579107E+02  0.59301942530E+02  0.49999997269E+02 0.  0.
        -12    1    1    2    0    0  0.12050510898E+02  0.11760550913E+02  0.27077579107E+02  0.31886057470E+02  0.00000000000E+00 0.  1.
         11    1    3    3    0    0 -0.16969653561E+02 -0.17494689778E+02 -0.32235885923E+02  0.40412691743E+02  0.51100000000E-03 0. -1.
        -11    1    3    3    0    0  0.57073717462E+01  0.10954557577E+02  0.14489942900E+01  0.12436880987E+02  0.51100000000E-03 0.  1.
        -12    1    3    3    0    0 -0.78822908318E+00 -0.52204187127E+01  0.37093125260E+01  0.64523698003E+01  0.00000000000E+00 0.  1.
</event>
<event>
 7    1  0.1139627E-011  0.5930193E+02  0.7816164E-02  0.1266605E+00
        -11   -1    0    0    0    0  0.00000000000E+00  0.00000000000E+00  0.45593999997E+02  0.45594000000E+02  0.51100000000E-03 0.  1.
         11   -1    0    0    0    0 -0.00000000000E+00 -0.00000000000E+00 -0.45593999997E+02  0.45594000000E+02  0.51100000000E-03 0. -1.
    9900012    2    1    2    0    0  0.10276640978E+02  0.23440875673E+02 -0.19016775865E+02  0.59301925197E+02  0.49999965657E+02 0.  0.
        -12    1    1    2    0    0 -0.10276640978E+02 -0.23440875673E+02  0.19016775865E+02  0.31886074803E+02  0.00000000000E+00 0.  1.
         11    1    3    3    0    0 -0.13575361233E+02 -0.70972021099E+00 -0.33901675134E+01  0.14010259505E+02  0.51100000000E-03 0. -1.
        -11    1    3    3    0    0  0.23286116340E+02  0.24361653972E+02 -0.21115722492E+02  0.39769424626E+02  0.51100000000E-03 0.  1.
         12    1    3    3    0    0  0.56588587052E+00 -0.21105808851E+00  0.54891141407E+01  0.55222410654E+01  0.00000000000E+00 0. -1.
</event>
<event>
 7    1  0.1139627E-011  0.5930194E+02  0.7816164E-02  0.1266605E+00
        -11   -1    0    0    0    0  0.00000000000E+00  0.00000000000E+00  0.45593999997E+02  0.45594000000E+02  0.51100000000E-03 0.  1.
         11   -1    0    0    0    0 -0.00000000000E+00 -0.00000000000E+00 -0.45593999997E+02  0.45594000000E+02  0.51100000000E-03 0. -1.
    9900012    2    1    2    0    0 -0.70336586843E+01 -0.40505981595E+01 -0.30835707245E+02  0.59301944408E+02  0.50000000693E+02 0.  0.
        -12    1    1    2    0    0  0.70336586843E+01  0.40505981595E+01  0.30835707245E+02  0.31886055592E+02  0.00000000000E+00 0.  1.
         11    1    3    3    0    0 -0.13377216598E+00 -0.96773164346E+01 -0.36962030735E+01  0.10360032133E+02  0.51100000000E-03 0. -1.
        -11    1    3    3    0    0 -0.22592674588E+02  0.18844683402E+01 -0.83094236362E+01  0.24145945568E+02  0.51100000000E-03 0.  1.
        -12    1    3    3    0    0  0.15692788069E+02  0.37422499349E+01 -0.18830080535E+02  0.24795966707E+02  0.00000000000E+00 0.  1.
</event>
<event>
 7    1  0.1139627E-011  0.5930199E+02  0.7816164E-02  0.1266605E+00
        -11   -1    0    0    0    0  0.00000000000E+00  0.00000000000E+00  0.45593999997E+02  0.45594000000E+02  0.51100000000E-03 0.  1.
         11   -1    0    0    0    0 -0.00000000000E+00 -0.00000000000E+00 -0.45593999997E+02  0.45594000000E+02  0.51100000000E-03 0. -1.
    9900012    2    1    2    0    0 -0.17471220369E+02  0.16052541966E+02 -0.21302341047E+02  0.59301993997E+02  0.50000091131E+02 0.  0.
        -12    1    1    2    0    0  0.17471220369E+02 -0.16052541966E+02  0.21302341047E+02  0.31886006003E+02  0.00000000000E+00 0.  1.
         11    1    3    3    0    0 -0.39278573141E-03 -0.33182028246E+01 -0.18825992540E+02  0.19116183341E+02  0.51100000000E-03 0. -1.
        -11    1    3    3    0    0 -0.26213382441E+02  0.14284942910E+02 -0.33170136293E+01  0.30036704091E+02  0.51100000000E-03 0.  1.
        -12    1    3    3    0    0  0.87425548582E+01  0.50858018807E+01  0.84066512254E+00  0.10149106565E+02  0.00000000000E+00 0.  1.
</event>
<event>
 7    1  0.1139627E-011  0.5930197E+02  0.7816164E-02  0.1266605E+00
        -11   -1    0    0    0    0  0.00000000000E+00  0.00000000000E+00  0.45593999997E+02  0.45594000000E+02  0.51100000000E-03 0. -1.
         11   -1    0    0    0    0 -0.00000000000E+00 -0.00000000000E+00 -0.45593999997E+02  0.45594000000E+02  0.51100000000E-03 0.  1.
    9900012    2    1    2    0    0  0.11521348316E+02  0.12919270050E+02  0.26778166365E+02  0.59301965447E+02  0.50000039063E+02 0.  0.
        -12    1    1    2    0    0 -0.11521348316E+02 -0.12919270050E+02 -0.26778166365E+02  0.31886034553E+02  0.00000000000E+00 0.  1.
         11    1    3    3    0    0 -0.37596537473E+00 -0.94108215037E+01  0.12509786727E+02  0.15658852945E+02  0.51100000000E-03 0. -1.
        -11    1    3    3    0    0  0.13783969706E+02  0.28942417524E+02  0.16950086106E+02  0.36262470576E+02  0.51100000000E-03 0.  1.
        -12    1    3    3    0    0 -0.18866560160E+01 -0.66123259703E+01 -0.26817064680E+01  0.73806419260E+01  0.00000000000E+00 0.  1.
</event>
<event>
 7    1  0.1139627E-011  0.5930185E+02  0.7816164E-02  0.1266605E+00
        -11   -1    0    0    0    0  0.00000000000E+00  0.00000000000E+00  0.45593999997E+02  0.45594000000E+02  0.51100000000E-03 0.  1.
         11   -1    0    0    0    0 -0.00000000000E+00 -0.00000000000E+00 -0.45593999997E+02  0.45594000000E+02  0.51100000000E-03 0. -1.
    9900012    2    1    2    0    0  0.21868062550E+02  0.15224529553E+02 -0.17513659924E+02  0.59301847147E+02  0.49999823313E+02 0.  0.
        -12    1    1    2    0    0 -0.21868062550E+02 -0.15224529553E+02  0.17513659924E+02  0.31886152853E+02  0.00000000000E+00 0.  1.
         11    1    3    3    0    0  0.14370650619E+02  0.10139982232E+02 -0.29296947904E+02  0.34170835454E+02  0.51100000000E-03 0. -1.
        -11    1    3    3    0    0  0.95423793162E+01 -0.55310618377E+01  0.81933842958E+01  0.13739766903E+02  0.51100000000E-03 0.  1.
        -12    1    3    3    0    0 -0.20449673849E+01  0.10615609159E+02  0.35899036840E+01  0.11391244790E+02  0.00000000000E+00 0.  1.
</event>
<event>
 7    1  0.1139627E-011  0.5930192E+02  0.7816164E-02  0.1266605E+00
        -11   -1    0    0    0    0  0.00000000000E+00  0.00000000000E+00  0.45593999997E+02  0.45594000000E+02  0.51100000000E-03 0.  1.
         11   -1    0    0    0    0 -0.00000000000E+00 -0.00000000000E+00 -0.45593999997E+02  0.45594000000E+02  0.51100000000E-03 0. -1.
    9900012    2    1    2    0    0 -0.31375599880E+02  0.36392186411E+01 -0.43646520591E+01  0.59301915766E+02  0.49999948458E+02 0.  0.
        -12    1    1    2    0    0  0.31375599880E+02 -0.36392186411E+01  0.43646520591E+01  0.31886084234E+02  0.00000000000E+00 0.  1.
         11    1    3    3    0    0 -0.53220029026E+01 -0.11902715777E+02 -0.65617367152E+01  0.14596394991E+02  0.51100000000E-03 0. -1.
        -11    1    3    3    0    0 -0.15087030511E+02  0.24417021205E+02  0.74470482386E+01  0.29652452544E+02  0.51100000000E-03 0.  1.
        -12    1    3    3    0    0 -0.10966566467E+02 -0.88750867873E+01 -0.52499635825E+01  0.15053068231E+02  0.00000000000E+00 0.  1.
</event>
<event>
 7    1  0.1139627E-011  0.5930195E+02  0.7816164E-02  0.1266605E+00
        -11   -1    0    0    0    0  0.00000000000E+00  0.00000000000E+00  0.45593999997E+02  0.45594000000E+02  0.51100000000E-03 0. -1.
         11   -1    0    0    0    0 -0.00000000000E+00 -0.00000000000E+00 -0.45593999997E+02  0.45594000000E+02  0.51100000000E-03 0.  1.
    9900012    2    1    2    0    0 -0.25802763155E+02 -0.13576732980E+02 -0.12907743663E+02  0.59301951149E+02  0.50000012988E+02 0.  0.
        -12    1    1    2    0    0  0.25802763155E+02  0.13576732980E+02  0.12907743663E+02  0.31886048851E+02  0.00000000000E+00 0.  1.
         11    1    3    3    0    0 -0.33354608044E+02 -0.56224912523E+01  0.74891995165E+01  0.34644341462E+02  0.51100000000E-03 0. -1.
        -11    1    3    3    0    0  0.38711070592E+01 -0.21173033816E-01 -0.21619576634E+01  0.44339575281E+01  0.51100000000E-03 0.  1.
         12    1    3    3    0    0  0.36807378297E+01 -0.79330686939E+01 -0.18234985517E+02  0.20223652159E+02  0.00000000000E+00 0. -1.
</event>
<event>
 7    1  0.1139627E-011  0.5930198E+02  0.7816164E-02  0.1266605E+00
        -11   -1    0    0    0    0  0.00000000000E+00  0.00000000000E+00  0.45593999997E+02  0.45594000000E+02  0.51100000000E-03 0.  1.
         11   -1    0    0    0    0 -0.00000000000E+00 -0.00000000000E+00 -0.45593999997E+02  0.45594000000E+02  0.51100000000E-03 0. -1.
    9900012    2    1    2    0    0 -0.14426191691E+02  0.26598415479E+02 -0.10056220632E+02  0.59301979770E+02  0.50000065185E+02 0.  0.
        -12    1    1    2    0    0  0.14426191691E+02 -0.26598415479E+02  0.10056220632E+02  0.31886020230E+02  0.00000000000E+00 0.  1.
         11    1    3    3    0    0 -0.92024059364E+01  0.14831997529E+02  0.13223819778E+02  0.21898443678E+02  0.51100000000E-03 0. -1.
        -11    1    3    3    0    0  0.43533870834E+01  0.17393249155E+02 -0.16645029482E+02  0.24464956611E+02  0.51100000000E-03 0.  1.
        -12    1    3    3    0    0 -0.95771728380E+01 -0.56268312051E+01 -0.66350109274E+01  0.12938579481E+02  0.00000000000E+00 0.  1.
</event>
<event>
 7    1  0.1139627E-011  0.5930195E+02  0.7816164E-02  0.1266605E+00
        -11   -1    0    0    0    0  0.00000000000E+00  0.00000000000E+00  0.45593999997E+02  0.45594000000E+02  0.51100000000E-03 0.  1.
         11   -1    0    0    0    0 -0.00000000000E+00 -0.00000000000E+00 -0.45593999997E+02  0.45594000000E+02  0.51100000000E-03 0. -1.
    9900012    2    1    2    0    0  0.58033372495E+01  0.28091199810E+02 -0.13925730012E+02  0.59301949973E+02  0.50000010842E+02 0.  0.
        -12    1    1    2    0    0 -0.58033372495E+01 -0.28091199810E+02  0.13925730012E+02  0.31886050027E+02  0.00000000000E+00 0.  1.
         11    1    3    3    0    0 -0.54292413040E+01 -0.51091076104E+01 -0.12052689429E+02  0.14172048703E+02  0.51100000000E-03 0. -1.
        -11    1    3    3    0    0 -0.44068344655E+01  0.28352935812E+02 -0.19040676886E+01  0.28756471154E+02  0.51100000000E-03 0.  1.
        -12    1    3    3    0    0  0.15639413019E+02  0.48473716079E+01  0.31027105914E-01  0.16373430116E+02  0.00000000000E+00 0.  1.
</event>
<event>
 7    1  0.1139627E-011  0.5930195E+02  0.7816164E-02  0.1266605E+00
        -11   -1    0    0    0    0  0.00000000000E+00  0.00000000000E+00  0.45593999997E+02  0.45594000000E+02  0.51100000000E-03 0.  1.
         11   -1    0    0    0    0 -0.00000000000E+00 -0.00000000000E+00 -0.45593999997E+02  0.45594000000E+02  0.51100000000E-03 0. -1.
    9900012    2    1    2    0    0 -0.19385252081E+02  0.40547514452E+01 -0.24989819114E+02  0.59301951846E+02  0.50000014258E+02 0.  0.
        -12    1    1    2    0    0  0.19385252081E+02 -0.40547514452E+01  0.24989819114E+02  0.31886048154E+02  0.00000000000E+00 0.  1.
         11    1    3    3    0    0 -0.21542025096E+02 -0.18237177107E+02 -0.16089914398E+02  0.32489056922E+02  0.51100000000E-03 0. -1.
        -11    1    3    3    0    0  0.12850250850E+01  0.23499409018E+02 -0.92431582809E+01  0.25284570175E+02  0.51100000000E-03 0.  1.
        -12    1    3    3    0    0  0.87174793041E+00 -0.12074804653E+01  0.34325356458E+00  0.15283247488E+01  0.00000000000E+00 0.  1.
</event>
<event>
 7    1  0.1139627E-011  0.5930193E+02  0.7816164E-02  0.1266605E+00
        -11   -1    0    0    0    0  0.00000000000E+00  0.00000000000E+00  0.45593999997E+02  0.45594000000E+02  0.51100000000E-03 0. -1.
         11   -1    0    0    0    0 -0.00000000000E+00 -0.00000000000E+00 -0.45593999997E+02  0.45594000000E+02  0.51100000000E-03 0.  1.
    9900012    2    1    2    0    0  0.31687087497E+02 -0.28310348471E+01  0.21529301307E+01  0.59301931247E+02  0.49999976691E+02 0.  0.
        -12    1    1    2    0    0 -0.31687087497E+02  0.28310348471E+01 -0.21529301307E+01  0.31886068753E+02  0.00000000000E+00 0.  1.
         11    1    3    3    0    0  0.78572862752E+01 -0.10567348434E+02  0.15698144552E+02  0.20489937608E+02  0.51100000000E-03 0. -1.
        -11    1    3    3    0    0  0.28906452534E+02  0.99256124455E+01 -0.96548310929E+01  0.32051779111E+02  0.51100000000E-03 0.  1.
        -12    1    3    3    0    0 -0.50766513116E+01 -0.21892988583E+01 -0.38903833281E+01  0.67602145284E+01  0.00000000000E+00 0.  1.
</event>
<event>
 7    1  0.1139627E-011  0.5930194E+02  0.7816164E-02  0.1266605E+00
        -11   -1    0    0    0    0  0.00000000000E+00  0.00000000000E+00  0.45593999997E+02  0.45594000000E+02  0.51100000000E-03 0. -1.
         11   -1    0    0    0    0 -0.00000000000E+00 -0.00000000000E+00 -0.45593999997E+02  0.45594000000E+02  0.51100000000E-03 0.  1.
    9900012    2    1    2    0    0  0.13016383833E+02 -0.25890655257E+02 -0.13302950264E+02  0.59301940923E+02  0.49999994337E+02 0.  0.
        -12    1    1    2    0    0 -0.13016383833E+02  0.25890655257E+02  0.13302950264E+02  0.31886059077E+02  0.00000000000E+00 0.  1.
         11    1    3    3    0    0  0.98426038551E+01 -0.10195886602E+02 -0.26493099097E+02  0.30045253439E+02  0.51100000000E-03 0. -1.
        -11    1    3    3    0    0 -0.88472919374E+01 -0.65869302736E+01  0.57845736033E+01  0.12454859176E+02  0.51100000000E-03 0.  1.
         12    1    3    3    0    0  0.12021071916E+02 -0.91078383821E+01  0.74055752294E+01  0.16801828307E+02  0.00000000000E+00 0. -1.
</event>
<event>
 7    1  0.1139627E-011  0.5930195E+02  0.7816164E-02  0.1266605E+00
        -11   -1    0    0    0    0  0.00000000000E+00  0.00000000000E+00  0.45593999997E+02  0.45594000000E+02  0.51100000000E-03 0. -1.
         11   -1    0    0    0    0 -0.00000000000E+00 -0.00000000000E+00 -0.45593999997E+02  0.45594000000E+02  0.51100000000E-03 0.  1.
    9900012    2    1    2    0    0 -0.20232996220E+02  0.14508418392E+02  0.19921143770E+02  0.59301948044E+02  0.50000007324E+02 0.  0.
        -12    1    1    2    0    0  0.20232996220E+02 -0.14508418392E+02 -0.19921143770E+02  0.31886051956E+02  0.00000000000E+00 0.  1.
         11    1    3    3    0    0 -0.14055625832E+02 -0.14972194573E+02  0.15143474304E+02  0.25515721470E+02  0.51100000000E-03 0. -1.
        -11    1    3    3    0    0 -0.68252308714E+01  0.18217993150E+02 -0.35350490605E+01  0.19773103524E+02  0.51100000000E-03 0.  1.
        -12    1    3    3    0    0  0.64786048301E+00  0.11262619815E+02  0.83127185258E+01  0.14013123049E+02  0.00000000000E+00 0.  1.
</event>
<event>
 7    1  0.1139627E-011  0.5930190E+02  0.7816164E-02  0.1266605E+00
        -11   -1    0    0    0    0  0.00000000000E+00  0.00000000000E+00  0.45593999997E+02  0.45594000000E+02  0.51100000000E-03 0. -1.
         11   -1    0    0    0    0 -0.00000000000E+00 -0.00000000000E+00 -0.45593999997E+02  0.45594000000E+02  0.51100000000E-03 0.  1.
    9900012    2    1    2    0    0  0.10656716894E+01  0.24965368405E+02  0.19807022933E+02  0.59301899059E+02  0.49999917988E+02 0.  0.
        -12    1    1    2    0    0 -0.10656716894E+01 -0.24965368405E+02 -0.19807022933E+02  0.31886100941E+02  0.00000000000E+00 0.  1.
         11    1    3    3    0    0 -0.13548711199E+01  0.14167775616E+02  0.34755862754E+02  0.37557043783E+02  0.51100000000E-03 0. -1.
        -11    1    3    3    0    0 -0.26866476528E+01 -0.95598148996E+00 -0.17381478671E+01  0.33396308911E+01  0.51100000000E-03 0.  1.
         12    1    3    3    0    0  0.51071904621E+01  0.11753574280E+02 -0.13210691954E+02  0.18405224385E+02  0.00000000000E+00 0. -1.
</event>
<event>
 7    1  0.1139627E-011  0.5930194E+02  0.7816164E-02  0.1266605E+00
        -11   -1    0    0    0    0  0.00000000000E+00  0.00000000000E+00  0.45593999997E+02  0.45594000000E+02  0.51100000000E-03 0.  1.
         11   -1    0    0    0    0 -0.00000000000E+00 -0.00000000000E+00 -0.45593999997E+02  0.45594000000E+02  0.51100000000E-03 0. -1.
    9900012    2    1    2    0    0  0.20354307552E+02  0.70609915308E+01 -0.23506703151E+02  0.59301944579E+02  0.50000001005E+02 0.  0.
        -12    1    1    2    0    0 -0.20354307552E+02 -0.70609915308E+01  0.23506703151E+02  0.31886055421E+02  0.00000000000E+00 0.  1.
         11    1    3    3    0    0  0.76347356347E+01  0.13002094031E+02  0.74220203526E+01  0.16805654518E+02  0.51100000000E-03 0. -1.
        -11    1    3    3    0    0 -0.57928617373E+01 -0.82532694749E+01 -0.76087630416E+01  0.12631982403E+02  0.51100000000E-03 0.  1.
         12    1    3    3    0    0  0.18512433654E+02  0.23121669743E+01 -0.23319960462E+02  0.29864307658E+02  0.00000000000E+00 0. -1.
</event>
<event>
 7    1  0.1139627E-011  0.5930194E+02  0.7816164E-02  0.1266605E+00
        -11   -1    0    0    0    0  0.00000000000E+00  0.00000000000E+00  0.45593999997E+02  0.45594000000E+02  0.51100000000E-03 0.  1.
         11   -1    0    0    0    0 -0.00000000000E+00 -0.00000000000E+00 -0.45593999997E+02  0.45594000000E+02  0.51100000000E-03 0. -1.
    9900012    2    1    2    0    0  0.12404112791E+01 -0.58465876015E+01 -0.31320908551E+02  0.59301944753E+02  0.50000001323E+02 0.  0.
        -12    1    1    2    0    0 -0.12404112791E+01  0.58465876015E+01  0.31320908551E+02  0.31886055247E+02  0.00000000000E+00 0.  1.
         11    1    3    3    0    0  0.34384224955E+01  0.97794778785E+00 -0.20151008776E+02  0.20465636713E+02  0.51100000000E-03 0. -1.
        -11    1    3    3    0    0  0.97326886660E+01  0.27377678957E+01  0.89933289866E+01  0.13531465857E+02  0.51100000000E-03 0.  1.
        -12    1    3    3    0    0 -0.11930699882E+02 -0.95623032851E+01 -0.20163228762E+02  0.25304842183E+02  0.00000000000E+00 0.  1.
</event>
<event>
 7    1  0.1139627E-011  0.5930196E+02  0.7816164E-02  0.1266605E+00
        -11   -1    0    0    0    0  0.00000000000E+00  0.00000000000E+00  0.45593999997E+02  0.45594000000E+02  0.51100000000E-03 0.  1.
         11   -1    0    0    0    0 -0.00000000000E+00 -0.00000000000E+00 -0.45593999997E+02  0.45594000000E+02  0.51100000000E-03 0. -1.
    9900012    2    1    2    0    0 -0.23266190194E+02  0.21353761676E+02  0.44069351829E+01  0.59301955692E+02  0.50000021273E+02 0.  0.
        -12    1    1    2    0    0  0.23266190194E+02 -0.21353761676E+02 -0.44069351829E+01  0.31886044308E+02  0.00000000000E+00 0.  1.
         11    1    3    3    0    0 -0.65281124952E+01  0.19219431473E+02  0.52227264029E+01  0.20958999743E+02  0.51100000000E-03 0. -1.
        -11    1    3    3    0    0  0.77911121629E+01 -0.67093975688E+01  0.52898904159E+01  0.11562888279E+02  0.51100000000E-03 0.  1.
        -12    1    3    3    0    0 -0.24529189862E+02  0.88437277725E+01 -0.61056816360E+01  0.26780067671E+02  0.00000000000E+00 0.  1.
</event>
<event>
 7    1  0.1139627E-011  0.5930194E+02  0.7816164E-02  0.1266605E+00
        -11   -1    0    0    0    0  0.00000000000E+00  0.00000000000E+00  0.45593999997E+02  0.45594000000E+02  0.51100000000E-03 0. -1.
         11   -1    0    0    0    0 -0.00000000000E+00 -0.00000000000E+00 -0.45593999997E+02  0.45594000000E+02  0.51100000000E-03 0.  1.
    9900012    2    1    2    0    0 -0.13635386795E+02 -0.27982107704E+02  0.69136647045E+01  0.59301939029E+02  0.49999990883E+02 0.  0.
        -12    1    1    2    0    0  0.13635386795E+02  0.27982107704E+02 -0.69136647045E+01  0.31886060971E+02  0.00000000000E+00 0.  1.
         11    1    3    3    0    0  0.37597783308E+01 -0.23211819257E+01  0.18586966980E+02  0.19104951201E+02  0.51100000000E-03 0. -1.
        -11    1    3    3    0    0  0.14615496772E+01 -0.17088464482E+02 -0.88253183124E+01  0.19288286325E+02  0.51100000000E-03 0.  1.
         12    1    3    3    0    0 -0.18856714803E+02 -0.85724612968E+01 -0.28479839627E+01  0.20908701502E+02  0.00000000000E+00 0. -1.
</event>
<event>
 7    1  0.1139627E-011  0.5930194E+02  0.7816164E-02  0.1266605E+00
        -11   -1    0    0    0    0  0.00000000000E+00  0.00000000000E+00  0.45593999997E+02  0.45594000000E+02  0.51100000000E-03 0.  1.
         11   -1    0    0    0    0 -0.00000000000E+00 -0.00000000000E+00 -0.45593999997E+02  0.45594000000E+02  0.51100000000E-03 0. -1.
    9900012    2    1    2    0    0 -0.13112696666E+02 -0.27805360107E+02 -0.84640423705E+01  0.59301939130E+02  0.49999991068E+02 0.  0.
        -12    1    1    2    0    0  0.13112696666E+02  0.27805360107E+02  0.84640423705E+01  0.31886060870E+02  0.00000000000E+00 0.  1.
         11    1    3    3    0    0  0.11132534903E+02  0.31684004932E+01  0.84563563381E+00  0.11605481245E+02  0.51100000000E-03 0. -1.
        -11    1    3    3    0    0 -0.26889585476E+02 -0.15687641194E+02 -0.79092766401E+01  0.32120220275E+02  0.51100000000E-03 0.  1.
        -12    1    3    3    0    0  0.26443539070E+01 -0.15286119406E+02 -0.14004013642E+01  0.15576237610E+02  0.00000000000E+00 0.  1.
</event>
<event>
 7    1  0.1139627E-011  0.5930173E+02  0.7816164E-02  0.1266605E+00
        -11   -1    0    0    0    0  0.00000000000E+00  0.00000000000E+00  0.45593999997E+02  0.45594000000E+02  0.51100000000E-03 0. -1.
         11   -1    0    0    0    0 -0.00000000000E+00 -0.00000000000E+00 -0.45593999997E+02  0.45594000000E+02  0.51100000000E-03 0.  1.
    9900012    2    1    2    0    0 -0.23208885187E+02 -0.31009721454E+01  0.21644064281E+02  0.59301734956E+02  0.49999618702E+02 0.  0.
        -12    1    1    2    0    0  0.23208885187E+02  0.31009721454E+01 -0.21644064281E+02  0.31886265044E+02  0.00000000000E+00 0.  1.
         11    1    3    3    0    0 -0.12932708784E+02 -0.14116617337E+02 -0.53835270771E+01  0.19887589235E+02  0.51100000000E-03 0.  1.
        -11    1    3    3    0    0  0.79857922685E+01  0.48123659886E+01  0.10187974415E+02  0.13810378978E+02  0.51100000000E-03 0. -1.
         12    1    3    3    0    0 -0.18261968672E+02  0.62032792033E+01  0.16839616943E+02  0.25603766743E+02  0.00000000000E+00 0. -1.
</event>
<event>
 7    1  0.1139627E-011  0.5930193E+02  0.7816164E-02  0.1266605E+00
        -11   -1    0    0    0    0  0.00000000000E+00  0.00000000000E+00  0.45593999997E+02  0.45594000000E+02  0.51100000000E-03 0. -1.
         11   -1    0    0    0    0 -0.00000000000E+00 -0.00000000000E+00 -0.45593999997E+02  0.45594000000E+02  0.51100000000E-03 0.  1.
    9900012    2    1    2    0    0 -0.18213406642E+02  0.95422843035E+01  0.24370841802E+02  0.59301932489E+02  0.49999978955E+02 0.  0.
        -12    1    1    2    0    0  0.18213406642E+02 -0.95422843035E+01 -0.24370841802E+02  0.31886067511E+02  0.00000000000E+00 0.  1.
         11    1    3    3    0    0  0.27399399131E+01 -0.10759026531E+02 -0.24116767805E+01  0.11361342693E+02  0.51100000000E-03 0.  1.
        -11    1    3    3    0    0 -0.35466578508E+01  0.12867688411E+02  0.25727354311E+02  0.28983666902E+02  0.51100000000E-03 0. -1.
        -12    1    3    3    0    0 -0.17406688704E+02  0.74336224236E+01  0.10551642710E+01  0.18956922894E+02  0.00000000000E+00 0.  1.
</event>
<event>
 7    1  0.1139627E-011  0.5930193E+02  0.7816164E-02  0.1266605E+00
        -11   -1    0    0    0    0  0.00000000000E+00  0.00000000000E+00  0.45593999997E+02  0.45594000000E+02  0.51100000000E-03 0.  1.
         11   -1    0    0    0    0 -0.00000000000E+00 -0.00000000000E+00 -0.45593999997E+02  0.45594000000E+02  0.51100000000E-03 0. -1.
    9900012    2    1    2    0    0  0.11838928891E+02  0.13567979876E+02 -0.26314848397E+02  0.59301928411E+02  0.49999971519E+02 0.  0.
        -12    1    1    2    0    0 -0.11838928891E+02 -0.13567979876E+02  0.26314848397E+02  0.31886071589E+02  0.00000000000E+00 0.  1.
         11    1    3    3    0    0  0.18138412944E+02 -0.43993624179E+01  0.65223398537E+00  0.18675701412E+02  0.51100000000E-03 0. -1.
        -11    1    3    3    0    0  0.57237708885E+01  0.17314586561E+02 -0.17899717152E+02  0.25553010299E+02  0.51100000000E-03 0.  1.
         12    1    3    3    0    0 -0.12023254942E+02  0.65275573312E+00 -0.90673652307E+01  0.15073216700E+02  0.00000000000E+00 0. -1.
</event>
<event>
 7    1  0.1139627E-011  0.5930191E+02  0.7816164E-02  0.1266605E+00
        -11   -1    0    0    0    0  0.00000000000E+00  0.00000000000E+00  0.45593999997E+02  0.45594000000E+02  0.51100000000E-03 0.  1.
         11   -1    0    0    0    0 -0.00000000000E+00 -0.00000000000E+00 -0.45593999997E+02  0.45594000000E+02  0.51100000000E-03 0. -1.
    9900012    2    1    2    0    0  0.14162468690E+02  0.27093035587E+02 -0.90617269896E+01  0.59301905966E+02  0.49999930584E+02 0.  0.
        -12    1    1    2    0    0 -0.14162468690E+02 -0.27093035587E+02  0.90617269896E+01  0.31886094034E+02  0.00000000000E+00 0.  1.
         11    1    3    3    0    0  0.37581827049E+01  0.20258794034E+02 -0.21931942002E+02  0.30092403580E+02  0.51100000000E-03 0. -1.
        -11    1    3    3    0    0 -0.31582615703E+01 -0.15063732353E+00  0.13574351003E+02  0.13937729843E+02  0.51100000000E-03 0.  1.
        -12    1    3    3    0    0  0.13562547556E+02  0.69848788761E+01 -0.70413599069E+00  0.15271772543E+02  0.00000000000E+00 0.  1.
</event>
<event>
 7    1  0.1139627E-011  0.5930191E+02  0.7816164E-02  0.1266605E+00
        -11   -1    0    0    0    0  0.00000000000E+00  0.00000000000E+00  0.45593999997E+02  0.45594000000E+02  0.51100000000E-03 0. -1.
         11   -1    0    0    0    0 -0.00000000000E+00 -0.00000000000E+00 -0.45593999997E+02  0.45594000000E+02  0.51100000000E-03 0.  1.
    9900012    2    1    2    0    0 -0.30902917315E+02 -0.55287008163E+01 -0.55826216504E+01  0.59301913759E+02  0.49999944797E+02 0.  0.
        -12    1    1    2    0    0  0.30902917315E+02  0.55287008163E+01  0.55826216504E+01  0.31886086241E+02  0.00000000000E+00 0.  1.
         11    1    3    3    0    0  0.26047236193E+01 -0.14880135318E+02  0.14637670803E+01  0.15177141580E+02  0.51100000000E-03 0.  1.
        -11    1    3    3    0    0 -0.13232697585E+02  0.91729913095E+01  0.88384874785E+01  0.18367550629E+02  0.51100000000E-03 0. -1.
         12    1    3    3    0    0 -0.20274943349E+02  0.17844319224E+00 -0.15884876209E+02  0.25757221550E+02  0.00000000000E+00 0. -1.
</event>
<event>
 7    1  0.1139627E-011  0.5930195E+02  0.7816164E-02  0.1266605E+00
        -11   -1    0    0    0    0  0.00000000000E+00  0.00000000000E+00  0.45593999997E+02  0.45594000000E+02  0.51100000000E-03 0.  1.
         11   -1    0    0    0    0 -0.00000000000E+00 -0.00000000000E+00 -0.45593999997E+02  0.45594000000E+02  0.51100000000E-03 0. -1.
    9900012    2    1    2    0    0  0.27995490035E+02  0.71936540048E+01 -0.13461959176E+02  0.59301945601E+02  0.50000002870E+02 0.  0.
        -12    1    1    2    0    0 -0.27995490035E+02 -0.71936540048E+01  0.13461959176E+02  0.31886054399E+02  0.00000000000E+00 0.  1.
         11    1    3    3    0    0  0.13374663102E+02  0.95785447505E+01 -0.27546122298E+02  0.32084559940E+02  0.51100000000E-03 0. -1.
        -11    1    3    3    0    0  0.77282330829E+01 -0.10182775094E+02  0.65095546465E+01  0.14345340608E+02  0.51100000000E-03 0.  1.
        -12    1    3    3    0    0  0.68925938506E+01  0.77978843487E+01  0.75746084752E+01  0.12872045053E+02  0.00000000000E+00 0.  1.
</event>
<event>
 7    1  0.1139627E-011  0.5930191E+02  0.7816164E-02  0.1266605E+00
        -11   -1    0    0    0    0  0.00000000000E+00  0.00000000000E+00  0.45593999997E+02  0.45594000000E+02  0.51100000000E-03 0. -1.
         11   -1    0    0    0    0 -0.00000000000E+00 -0.00000000000E+00 -0.45593999997E+02  0.45594000000E+02  0.51100000000E-03 0.  1.
    9900012    2    1    2    0    0  0.27352647767E+02  0.14760639477E+02 -0.71189217866E+01  0.59301907968E+02  0.49999934237E+02 0.  0.
        -12    1    1    2    0    0 -0.27352647767E+02 -0.14760639477E+02  0.71189217866E+01  0.31886092032E+02  0.00000000000E+00 0.  1.
         11    1    3    3    0    0  0.22004323271E+02 -0.72623498897E+01  0.42220894653E+01  0.23553301430E+02  0.51100000000E-03 0.  1.
        -11    1    3    3    0    0 -0.22809794723E+01  0.18566192002E+02  0.31905684642E+01  0.18975934238E+02  0.51100000000E-03 0. -1.
        -12    1    3    3    0    0  0.76293039679E+01  0.34567973649E+01 -0.14531579716E+02  0.16772672301E+02  0.00000000000E+00 0.  1.
</event>
<event>
 7    1  0.1139627E-011  0.5930194E+02  0.7816164E-02  0.1266605E+00
        -11   -1    0    0    0    0  0.00000000000E+00  0.00000000000E+00  0.45593999997E+02  0.45594000000E+02  0.51100000000E-03 0.  1.
         11   -1    0    0    0    0 -0.00000000000E+00 -0.00000000000E+00 -0.45593999997E+02  0.45594000000E+02  0.51100000000E-03 0. -1.
    9900012    2    1    2    0    0 -0.25634797914E+02  0.25115387029E+01 -0.18795480537E+02  0.59301940673E+02  0.49999993882E+02 0.  0.
        -12    1    1    2    0    0  0.25634797914E+02 -0.25115387029E+01  0.18795480537E+02  0.31886059327E+02  0.00000000000E+00 0.  1.
         11    1    3    3    0    0 -0.43570663063E+01  0.21597871799E+02 -0.10472909658E+02  0.24395366979E+02  0.51100000000E-03 0.  1.
        -11    1    3    3    0    0 -0.24032487394E+02 -0.16174610156E+02 -0.98788654876E+01  0.30606705926E+02  0.51100000000E-03 0. -1.
         12    1    3    3    0    0  0.27547557856E+01 -0.29117229402E+01  0.15562946085E+01  0.42998677686E+01  0.00000000000E+00 0. -1.
</event>
<event>
 7    1  0.1139627E-011  0.5930200E+02  0.7816164E-02  0.1266605E+00
        -11   -1    0    0    0    0  0.00000000000E+00  0.00000000000E+00  0.45593999997E+02  0.45594000000E+02  0.51100000000E-03 0. -1.
         11   -1    0    0    0    0 -0.00000000000E+00 -0.00000000000E+00 -0.45593999997E+02  0.45594000000E+02  0.51100000000E-03 0.  1.
    9900012    2    1    2    0    0  0.25463138708E+02 -0.12634092578E+02  0.14447324253E+02  0.59302001408E+02  0.50000104648E+02 0.  0.
        -12    1    1    2    0    0 -0.25463138708E+02  0.12634092578E+02 -0.14447324253E+02  0.31885998592E+02  0.00000000000E+00 0.  1.
         11    1    3    3    0    0  0.35394794005E+02  0.38801434782E+01  0.49434921059E+01  0.35948366729E+02  0.51100000000E-03 0. -1.
        -11    1    3    3    0    0 -0.55116954564E+01 -0.18156922826E+01  0.39993990921E+01  0.70477456416E+01  0.51100000000E-03 0.  1.
         12    1    3    3    0    0 -0.44199598403E+01 -0.14698543773E+02  0.55044330550E+01  0.16305889037E+02  0.00000000000E+00 0. -1.
</event>
<event>
 7    1  0.1139627E-011  0.5930195E+02  0.7816164E-02  0.1266605E+00
        -11   -1    0    0    0    0  0.00000000000E+00  0.00000000000E+00  0.45593999997E+02  0.45594000000E+02  0.51100000000E-03 0.  1.
         11   -1    0    0    0    0 -0.00000000000E+00 -0.00000000000E+00 -0.45593999997E+02  0.45594000000E+02  0.51100000000E-03 0. -1.
    9900012    2    1    2    0    0 -0.62112555370E+01  0.89065122048E+01 -0.29980240767E+02  0.59301945188E+02  0.50000002117E+02 0.  0.
        -12    1    1    2    0    0  0.62112555370E+01 -0.89065122048E+01  0.29980240767E+02  0.31886054812E+02  0.00000000000E+00 0.  1.
         11    1    3    3    0    0 -0.44537629369E+01  0.13977646338E+02 -0.41431692398E+01  0.15243898879E+02  0.51100000000E-03 0. -1.
        -11    1    3    3    0    0 -0.12474655201E+02 -0.15123858019E+02 -0.20653343787E+02  0.28476458937E+02  0.51100000000E-03 0.  1.
        -12    1    3    3    0    0  0.10717162601E+02  0.10052723886E+02 -0.51837277403E+01  0.15581587372E+02  0.00000000000E+00 0.  1.
</event>
<event>
 7    1  0.1139627E-011  0.5930190E+02  0.7816164E-02  0.1266605E+00
        -11   -1    0    0    0    0  0.00000000000E+00  0.00000000000E+00  0.45593999997E+02  0.45594000000E+02  0.51100000000E-03 0.  1.
         11   -1    0    0    0    0 -0.00000000000E+00 -0.00000000000E+00 -0.45593999997E+02  0.45594000000E+02  0.51100000000E-03 0. -1.
    9900012    2    1    2    0    0  0.20286650205E+02 -0.38281100184E+01 -0.24300638384E+02  0.59301895993E+02  0.49999912396E+02 0.  0.
        -12    1    1    2    0    0 -0.20286650205E+02  0.38281100184E+01  0.24300638384E+02  0.31886104007E+02  0.00000000000E+00 0.  1.
         11    1    3    3    0    0  0.90685152340E+01  0.10374733185E+02 -0.25598390876E+02  0.29071475244E+02  0.51100000000E-03 0.  1.
        -11    1    3    3    0    0  0.14956530834E+02 -0.90399962271E+01 -0.77869305936E+01  0.19132580451E+02  0.51100000000E-03 0. -1.
        -12    1    3    3    0    0 -0.37383958624E+01 -0.51628469763E+01  0.90846830847E+01  0.11097840298E+02  0.00000000000E+00 0.  1.
</event>
<event>
 7    1  0.1139627E-011  0.5930195E+02  0.7816164E-02  0.1266605E+00
        -11   -1    0    0    0    0  0.00000000000E+00  0.00000000000E+00  0.45593999997E+02  0.45594000000E+02  0.51100000000E-03 0.  1.
         11   -1    0    0    0    0 -0.00000000000E+00 -0.00000000000E+00 -0.45593999997E+02  0.45594000000E+02  0.51100000000E-03 0. -1.
    9900012    2    1    2    0    0  0.25573996007E+02  0.44328293266E+01  0.18521362749E+02  0.59301950924E+02  0.50000012577E+02 0.  0.
        -12    1    1    2    0    0 -0.25573996007E+02 -0.44328293266E+01 -0.18521362749E+02  0.31886049076E+02  0.00000000000E+00 0.  1.
         11    1    3    3    0    0  0.38116091051E+01  0.23123744308E+02  0.37752539988E+01  0.23737911825E+02  0.51100000000E-03 0. -1.
        -11    1    3    3    0    0  0.17522586013E+02 -0.13395564155E+02  0.17586974819E+02  0.28209640961E+02  0.51100000000E-03 0.  1.
         12    1    3    3    0    0  0.42398008886E+01 -0.52953508265E+01 -0.28408660685E+01  0.73543981379E+01  0.00000000000E+00 0. -1.
</event>
<event>
 7    1  0.1139627E-011  0.5930195E+02  0.7816164E-02  0.1266605E+00
        -11   -1    0    0    0    0  0.00000000000E+00  0.00000000000E+00  0.45593999997E+02  0.45594000000E+02  0.51100000000E-03 0.  1.
         11   -1    0    0    0    0 -0.00000000000E+00 -0.00000000000E+00 -0.45593999997E+02  0.45594000000E+02  0.51100000000E-03 0. -1.
    9900012    2    1    2    0    0  0.57633792093E+01  0.52012207567E+01 -0.30926542861E+02  0.59301948338E+02  0.50000007861E+02 0.  0.
        -12    1    1    2    0    0 -0.57633792093E+01 -0.52012207567E+01  0.30926542861E+02  0.31886051662E+02  0.00000000000E+00 0.  1.
         11    1    3    3    0    0  0.11230523262E+02  0.16815905505E+02 -0.15599149476E+02  0.25538848747E+02  0.51100000000E-03 0. -1.
        -11    1    3    3    0    0  0.27723731459E+01 -0.18219837062E+02 -0.13949127029E+02  0.23113343777E+02  0.51100000000E-03 0.  1.
        -12    1    3    3    0    0 -0.82395171983E+01  0.66051523140E+01 -0.13782663556E+01  0.10649755814E+02  0.00000000000E+00 0.  1.
</event>
<event>
 7    1  0.1139627E-011  0.5930195E+02  0.7816164E-02  0.1266605E+00
        -11   -1    0    0    0    0  0.00000000000E+00  0.00000000000E+00  0.45593999997E+02  0.45594000000E+02  0.51100000000E-03 0.  1.
         11   -1    0    0    0    0 -0.00000000000E+00 -0.00000000000E+00 -0.45593999997E+02  0.45594000000E+02  0.51100000000E-03 0. -1.
    9900012    2    1    2    0    0  0.70340996738E+01  0.24352680177E+02 -0.19343963083E+02  0.59301945089E+02  0.50000001936E+02 0.  0.
        -12    1    1    2    0    0 -0.70340996738E+01 -0.24352680177E+02  0.19343963083E+02  0.31886054911E+02  0.00000000000E+00 0.  1.
         11    1    3    3    0    0  0.84190314287E+01  0.14151300710E+02 -0.21153896794E+02  0.26807214548E+02  0.51100000000E-03 0. -1.
        -11    1    3    3    0    0 -0.15992251425E+02  0.49226844684E+01 -0.76813213766E+00  0.16750371795E+02  0.51100000000E-03 0.  1.
        -12    1    3    3    0    0  0.14607319670E+02  0.52786949983E+01  0.25780658483E+01  0.15744358747E+02  0.00000000000E+00 0.  1.
</event>
<event>
 7    1  0.1139627E-011  0.5930193E+02  0.7816164E-02  0.1266605E+00
        -11   -1    0    0    0    0  0.00000000000E+00  0.00000000000E+00  0.45593999997E+02  0.45594000000E+02  0.51100000000E-03 0. -1.
         11   -1    0    0    0    0 -0.00000000000E+00 -0.00000000000E+00 -0.45593999997E+02  0.45594000000E+02  0.51100000000E-03 0.  1.
    9900012    2    1    2    0    0  0.22853953263E+02  0.17496123228E+02  0.13722381105E+02  0.59301933279E+02  0.49999980397E+02 0.  0.
        -12    1    1    2    0    0 -0.22853953263E+02 -0.17496123228E+02 -0.13722381105E+02  0.31886066721E+02  0.00000000000E+00 0.  1.
         11    1    3    3    0    0  0.17700942358E+02  0.13110550834E+01  0.19215476280E+02  0.26158684117E+02  0.51100000000E-03 0. -1.
        -11    1    3    3    0    0 -0.40261633113E+01 -0.78699306116E+00 -0.12077687251E+02  0.12755386262E+02  0.51100000000E-03 0.  1.
        -12    1    3    3    0    0  0.91791742157E+01  0.16972061205E+02  0.65845920763E+01  0.20387862901E+02  0.00000000000E+00 0.  1.
</event>
<event>
 7    1  0.1139627E-011  0.5930194E+02  0.7816164E-02  0.1266605E+00
        -11   -1    0    0    0    0  0.00000000000E+00  0.00000000000E+00  0.45593999997E+02  0.45594000000E+02  0.51100000000E-03 0. -1.
         11   -1    0    0    0    0 -0.00000000000E+00 -0.00000000000E+00 -0.45593999997E+02  0.45594000000E+02  0.51100000000E-03 0.  1.
    9900012    2    1    2    0    0 -0.22775724533E+02 -0.15708285481E+02  0.15850452029E+02  0.59301942071E+02  0.49999996431E+02 0.  0.
        -12    1    1    2    0    0  0.22775724533E+02  0.15708285481E+02 -0.15850452029E+02  0.31886057929E+02  0.00000000000E+00 0.  1.
         11    1    3    3    0    0 -0.15294151195E+02 -0.19840023890E+02  0.21125065284E+02  0.32768979115E+02  0.51100000000E-03 0. -1.
        -11    1    3    3    0    0 -0.12679622446E+01  0.14153012269E+02 -0.30617525163E+01  0.14535811408E+02  0.51100000000E-03 0.  1.
        -12    1    3    3    0    0 -0.62136110931E+01 -0.10021273860E+02 -0.22128607388E+01  0.11997151547E+02  0.00000000000E+00 0.  1.
</event>
<event>
 7    1  0.1139627E-011  0.5930194E+02  0.7816164E-02  0.1266605E+00
        -11   -1    0    0    0    0  0.00000000000E+00  0.00000000000E+00  0.45593999997E+02  0.45594000000E+02  0.51100000000E-03 0.  1.
         11   -1    0    0    0    0 -0.00000000000E+00 -0.00000000000E+00 -0.45593999997E+02  0.45594000000E+02  0.51100000000E-03 0. -1.
    9900012    2    1    2    0    0 -0.21478108911E+02 -0.23139614257E+02  0.44688006540E+01  0.59301935809E+02  0.49999985010E+02 0.  0.
        -12    1    1    2    0    0  0.21478108911E+02  0.23139614257E+02 -0.44688006540E+01  0.31886064191E+02  0.00000000000E+00 0.  1.
         11    1    3    3    0    0 -0.10241481619E+02 -0.51871692392E+00 -0.13370780668E+02  0.16850364653E+02  0.51100000000E-03 0. -1.
        -11    1    3    3    0    0  0.63936099685E+01 -0.17987636623E+02  0.14373097620E+02  0.23896009189E+02  0.51100000000E-03 0.  1.
         12    1    3    3    0    0 -0.17630237260E+02 -0.46332607101E+01  0.34664837021E+01  0.18555561967E+02  0.00000000000E+00 0. -1.
</event>
<event>
 7    1  0.1203596E-011  0.5930193E+02  0.7816164E-02  0.1266605E+00
        -11   -1    0    0    0    0  0.00000000000E+00  0.00000000000E+00  0.45593999997E+02  0.45594000000E+02  0.51100000000E-03 0.  1.
         11   -1    0    0    0    0 -0.00000000000E+00 -0.00000000000E+00 -0.45593999997E+02  0.45594000000E+02  0.51100000000E-03 0. -1.
    9900012    2    1    2    0    0  0.48309350634E+01  0.26874646217E+02 -0.16466226418E+02  0.59301934778E+02  0.49999983131E+02 0.  0.
        -12    1    1    2    0    0 -0.48309350634E+01 -0.26874646217E+02  0.16466226418E+02  0.31886065222E+02  0.00000000000E+00 0.  1.
         11    1    3    3    0    0 -0.55035719489E+01 -0.53408843120E+01 -0.80930074175E+01  0.11149489618E+02  0.51100000000E-03 0. -1.
        -11    1    3    3    0    0  0.17564927357E+02  0.26501337482E+02 -0.16539953439E+02  0.35838772599E+02  0.51100000000E-03 0.  1.
        -12    1    3    3    0    0 -0.72304203451E+01  0.57141930475E+01  0.81667344379E+01  0.12313672561E+02  0.00000000000E+00 0.  1.
</event>
<event>
 7    1  0.1139627E-011  0.5930181E+02  0.7816164E-02  0.1266605E+00
        -11   -1    0    0    0    0  0.00000000000E+00  0.00000000000E+00  0.45593999997E+02  0.45594000000E+02  0.51100000000E-03 0.  1.
         11   -1    0    0    0    0 -0.00000000000E+00 -0.00000000000E+00 -0.45593999997E+02  0.45594000000E+02  0.51100000000E-03 0. -1.
    9900012    2    1    2    0    0 -0.20991364642E+02 -0.18594345366E+02 -0.15177013405E+02  0.59301814825E+02  0.49999764365E+02 0.  0.
        -12    1    1    2    0    0  0.20991364642E+02  0.18594345366E+02  0.15177013405E+02  0.31886185175E+02  0.00000000000E+00 0.  1.
         11    1    3    3    0    0 -0.62279554768E+01 -0.18526495254E+02 -0.25890656873E+02  0.32439860810E+02  0.51100000000E-03 0. -1.
        -11    1    3    3    0    0 -0.18617033137E+02  0.32120164112E+01  0.56875224390E+01  0.19729644801E+02  0.51100000000E-03 0.  1.
        -12    1    3    3    0    0  0.38536239717E+01 -0.32798665230E+01  0.50261210289E+01  0.71323092138E+01  0.00000000000E+00 0.  1.
</event>
<event>
 7    1  0.1139627E-011  0.5930196E+02  0.7816164E-02  0.1266605E+00
        -11   -1    0    0    0    0  0.00000000000E+00  0.00000000000E+00  0.45593999997E+02  0.45594000000E+02  0.51100000000E-03 0.  1.
         11   -1    0    0    0    0 -0.00000000000E+00 -0.00000000000E+00 -0.45593999997E+02  0.45594000000E+02  0.51100000000E-03 0. -1.
    9900012    2    1    2    0    0 -0.59388918128E+01 -0.14426043720E+02 -0.27808966733E+02  0.59301955966E+02  0.50000021773E+02 0.  0.
        -12    1    1    2    0    0  0.59388918128E+01  0.14426043720E+02  0.27808966733E+02  0.31886044034E+02  0.00000000000E+00 0.  1.
         11    1    3    3    0    0  0.10386206054E+02 -0.19198297004E+02 -0.49476175503E+01  0.22381394142E+02  0.51100000000E-03 0. -1.
        -11    1    3    3    0    0 -0.15581684567E+02 -0.32358747141E+01 -0.39897177628E+01  0.16406633634E+02  0.51100000000E-03 0.  1.
         12    1    3    3    0    0 -0.74341329983E+00  0.80081279983E+01 -0.18871631420E+02  0.20513928191E+02  0.00000000000E+00 0. -1.
</event>
<event>
 7    1  0.1139627E-011  0.5930196E+02  0.7816164E-02  0.1266605E+00
        -11   -1    0    0    0    0  0.00000000000E+00  0.00000000000E+00  0.45593999997E+02  0.45594000000E+02  0.51100000000E-03 0.  1.
         11   -1    0    0    0    0 -0.00000000000E+00 -0.00000000000E+00 -0.45593999997E+02  0.45594000000E+02  0.51100000000E-03 0. -1.
    9900012    2    1    2    0    0 -0.15656861600E+02 -0.90413422466E+01 -0.26264740964E+02  0.59301955989E+02  0.50000021814E+02 0.  0.
        -12    1    1    2    0    0  0.15656861600E+02  0.90413422466E+01  0.26264740964E+02  0.31886044011E+02  0.00000000000E+00 0.  1.
         11    1    3    3    0    0 -0.19866321751E+02 -0.81474875401E+01 -0.51585974230E+01  0.22083102607E+02  0.51100000000E-03 0. -1.
        -11    1    3    3    0    0  0.15497132606E+02  0.43320897032E+01 -0.18483784392E+02  0.24506701246E+02  0.51100000000E-03 0.  1.
        -12    1    3    3    0    0 -0.11287672455E+02 -0.52259444097E+01 -0.26223591486E+01  0.12712152136E+02  0.00000000000E+00 0.  1.
</event>
<event>
 7    1  0.1139627E-011  0.5930195E+02  0.7816164E-02  0.1266605E+00
        -11   -1    0    0    0    0  0.00000000000E+00  0.00000000000E+00  0.45593999997E+02  0.45594000000E+02  0.51100000000E-03 0. -1.
         11   -1    0    0    0    0 -0.00000000000E+00 -0.00000000000E+00 -0.45593999997E+02  0.45594000000E+02  0.51100000000E-03 0.  1.
    9900012    2    1    2    0    0  0.22180943697E+02 -0.58398120179E+01  0.22150000395E+02  0.59301949990E+02  0.50000010874E+02 0.  0.
        -12    1    1    2    0    0 -0.22180943697E+02  0.58398120179E+01 -0.22150000395E+02  0.31886050010E+02  0.00000000000E+00 0.  1.
         11    1    3    3    0    0  0.33308743765E+02 -0.23933939747E+01  0.14351291194E+02  0.36347768915E+02  0.51100000000E-03 0. -1.
        -11    1    3    3    0    0 -0.68203677320E+01  0.91158554911E+00 -0.51726230595E+01  0.86083932176E+01  0.51100000000E-03 0.  1.
         12    1    3    3    0    0 -0.43074323354E+01 -0.43580035923E+01  0.12971332261E+02  0.14345787858E+02  0.00000000000E+00 0. -1.
</event>
<event>
 7    1  0.1139627E-011  0.5930193E+02  0.7816164E-02  0.1266605E+00
        -11   -1    0    0    0    0  0.00000000000E+00  0.00000000000E+00  0.45593999997E+02  0.45594000000E+02  0.51100000000E-03 0. -1.
         11   -1    0    0    0    0 -0.00000000000E+00 -0.00000000000E+00 -0.45593999997E+02  0.45594000000E+02  0.51100000000E-03 0.  1.
    9900012    2    1    2    0    0 -0.59052801905E+01  0.12441691849E+02  0.28758533144E+02  0.59301933156E+02  0.49999980173E+02 0.  0.
        -12    1    1    2    0    0  0.59052801905E+01 -0.12441691849E+02 -0.28758533144E+02  0.31886066844E+02  0.00000000000E+00 0.  1.
         11    1    3    3    0    0 -0.78087133786E+01  0.10063885261E+02  0.32556518947E+02  0.34959758543E+02  0.51100000000E-03 0. -1.
        -11    1    3    3    0    0  0.29995930701E+01  0.19778123977E+01 -0.13806255129E+02  0.14266113045E+02  0.51100000000E-03 0.  1.
        -12    1    3    3    0    0 -0.10961598821E+01  0.39999419045E+00  0.10008269325E+02  0.10076061568E+02  0.00000000000E+00 0.  1.
</event>
<event>
 7    1  0.1139627E-011  0.5930190E+02  0.7816164E-02  0.1266605E+00
        -11   -1    0    0    0    0  0.00000000000E+00  0.00000000000E+00  0.45593999997E+02  0.45594000000E+02  0.51100000000E-03 0. -1.
         11   -1    0    0    0    0 -0.00000000000E+00 -0.00000000000E+00 -0.45593999997E+02  0.45594000000E+02  0.51100000000E-03 0.  1.
    9900012    2    1    2    0    0  0.51854156274E+00 -0.25027241420E+02  0.19750745455E+02  0.59301895747E+02  0.49999911947E+02 0.  0.
        -12    1    1    2    0    0 -0.51854156274E+00  0.25027241420E+02 -0.19750745455E+02  0.31886104253E+02  0.00000000000E+00 0.  1.
         11    1    3    3    0    0  0.79306331695E+00 -0.16132927156E+02 -0.59057027717E+01  0.17198186344E+02  0.51100000000E-03 0. -1.
        -11    1    3    3    0    0  0.13852858680E+02 -0.66572237368E+01  0.22833589257E+02  0.27524409532E+02  0.51100000000E-03 0.  1.
        -12    1    3    3    0    0 -0.14127380434E+02 -0.22370905272E+01  0.28228589695E+01  0.14579299871E+02  0.00000000000E+00 0.  1.
</event>
<event>
 7    1  0.1139627E-011  0.5930193E+02  0.7816164E-02  0.1266605E+00
        -11   -1    0    0    0    0  0.00000000000E+00  0.00000000000E+00  0.45593999997E+02  0.45594000000E+02  0.51100000000E-03 0.  1.
         11   -1    0    0    0    0 -0.00000000000E+00 -0.00000000000E+00 -0.45593999997E+02  0.45594000000E+02  0.51100000000E-03 0. -1.
    9900012    2    1    2    0    0  0.20868812708E+02  0.20930243580E+02 -0.11964069476E+02  0.59301930963E+02  0.49999976174E+02 0.  0.
        -12    1    1    2    0    0 -0.20868812708E+02 -0.20930243580E+02  0.11964069476E+02  0.31886069037E+02  0.00000000000E+00 0.  1.
         11    1    3    3    0    0  0.70298455928E+01 -0.68240621744E+01 -0.16466389787E+02  0.19160598803E+02  0.51100000000E-03 0. -1.
        -11    1    3    3    0    0  0.55599902904E+01  0.30320548196E+02  0.11484719500E+01  0.30847497841E+02  0.51100000000E-03 0.  1.
        -12    1    3    3    0    0  0.82789768248E+01 -0.25662424416E+01  0.33538483607E+01  0.92938343196E+01  0.00000000000E+00 0.  1.
</event>
<event>
 7    1  0.1139627E-011  0.5930199E+02  0.7816164E-02  0.1266605E+00
        -11   -1    0    0    0    0  0.00000000000E+00  0.00000000000E+00  0.45593999997E+02  0.45594000000E+02  0.51100000000E-03 0. -1.
         11   -1    0    0    0    0 -0.00000000000E+00 -0.00000000000E+00 -0.45593999997E+02  0.45594000000E+02  0.51100000000E-03 0.  1.
    9900012    2    1    2    0    0 -0.14607772120E+02  0.25614200294E+02  0.12134395002E+02  0.59301987313E+02  0.50000078941E+02 0.  0.
        -12    1    1    2    0    0  0.14607772120E+02 -0.25614200294E+02 -0.12134395002E+02  0.31886012687E+02  0.00000000000E+00 0.  1.
         11    1    3    3    0    0  0.13329170037E+02  0.82839736713E+01  0.95708348184E+01  0.18381835410E+02  0.51100000000E-03 0. -1.
        -11    1    3    3    0    0 -0.11980276409E+02  0.18838756769E+02  0.84134257541E+01  0.23858154007E+02  0.51100000000E-03 0.  1.
         12    1    3    3    0    0 -0.15956665748E+02 -0.15085301463E+01 -0.58498655707E+01  0.17061997895E+02  0.00000000000E+00 0. -1.
</event>
<event>
 7    1  0.1139627E-011  0.5930192E+02  0.7816164E-02  0.1266605E+00
        -11   -1    0    0    0    0  0.00000000000E+00  0.00000000000E+00  0.45593999997E+02  0.45594000000E+02  0.51100000000E-03 0.  1.
         11   -1    0    0    0    0 -0.00000000000E+00 -0.00000000000E+00 -0.45593999997E+02  0.45594000000E+02  0.51100000000E-03 0. -1.
    9900012    2    1    2    0    0 -0.13008405048E+01  0.16704765362E+02 -0.27128965906E+02  0.59301918978E+02  0.49999954314E+02 0.  0.
        -12    1    1    2    0    0  0.13008405048E+01 -0.16704765362E+02  0.27128965906E+02  0.31886081022E+02  0.00000000000E+00 0.  1.
         11    1    3    3    0    0 -0.94473999174E+01 -0.44697804694E+01 -0.82956521977E+01  0.13343543318E+02  0.51100000000E-03 0. -1.
        -11    1    3    3    0    0  0.46654649175E+01  0.24297806999E+02 -0.26953637517E+02  0.36587546563E+02  0.51100000000E-03 0.  1.
        -12    1    3    3    0    0  0.34810944951E+01 -0.31232611677E+01  0.81203238078E+01  0.93708290961E+01  0.00000000000E+00 0.  1.
</event>
<event>
 7    1  0.1139627E-011  0.5930191E+02  0.7816164E-02  0.1266605E+00
        -11   -1    0    0    0    0  0.00000000000E+00  0.00000000000E+00  0.45593999997E+02  0.45594000000E+02  0.51100000000E-03 0. -1.
         11   -1    0    0    0    0 -0.00000000000E+00 -0.00000000000E+00 -0.45593999997E+02  0.45594000000E+02  0.51100000000E-03 0.  1.
    9900012    2    1    2    0    0 -0.18785720148E+02 -0.14791525274E+02  0.21095736674E+02  0.59301912011E+02  0.49999941609E+02 0.  0.
        -12    1    1    2    0    0  0.18785720148E+02  0.14791525274E+02 -0.21095736674E+02  0.31886087989E+02  0.00000000000E+00 0.  1.
         11    1    3    3    0    0  0.62770694640E+01 -0.22052629835E+02  0.31782473010E+01  0.23147815013E+02  0.51100000000E-03 0. -1.
        -11    1    3    3    0    0 -0.95812611394E+01  0.33654715993E+01 -0.22813926908E+01  0.10408252350E+02  0.51100000000E-03 0.  1.
         12    1    3    3    0    0 -0.15481528473E+02  0.38956329620E+01  0.20198882064E+02  0.25745844649E+02  0.00000000000E+00 0. -1.
</event>
<event>
 7    1  0.1139627E-011  0.5930209E+02  0.7816164E-02  0.1266604E+00
        -11   -1    0    0    0    0  0.00000000000E+00  0.00000000000E+00  0.45593999997E+02  0.45594000000E+02  0.51100000000E-03 0.  1.
         11   -1    0    0    0    0 -0.00000000000E+00 -0.00000000000E+00 -0.45593999997E+02  0.45594000000E+02  0.51100000000E-03 0. -1.
    9900012    2    1    2    0    0 -0.29228511769E+02 -0.36769533115E+00 -0.12738522749E+02  0.59302093052E+02  0.50000271783E+02 0.  0.
        -12    1    1    2    0    0  0.29228511769E+02  0.36769533115E+00  0.12738522749E+02  0.31885906948E+02  0.00000000000E+00 0.  1.
         11    1    3    3    0    0 -0.52457354940E+01 -0.60779252778E+01 -0.43779773000E+01  0.91447034975E+01  0.51100000000E-03 0. -1.
        -11    1    3    3    0    0 -0.22910978026E+02  0.16415617743E+01  0.14334547446E+02  0.27075577370E+02  0.51100000000E-03 0.  1.
        -12    1    3    3    0    0 -0.10717982495E+01  0.40686681724E+01 -0.22695092896E+02  0.23081812185E+02  0.00000000000E+00 0.  1.
</event>
<event>
 7    1  0.1139627E-011  0.5930195E+02  0.7816164E-02  0.1266605E+00
        -11   -1    0    0    0    0  0.00000000000E+00  0.00000000000E+00  0.45593999997E+02  0.45594000000E+02  0.51100000000E-03 0. -1.
         11   -1    0    0    0    0 -0.00000000000E+00 -0.00000000000E+00 -0.45593999997E+02  0.45594000000E+02  0.51100000000E-03 0.  1.
    9900012    2    1    2    0    0 -0.17516286144E+01  0.30269238201E+02  0.98704248213E+01  0.59301948657E+02  0.50000008443E+02 0.  0.
        -12    1    1    2    0    0  0.17516286144E+01 -0.30269238201E+02 -0.98704248213E+01  0.31886051343E+02  0.00000000000E+00 0.  1.
         11    1    3    3    0    0  0.15017323189E+02 -0.32598281095E+01  0.84968494186E+01  0.17559696050E+02  0.51100000000E-03 0.  1.
        -11    1    3    3    0    0 -0.68409154126E+01  0.22642185599E+02 -0.71630998852E+01  0.24713896750E+02  0.51100000000E-03 0. -1.
         12    1    3    3    0    0 -0.99280363908E+01  0.10886880712E+02  0.85366752879E+01  0.17028355857E+02  0.00000000000E+00 0. -1.
</event>
<event>
 7    1  0.1139627E-011  0.5930194E+02  0.7816164E-02  0.1266605E+00
        -11   -1    0    0    0    0  0.00000000000E+00  0.00000000000E+00  0.45593999997E+02  0.45594000000E+02  0.51100000000E-03 0. -1.
         11   -1    0    0    0    0 -0.00000000000E+00 -0.00000000000E+00 -0.45593999997E+02  0.45594000000E+02  0.51100000000E-03 0.  1.
    9900012    2    1    2    0    0  0.26086231071E+02  0.90258900416E+01 -0.15961290850E+02  0.59301938027E+02  0.49999989057E+02 0.  0.
        -12    1    1    2    0    0 -0.26086231071E+02 -0.90258900416E+01  0.15961290850E+02  0.31886061973E+02  0.00000000000E+00 0.  1.
         11    1    3    3    0    0  0.12796843018E+02  0.17337399768E+02 -0.21333747824E+02  0.30322820093E+02  0.51100000000E-03 0. -1.
        -11    1    3    3    0    0 -0.53395387281E+01 -0.82682446475E+01  0.15916868818E+01  0.99703566020E+01  0.51100000000E-03 0.  1.
         12    1    3    3    0    0  0.18628926781E+02 -0.43265078747E-01  0.37807700924E+01  0.19008761332E+02  0.00000000000E+00 0. -1.
</event>
<event>
 7    1  0.1139627E-011  0.5930194E+02  0.7816164E-02  0.1266605E+00
        -11   -1    0    0    0    0  0.00000000000E+00  0.00000000000E+00  0.45593999997E+02  0.45594000000E+02  0.51100000000E-03 0. -1.
         11   -1    0    0    0    0 -0.00000000000E+00 -0.00000000000E+00 -0.45593999997E+02  0.45594000000E+02  0.51100000000E-03 0.  1.
    9900012    2    1    2    0    0  0.50024880151E+01  0.30986425944E+02  0.56158343544E+01  0.59301936044E+02  0.49999985440E+02 0.  0.
        -12    1    1    2    0    0 -0.50024880151E+01 -0.30986425944E+02 -0.56158343544E+01  0.31886063956E+02  0.00000000000E+00 0.  1.
         11    1    3    3    0    0  0.58167415168E+00  0.19392058876E+02 -0.22228177702E+01  0.19527703689E+02  0.51100000000E-03 0. -1.
        -11    1    3    3    0    0  0.18596781727E+02  0.15146651366E+00 -0.25987692568E+01  0.18778094542E+02  0.51100000000E-03 0.  1.
        -12    1    3    3    0    0 -0.14175967864E+02  0.11442900554E+02  0.10437421381E+02  0.20996137813E+02  0.00000000000E+00 0.  1.
</event>
<event>
 7    1  0.1139627E-011  0.5930184E+02  0.7816164E-02  0.1266605E+00
        -11   -1    0    0    0    0  0.00000000000E+00  0.00000000000E+00  0.45593999997E+02  0.45594000000E+02  0.51100000000E-03 0. -1.
         11   -1    0    0    0    0 -0.00000000000E+00 -0.00000000000E+00 -0.45593999997E+02  0.45594000000E+02  0.51100000000E-03 0.  1.
    9900012    2    1    2    0    0 -0.95468851527E+01  0.41517370510E+01  0.30138799807E+02  0.59301840143E+02  0.49999810538E+02 0.  0.
        -12    1    1    2    0    0  0.95468851527E+01 -0.41517370510E+01 -0.30138799807E+02  0.31886159857E+02  0.00000000000E+00 0.  1.
         11    1    3    3    0    0 -0.21272881076E+02  0.90983998407E+01  0.19421662214E+02  0.30207901489E+02  0.51100000000E-03 0. -1.
        -11    1    3    3    0    0  0.18068873031E+02 -0.10422002677E+01  0.11743916847E+02  0.21575215808E+02  0.51100000000E-03 0.  1.
         12    1    3    3    0    0 -0.63428771074E+01 -0.39044625221E+01 -0.10267792550E+01  0.75187228453E+01  0.00000000000E+00 0. -1.
</event>
<event>
 7    1  0.1139627E-011  0.5930195E+02  0.7816164E-02  0.1266605E+00
        -11   -1    0    0    0    0  0.00000000000E+00  0.00000000000E+00  0.45593999997E+02  0.45594000000E+02  0.51100000000E-03 0. -1.
         11   -1    0    0    0    0 -0.00000000000E+00 -0.00000000000E+00 -0.45593999997E+02  0.45594000000E+02  0.51100000000E-03 0.  1.
    9900012    2    1    2    0    0 -0.19503431604E+02  0.92971826638E+01  0.23449925837E+02  0.59301945500E+02  0.50000002686E+02 0.  0.
        -12    1    1    2    0    0  0.19503431604E+02 -0.92971826638E+01 -0.23449925837E+02  0.31886054500E+02  0.00000000000E+00 0.  1.
         11    1    3    3    0    0  0.46290700597E+01  0.70515209491E+01  0.28126414090E+02  0.29364049570E+02  0.51100000000E-03 0. -1.
        -11    1    3    3    0    0 -0.24231872190E+01  0.32735501077E+01 -0.69812072175E+01  0.80824019375E+01  0.51100000000E-03 0.  1.
         12    1    3    3    0    0 -0.21709314444E+02 -0.10278883930E+01  0.23047189647E+01  0.21855493993E+02  0.00000000000E+00 0. -1.
</event>
<event>
 7    1  0.1139627E-011  0.5930195E+02  0.7816164E-02  0.1266605E+00
        -11   -1    0    0    0    0  0.00000000000E+00  0.00000000000E+00  0.45593999997E+02  0.45594000000E+02  0.51100000000E-03 0.  1.
         11   -1    0    0    0    0 -0.00000000000E+00 -0.00000000000E+00 -0.45593999997E+02  0.45594000000E+02  0.51100000000E-03 0. -1.
    9900012    2    1    2    0    0 -0.50233371240E+01  0.21559842471E+02 -0.22949062033E+02  0.59301950207E+02  0.50000011269E+02 0.  0.
        -12    1    1    2    0    0  0.50233371240E+01 -0.21559842471E+02  0.22949062033E+02  0.31886049793E+02  0.00000000000E+00 0.  1.
         11    1    3    3    0    0  0.79289662733E+01 -0.85098633222E+01 -0.17894330249E+02  0.21342289832E+02  0.51100000000E-03 0. -1.
        -11    1    3    3    0    0 -0.54788975165E+01  0.12287691319E+02  0.70483002708E+01  0.15188291969E+02  0.51100000000E-03 0.  1.
         12    1    3    3    0    0 -0.74734058808E+01  0.17782014473E+02 -0.12103032054E+02  0.22771368406E+02  0.00000000000E+00 0. -1.
</event>
<event>
 7    1  0.1139627E-011  0.5930194E+02  0.7816164E-02  0.1266605E+00
        -11   -1    0    0    0    0  0.00000000000E+00  0.00000000000E+00  0.45593999997E+02  0.45594000000E+02  0.51100000000E-03 0. -1.
         11   -1    0    0    0    0 -0.00000000000E+00 -0.00000000000E+00 -0.45593999997E+02  0.45594000000E+02  0.51100000000E-03 0.  1.
    9900012    2    1    2    0    0  0.30230521483E+02  0.95692297549E+01  0.33564850854E+01  0.59301943809E+02  0.49999999602E+02 0.  0.
        -12    1    1    2    0    0 -0.30230521483E+02 -0.95692297549E+01 -0.33564850854E+01  0.31886056191E+02  0.00000000000E+00 0.  1.
         11    1    3    3    0    0  0.20228591690E+02  0.13379995934E+02 -0.72014078763E+01  0.25299812027E+02  0.51100000000E-03 0. -1.
        -11    1    3    3    0    0 -0.10399228066E+02  0.29614450491E+01  0.39889365364E+01  0.11525003953E+02  0.51100000000E-03 0.  1.
        -12    1    3    3    0    0  0.20401157860E+02 -0.67722112284E+01  0.65689564252E+01  0.22477127829E+02  0.00000000000E+00 0.  1.
</event>
<event>
 7    1  0.1139627E-011  0.5930190E+02  0.7816164E-02  0.1266605E+00
        -11   -1    0    0    0    0  0.00000000000E+00  0.00000000000E+00  0.45593999997E+02  0.45594000000E+02  0.51100000000E-03 0.  1.
         11   -1    0    0    0    0 -0.00000000000E+00 -0.00000000000E+00 -0.45593999997E+02  0.45594000000E+02  0.51100000000E-03 0. -1.
    9900012    2    1    2    0    0  0.10393526388E+02  0.80171660296E+01 -0.29058959651E+02  0.59301898358E+02  0.49999916709E+02 0.  0.
        -12    1    1    2    0    0 -0.10393526388E+02 -0.80171660296E+01  0.29058959651E+02  0.31886101642E+02  0.00000000000E+00 0.  1.
         11    1    3    3    0    0 -0.50231054530E+01  0.11533367300E+02 -0.24283354599E+02  0.27348335608E+02  0.51100000000E-03 0. -1.
        -11    1    3    3    0    0  0.18233739106E+02  0.57972530939E+01  0.31667019781E+01  0.19393436697E+02  0.51100000000E-03 0.  1.
         12    1    3    3    0    0 -0.28171072652E+01 -0.93134543639E+01 -0.79423070300E+01  0.12560126054E+02  0.00000000000E+00 0. -1.
</event>
<event>
 7    1  0.1139627E-011  0.5930191E+02  0.7816164E-02  0.1266605E+00
        -11   -1    0    0    0    0  0.00000000000E+00  0.00000000000E+00  0.45593999997E+02  0.45594000000E+02  0.51100000000E-03 0. -1.
         11   -1    0    0    0    0 -0.00000000000E+00 -0.00000000000E+00 -0.45593999997E+02  0.45594000000E+02  0.51100000000E-03 0.  1.
    9900012    2    1    2    0    0  0.19512387386E+01 -0.31825873303E+02  0.16998388807E+00  0.59301914655E+02  0.49999946432E+02 0.  0.
        -12    1    1    2    0    0 -0.19512387386E+01  0.31825873303E+02 -0.16998388807E+00  0.31886085345E+02  0.00000000000E+00 0.  1.
         11    1    3    3    0    0 -0.28842918753E+01 -0.46014472764E+01  0.16496744253E+02  0.17367643129E+02  0.51100000000E-03 0. -1.
        -11    1    3    3    0    0  0.38574292559E+00 -0.10343901221E+01 -0.15309692735E+02  0.15349444694E+02  0.51100000000E-03 0.  1.
         12    1    3    3    0    0  0.44497876882E+01 -0.26190035904E+02 -0.10170676296E+01  0.26584826832E+02  0.00000000000E+00 0. -1.
</event>
<event>
 7    1  0.1139627E-011  0.5930195E+02  0.7816164E-02  0.1266605E+00
        -11   -1    0    0    0    0  0.00000000000E+00  0.00000000000E+00  0.45593999997E+02  0.45594000000E+02  0.51100000000E-03 0.  1.
         11   -1    0    0    0    0 -0.00000000000E+00 -0.00000000000E+00 -0.45593999997E+02  0.45594000000E+02  0.51100000000E-03 0. -1.
    9900012    2    1    2    0    0 -0.17791714372E+02  0.13384129504E+02 -0.22826309472E+02  0.59301946199E+02  0.50000003960E+02 0.  0.
        -12    1    1    2    0    0  0.17791714372E+02 -0.13384129504E+02  0.22826309472E+02  0.31886053801E+02  0.00000000000E+00 0.  1.
         11    1    3    3    0    0  0.24898321684E+01  0.45307588696E+01 -0.35191070432E+00  0.51817836278E+01  0.51100000000E-03 0. -1.
        -11    1    3    3    0    0  0.48704504239E+01 -0.11736611561E+02 -0.16894382086E+02  0.21139760750E+02  0.51100000000E-03 0.  1.
        -12    1    3    3    0    0 -0.25151996965E+02  0.20589982195E+02 -0.55800166813E+01  0.32980401821E+02  0.00000000000E+00 0.  1.
</event>
<event>
 7    1  0.1139627E-011  0.5930197E+02  0.7816164E-02  0.1266605E+00
        -11   -1    0    0    0    0  0.00000000000E+00  0.00000000000E+00  0.45593999997E+02  0.45594000000E+02  0.51100000000E-03 0.  1.
         11   -1    0    0    0    0 -0.00000000000E+00 -0.00000000000E+00 -0.45593999997E+02  0.45594000000E+02  0.51100000000E-03 0. -1.
    9900012    2    1    2    0    0  0.16672794154E+02 -0.17699743992E+01 -0.27122024121E+02  0.59301967530E+02  0.50000042862E+02 0.  0.
        -12    1    1    2    0    0 -0.16672794154E+02  0.17699743992E+01  0.27122024121E+02  0.31886032470E+02  0.00000000000E+00 0.  1.
         11    1    3    3    0    0  0.87923758484E+00 -0.17990218479E+02 -0.13642804255E+02  0.22595289949E+02  0.51100000000E-03 0. -1.
        -11    1    3    3    0    0  0.13308249846E+02  0.10670009008E+02  0.45711824678E+01  0.17659397374E+02  0.51100000000E-03 0.  1.
        -12    1    3    3    0    0  0.24853067226E+01  0.55502350721E+01 -0.18050402334E+02  0.19047280207E+02  0.00000000000E+00 0.  1.
</event>
<event>
 7    1  0.1139627E-011  0.5930190E+02  0.7816164E-02  0.1266605E+00
        -11   -1    0    0    0    0  0.00000000000E+00  0.00000000000E+00  0.45593999997E+02  0.45594000000E+02  0.51100000000E-03 0. -1.
         11   -1    0    0    0    0 -0.00000000000E+00 -0.00000000000E+00 -0.45593999997E+02  0.45594000000E+02  0.51100000000E-03 0.  1.
    9900012    2    1    2    0    0 -0.30220368557E+02  0.90556282825E+00  0.10130770239E+02  0.59301902318E+02  0.49999923931E+02 0.  0.
        -12    1    1    2    0    0  0.30220368557E+02 -0.90556282825E+00 -0.10130770239E+02  0.31886097682E+02  0.00000000000E+00 0.  1.
         11    1    3    3    0    0 -0.15988901858E+02 -0.78998749452E+01  0.12235671601E+02  0.21627867823E+02  0.51100000000E-03 0. -1.
        -11    1    3    3    0    0 -0.15781815329E+01  0.10708388511E+02 -0.15657971226E+02  0.19035028359E+02  0.51100000000E-03 0.  1.
        -12    1    3    3    0    0 -0.12653285166E+02 -0.19029507379E+01  0.13553069864E+02  0.18639006136E+02  0.00000000000E+00 0.  1.
</event>
<event>
 7    1  0.1139627E-011  0.5930195E+02  0.7816164E-02  0.1266605E+00
        -11   -1    0    0    0    0  0.00000000000E+00  0.00000000000E+00  0.45593999997E+02  0.45594000000E+02  0.51100000000E-03 0. -1.
         11   -1    0    0    0    0 -0.00000000000E+00 -0.00000000000E+00 -0.45593999997E+02  0.45594000000E+02  0.51100000000E-03 0.  1.
    9900012    2    1    2    0    0  0.22892760992E+02 -0.91791650837E+01  0.20208526619E+02  0.59301950926E+02  0.50000012580E+02 0.  0.
        -12    1    1    2    0    0 -0.22892760992E+02  0.91791650837E+01 -0.20208526619E+02  0.31886049074E+02  0.00000000000E+00 0.  1.
         11    1    3    3    0    0  0.24913131275E+02 -0.21552659454E+02  0.70555477111E+01  0.33689196981E+02  0.51100000000E-03 0. -1.
        -11    1    3    3    0    0 -0.51406864225E+01 -0.19933497038E+01  0.86117501990E+01  0.10225572927E+02  0.51100000000E-03 0.  1.
         12    1    3    3    0    0  0.31203161393E+01  0.14366844074E+02  0.45412287091E+01  0.15387181017E+02  0.00000000000E+00 0. -1.
</event>
<event>
 7    1  0.1139627E-011  0.5930194E+02  0.7816164E-02  0.1266605E+00
        -11   -1    0    0    0    0  0.00000000000E+00  0.00000000000E+00  0.45593999997E+02  0.45594000000E+02  0.51100000000E-03 0.  1.
         11   -1    0    0    0    0 -0.00000000000E+00 -0.00000000000E+00 -0.45593999997E+02  0.45594000000E+02  0.51100000000E-03 0. -1.
    9900012    2    1    2    0    0 -0.20753651722E+02  0.23815415744E+02  0.43396724282E+01  0.59301939666E+02  0.49999992046E+02 0.  0.
        -12    1    1    2    0    0  0.20753651722E+02 -0.23815415744E+02 -0.43396724282E+01  0.31886060334E+02  0.00000000000E+00 0.  1.
         11    1    3    3    0    0 -0.14810310354E+02  0.25466257721E+02 -0.69440157385E+01  0.30267060147E+02  0.51100000000E-03 0. -1.
        -11    1    3    3    0    0  0.94003079406E+01 -0.36976604964E+01  0.39483113960E+00  0.10109123326E+02  0.51100000000E-03 0.  1.
        -12    1    3    3    0    0 -0.15343649308E+02  0.20468185185E+01  0.10888857027E+02  0.18925756194E+02  0.00000000000E+00 0.  1.
</event>
<event>
 7    1  0.1139627E-011  0.5930195E+02  0.7816164E-02  0.1266605E+00
        -11   -1    0    0    0    0  0.00000000000E+00  0.00000000000E+00  0.45593999997E+02  0.45594000000E+02  0.51100000000E-03 0.  1.
         11   -1    0    0    0    0 -0.00000000000E+00 -0.00000000000E+00 -0.45593999997E+02  0.45594000000E+02  0.51100000000E-03 0. -1.
    9900012    2    1    2    0    0  0.13713777728E+02 -0.28742633143E+02  0.15854612995E+01  0.59301947452E+02  0.50000006245E+02 0.  0.
        -12    1    1    2    0    0 -0.13713777728E+02  0.28742633143E+02 -0.15854612995E+01  0.31886052548E+02  0.00000000000E+00 0.  1.
         11    1    3    3    0    0  0.10840655836E+02 -0.18846863420E+02 -0.11655098165E+02  0.24669118209E+02  0.51100000000E-03 0. -1.
        -11    1    3    3    0    0 -0.99028543266E+01 -0.32045054363E+01  0.16813707531E+02  0.19774633754E+02  0.51100000000E-03 0.  1.
        -12    1    3    3    0    0  0.12775976218E+02 -0.66912642870E+01 -0.35731480661E+01  0.14858195489E+02  0.00000000000E+00 0.  1.
</event>
<event>
 7    1  0.1139627E-011  0.5930196E+02  0.7816164E-02  0.1266605E+00
        -11   -1    0    0    0    0  0.00000000000E+00  0.00000000000E+00  0.45593999997E+02  0.45594000000E+02  0.51100000000E-03 0. -1.
         11   -1    0    0    0    0 -0.00000000000E+00 -0.00000000000E+00 -0.45593999997E+02  0.45594000000E+02  0.51100000000E-03 0.  1.
    9900012    2    1    2    0    0 -0.64621086055E+01 -0.31167978554E+02 -0.18755877746E+01  0.59301959727E+02  0.50000028632E+02 0.  0.
        -12    1    1    2    0    0  0.64621086055E+01  0.31167978554E+02  0.18755877746E+01  0.31886040273E+02  0.00000000000E+00 0.  1.
         11    1    3    3    0    0  0.85048707862E+01  0.12954577063E+01  0.73023474622E+00  0.86339029879E+01  0.51100000000E-03 0. -1.
        -11    1    3    3    0    0 -0.10595847063E+02 -0.11211663399E+01 -0.13501368969E+02  0.17199300952E+02  0.51100000000E-03 0.  1.
        -12    1    3    3    0    0 -0.43711323292E+01 -0.31342269920E+02  0.10895546448E+02  0.33468755788E+02  0.00000000000E+00 0.  1.
</event>
<event>
 7    1  0.1139627E-011  0.5930192E+02  0.7816164E-02  0.1266605E+00
        -11   -1    0    0    0    0  0.00000000000E+00  0.00000000000E+00  0.45593999997E+02  0.45594000000E+02  0.51100000000E-03 0.  1.
         11   -1    0    0    0    0 -0.00000000000E+00 -0.00000000000E+00 -0.45593999997E+02  0.45594000000E+02  0.51100000000E-03 0. -1.
    9900012    2    1    2    0    0 -0.22060003203E+02  0.19352939845E+02  0.12471643256E+02  0.59301922984E+02  0.49999961622E+02 0.  0.
        -12    1    1    2    0    0  0.22060003203E+02 -0.19352939845E+02 -0.12471643256E+02  0.31886077016E+02  0.00000000000E+00 0.  1.
         11    1    3    3    0    0  0.20251029283E+00  0.29790486591E+01 -0.15581764545E+01  0.33680343609E+01  0.51100000000E-03 0. -1.
        -11    1    3    3    0    0 -0.33853974199E+02  0.16337350509E+00  0.11931026122E+02  0.35895231502E+02  0.51100000000E-03 0.  1.
        -12    1    3    3    0    0  0.11591460704E+02  0.16210517680E+02  0.20987935882E+01  0.20038657121E+02  0.00000000000E+00 0.  1.
</event>
<event>
 7    1  0.1139627E-011  0.5930218E+02  0.7816164E-02  0.1266604E+00
        -11   -1    0    0    0    0  0.00000000000E+00  0.00000000000E+00  0.45593999997E+02  0.45594000000E+02  0.51100000000E-03 0.  1.
         11   -1    0    0    0    0 -0.00000000000E+00 -0.00000000000E+00 -0.45593999997E+02  0.45594000000E+02  0.51100000000E-03 0. -1.
    9900012    2    1    2    0    0  0.24436509422E+02 -0.20426458936E+02  0.15238376582E+01  0.59302183425E+02  0.50000436602E+02 0.  0.
        -12    1    1    2    0    0 -0.24436509422E+02  0.20426458936E+02 -0.15238376582E+01  0.31885816575E+02  0.00000000000E+00 0.  1.
         11    1    3    3    0    0  0.21831943179E+02 -0.10619477445E+02 -0.15389877296E+02  0.28744658071E+02  0.51100000000E-03 0. -1.
        -11    1    3    3    0    0 -0.20673360876E+01  0.60003439797E+01 -0.75810110444E+00  0.63916135615E+01  0.51100000000E-03 0.  1.
         12    1    3    3    0    0  0.46719023307E+01 -0.15807325471E+02  0.17671816059E+02  0.24165911792E+02  0.00000000000E+00 0. -1.
</event>
<event>
 7    1  0.1139627E-011  0.5930194E+02  0.7816164E-02  0.1266605E+00
        -11   -1    0    0    0    0  0.00000000000E+00  0.00000000000E+00  0.45593999997E+02  0.45594000000E+02  0.51100000000E-03 0.  1.
         11   -1    0    0    0    0 -0.00000000000E+00 -0.00000000000E+00 -0.45593999997E+02  0.45594000000E+02  0.51100000000E-03 0. -1.
    9900012    2    1    2    0    0  0.11383417954E+02  0.22708524568E+02 -0.19273340450E+02  0.59301938085E+02  0.49999989161E+02 0.  0.
        -12    1    1    2    0    0 -0.11383417954E+02 -0.22708524568E+02  0.19273340450E+02  0.31886061915E+02  0.00000000000E+00 0.  1.
         11    1    3    3    0    0 -0.90878343208E+01 -0.53051783120E+01 -0.54469774782E+01  0.11849186195E+02  0.51100000000E-03 0.  1.
        -11    1    3    3    0    0  0.24587595047E+02  0.94397074551E+01 -0.89015709563E+01  0.27801004888E+02  0.51100000000E-03 0. -1.
         12    1    3    3    0    0 -0.41163427716E+01  0.18573995425E+02 -0.49247920156E+01  0.19651747002E+02  0.00000000000E+00 0. -1.
</event>
<event>
 7    1  0.1139627E-011  0.5930195E+02  0.7816164E-02  0.1266605E+00
        -11   -1    0    0    0    0  0.00000000000E+00  0.00000000000E+00  0.45593999997E+02  0.45594000000E+02  0.51100000000E-03 0. -1.
         11   -1    0    0    0    0 -0.00000000000E+00 -0.00000000000E+00 -0.45593999997E+02  0.45594000000E+02  0.51100000000E-03 0.  1.
    9900012    2    1    2    0    0 -0.27174823230E+01  0.16955173688E+02  0.26867403459E+02  0.59301952996E+02  0.50000016355E+02 0.  0.
        -12    1    1    2    0    0  0.27174823230E+01 -0.16955173688E+02 -0.26867403459E+02  0.31886047004E+02  0.00000000000E+00 0.  1.
         11    1    3    3    0    0 -0.17673295778E+01  0.81822021594E+01  0.77463187152E+01  0.11405145326E+02  0.51100000000E-03 0. -1.
        -11    1    3    3    0    0  0.20324883744E+02 -0.98964569232E+00  0.68750046310E+01  0.21478966147E+02  0.51100000000E-03 0.  1.
        -12    1    3    3    0    0 -0.21275036489E+02  0.97626172204E+01  0.12246080112E+02  0.26417841523E+02  0.00000000000E+00 0.  1.
</event>
<event>
 7    1  0.1139627E-011  0.5930195E+02  0.7816164E-02  0.1266605E+00
        -11   -1    0    0    0    0  0.00000000000E+00  0.00000000000E+00  0.45593999997E+02  0.45594000000E+02  0.51100000000E-03 0. -1.
         11   -1    0    0    0    0 -0.00000000000E+00 -0.00000000000E+00 -0.45593999997E+02  0.45594000000E+02  0.51100000000E-03 0.  1.
    9900012    2    1    2    0    0  0.22725404944E+02 -0.17473484835E+02  0.13962584733E+02  0.59301945453E+02  0.50000002599E+02 0.  0.
        -12    1    1    2    0    0 -0.22725404944E+02  0.17473484835E+02 -0.13962584733E+02  0.31886054547E+02  0.00000000000E+00 0.  1.
         11    1    3    3    0    0 -0.31414894865E+01  0.65453978312E+01  0.12979173851E+02  0.14871790178E+02  0.51100000000E-03 0.  1.
        -11    1    3    3    0    0  0.10496111647E+02 -0.25322098478E+02  0.62778167948E+01  0.28120953309E+02  0.51100000000E-03 0. -1.
        -12    1    3    3    0    0  0.15370782783E+02  0.13032158117E+01 -0.52944059126E+01  0.16309201966E+02  0.00000000000E+00 0.  1.
</event>
<event>
 7    1  0.1139627E-011  0.5930201E+02  0.7816164E-02  0.1266605E+00
        -11   -1    0    0    0    0  0.00000000000E+00  0.00000000000E+00  0.45593999997E+02  0.45594000000E+02  0.51100000000E-03 0.  1.
         11   -1    0    0    0    0 -0.00000000000E+00 -0.00000000000E+00 -0.45593999997E+02  0.45594000000E+02  0.51100000000E-03 0. -1.
    9900012    2    1    2    0    0 -0.13428836191E+02 -0.27009763601E+02  0.10337101118E+02  0.59302005727E+02  0.50000112525E+02 0.  0.
        -12    1    1    2    0    0  0.13428836191E+02  0.27009763601E+02 -0.10337101118E+02  0.31885994273E+02  0.00000000000E+00 0.  1.
         11    1    3    3    0    0 -0.26352174315E+02 -0.21071655663E+02  0.35861043293E+01  0.33930987431E+02  0.51100000000E-03 0. -1.
        -11    1    3    3    0    0  0.12532830968E+02  0.42311870941E+01  0.12711842026E+00  0.13228414706E+02  0.51100000000E-03 0.  1.
        -12    1    3    3    0    0  0.39050715583E+00 -0.10169295032E+02  0.66238783688E+01  0.12142603590E+02  0.00000000000E+00 0.  1.
</event>
<event>
 7    1  0.1139627E-011  0.5930195E+02  0.7816164E-02  0.1266605E+00
        -11   -1    0    0    0    0  0.00000000000E+00  0.00000000000E+00  0.45593999997E+02  0.45594000000E+02  0.51100000000E-03 0. -1.
         11   -1    0    0    0    0 -0.00000000000E+00 -0.00000000000E+00 -0.45593999997E+02  0.45594000000E+02  0.51100000000E-03 0.  1.
    9900012    2    1    2    0    0 -0.22591344317E+02  0.20264902224E+02  0.97818881892E+01  0.59301946046E+02  0.50000003681E+02 0.  0.
        -12    1    1    2    0    0  0.22591344317E+02 -0.20264902224E+02 -0.97818881892E+01  0.31886053954E+02  0.00000000000E+00 0.  1.
         11    1    3    3    0    0  0.23442447625E-01  0.48043972600E+01  0.22504572267E+02  0.23011704756E+02  0.51100000000E-03 0. -1.
        -11    1    3    3    0    0  0.87660425953E+00 -0.39126808206E+00 -0.73916626570E+01  0.74537375078E+01  0.51100000000E-03 0.  1.
         12    1    3    3    0    0 -0.23491391024E+02  0.15851773046E+02 -0.53310214212E+01  0.28836503782E+02  0.00000000000E+00 0. -1.
</event>
<event>
 7    1  0.1139627E-011  0.5930194E+02  0.7816164E-02  0.1266605E+00
        -11   -1    0    0    0    0  0.00000000000E+00  0.00000000000E+00  0.45593999997E+02  0.45594000000E+02  0.51100000000E-03 0.  1.
         11   -1    0    0    0    0 -0.00000000000E+00 -0.00000000000E+00 -0.45593999997E+02  0.45594000000E+02  0.51100000000E-03 0. -1.
    9900012    2    1    2    0    0 -0.14079989888E+01  0.16977604562E+02 -0.26953653703E+02  0.59301937751E+02  0.49999988553E+02 0.  0.
        -12    1    1    2    0    0  0.14079989888E+01 -0.16977604562E+02  0.26953653703E+02  0.31886062249E+02  0.00000000000E+00 0.  1.
         11    1    3    3    0    0 -0.16208914236E+02  0.18541071942E+02  0.28228226320E+01  0.24788476704E+02  0.51100000000E-03 0. -1.
        -11    1    3    3    0    0  0.87400728509E+01 -0.53820734311E+01 -0.16652632654E+02  0.19561844556E+02  0.51100000000E-03 0.  1.
         12    1    3    3    0    0  0.60608423964E+01  0.38186060518E+01 -0.13123843681E+02  0.14951616491E+02  0.00000000000E+00 0. -1.
</event>
<event>
 7    1  0.1139627E-011  0.5930194E+02  0.7816164E-02  0.1266605E+00
        -11   -1    0    0    0    0  0.00000000000E+00  0.00000000000E+00  0.45593999997E+02  0.45594000000E+02  0.51100000000E-03 0.  1.
         11   -1    0    0    0    0 -0.00000000000E+00 -0.00000000000E+00 -0.45593999997E+02  0.45594000000E+02  0.51100000000E-03 0. -1.
    9900012    2    1    2    0    0 -0.18848290463E+02 -0.22712098873E+02 -0.12067459371E+02  0.59301936206E+02  0.49999985735E+02 0.  0.
        -12    1    1    2    0    0  0.18848290463E+02  0.22712098873E+02  0.12067459371E+02  0.31886063794E+02  0.00000000000E+00 0.  1.
         11    1    3    3    0    0  0.37175197491E+01 -0.23287965437E+02  0.30599130234E+01  0.23780503679E+02  0.51100000000E-03 0. -1.
        -11    1    3    3    0    0 -0.24802124549E+02 -0.36138418868E+01 -0.17139145496E+02  0.30363720851E+02  0.51100000000E-03 0.  1.
         12    1    3    3    0    0  0.22363143369E+01  0.41897084507E+01  0.20117731015E+01  0.51577116755E+01  0.00000000000E+00 0. -1.
</event>
<event>
 7    1  0.1139627E-011  0.5930188E+02  0.7816164E-02  0.1266605E+00
        -11   -1    0    0    0    0  0.00000000000E+00  0.00000000000E+00  0.45593999997E+02  0.45594000000E+02  0.51100000000E-03 0. -1.
         11   -1    0    0    0    0 -0.00000000000E+00 -0.00000000000E+00 -0.45593999997E+02  0.45594000000E+02  0.51100000000E-03 0.  1.
    9900012    2    1    2    0    0  0.13932592099E+02 -0.25790133533E+02  0.12548964436E+02  0.59301880470E+02  0.49999884086E+02 0.  0.
        -12    1    1    2    0    0 -0.13932592099E+02  0.25790133533E+02 -0.12548964436E+02  0.31886119530E+02  0.00000000000E+00 0.  1.
         11    1    3    3    0    0  0.19060983429E+02 -0.14857977571E+01 -0.83417929030E+01  0.20859391011E+02  0.51100000000E-03 0. -1.
        -11    1    3    3    0    0 -0.99438178369E+01 -0.94074444758E+01  0.17849314449E+02  0.22493944770E+02  0.51100000000E-03 0.  1.
        -12    1    3    3    0    0  0.48154265074E+01 -0.14896891300E+02  0.30414428894E+01  0.15948544689E+02  0.00000000000E+00 0.  1.
</event>
<event>
 7    1  0.1139627E-011  0.5930195E+02  0.7816164E-02  0.1266605E+00
        -11   -1    0    0    0    0  0.00000000000E+00  0.00000000000E+00  0.45593999997E+02  0.45594000000E+02  0.51100000000E-03 0.  1.
         11   -1    0    0    0    0 -0.00000000000E+00 -0.00000000000E+00 -0.45593999997E+02  0.45594000000E+02  0.51100000000E-03 0. -1.
    9900012    2    1    2    0    0 -0.34900841950E+01  0.29737482675E+02 -0.10964573825E+02  0.59301945953E+02  0.50000003511E+02 0.  0.
        -12    1    1    2    0    0  0.34900841950E+01 -0.29737482675E+02  0.10964573825E+02  0.31886054047E+02  0.00000000000E+00 0.  1.
         11    1    3    3    0    0 -0.13460735400E+02  0.35210775619E+02 -0.61860977239E+01  0.38200234588E+02  0.51100000000E-03 0. -1.
        -11    1    3    3    0    0 -0.41006557627E+01 -0.37729672908E+01  0.12310468390E+01  0.57066747272E+01  0.51100000000E-03 0.  1.
         12    1    3    3    0    0  0.14071306968E+02 -0.17003256534E+01 -0.60095229399E+01  0.15395036638E+02  0.00000000000E+00 0. -1.
</event>
<event>
 7    1  0.1139627E-011  0.5930196E+02  0.7816164E-02  0.1266605E+00
        -11   -1    0    0    0    0  0.00000000000E+00  0.00000000000E+00  0.45593999997E+02  0.45594000000E+02  0.51100000000E-03 0.  1.
         11   -1    0    0    0    0 -0.00000000000E+00 -0.00000000000E+00 -0.45593999997E+02  0.45594000000E+02  0.51100000000E-03 0. -1.
    9900012    2    1    2    0    0  0.25363669473E+02  0.16574931855E+02 -0.99335601201E+01  0.59301957414E+02  0.50000024413E+02 0.  0.
        -12    1    1    2    0    0 -0.25363669473E+02 -0.16574931855E+02  0.99335601201E+01  0.31886042586E+02  0.00000000000E+00 0.  1.
         11    1    3    3    0    0  0.59238064115E+01  0.42459963869E+01 -0.14688138215E+02  0.16396992779E+02  0.51100000000E-03 0. -1.
        -11    1    3    3    0    0  0.17610922918E+02 -0.78628592728E+01  0.10328850185E+02  0.21878169676E+02  0.51100000000E-03 0.  1.
        -12    1    3    3    0    0  0.18289401441E+01  0.20191794741E+02 -0.55742720906E+01  0.21026794959E+02  0.00000000000E+00 0.  1.
</event>
<event>
 7    1  0.1139627E-011  0.5930195E+02  0.7816164E-02  0.1266605E+00
        -11   -1    0    0    0    0  0.00000000000E+00  0.00000000000E+00  0.45593999997E+02  0.45594000000E+02  0.51100000000E-03 0. -1.
         11   -1    0    0    0    0 -0.00000000000E+00 -0.00000000000E+00 -0.45593999997E+02  0.45594000000E+02  0.51100000000E-03 0.  1.
    9900012    2    1    2    0    0 -0.76024101263E+01 -0.19854556247E+02  0.23763835614E+02  0.59301954046E+02  0.50000018271E+02 0.  0.
        -12    1    1    2    0    0  0.76024101263E+01  0.19854556247E+02 -0.23763835614E+02  0.31886045954E+02  0.00000000000E+00 0.  1.
         11    1    3    3    0    0  0.61976087307E+01 -0.53533049242E+01  0.32515356655E+02  0.33530831279E+02  0.51100000000E-03 0. -1.
        -11    1    3    3    0    0 -0.51718116273E+01 -0.14711652478E+02 -0.52028905656E+01  0.16439295138E+02  0.51100000000E-03 0.  1.
         12    1    3    3    0    0 -0.86282072297E+01  0.21040115522E+00 -0.35486304756E+01  0.93318276290E+01  0.00000000000E+00 0. -1.
</event>
<event>
 7    1  0.1139627E-011  0.5930198E+02  0.7816164E-02  0.1266605E+00
        -11   -1    0    0    0    0  0.00000000000E+00  0.00000000000E+00  0.45593999997E+02  0.45594000000E+02  0.51100000000E-03 0. -1.
         11   -1    0    0    0    0 -0.00000000000E+00 -0.00000000000E+00 -0.45593999997E+02  0.45594000000E+02  0.51100000000E-03 0.  1.
    9900012    2    1    2    0    0 -0.18700872415E+02 -0.25820836688E+02  0.52909559460E+00  0.59301981457E+02  0.50000068262E+02 0.  0.
        -12    1    1    2    0    0  0.18700872415E+02  0.25820836688E+02 -0.52909559460E+00  0.31886018543E+02  0.00000000000E+00 0.  1.
         11    1    3    3    0    0 -0.18315725546E+02 -0.35225292196E+02 -0.97936465464E+01  0.40892572987E+02  0.51100000000E-03 0. -1.
        -11    1    3    3    0    0 -0.70511102424E-02  0.35297534110E+01 -0.24828330055E+01  0.43155149003E+01  0.51100000000E-03 0.  1.
         12    1    3    3    0    0 -0.37809575869E+00  0.58747020966E+01  0.12805575146E+02  0.14093893570E+02  0.00000000000E+00 0. -1.
</event>
<event>
 7    1  0.1139627E-011  0.5930198E+02  0.7816164E-02  0.1266605E+00
        -11   -1    0    0    0    0  0.00000000000E+00  0.00000000000E+00  0.45593999997E+02  0.45594000000E+02  0.51100000000E-03 0. -1.
         11   -1    0    0    0    0 -0.00000000000E+00 -0.00000000000E+00 -0.45593999997E+02  0.45594000000E+02  0.51100000000E-03 0.  1.
    9900012    2    1    2    0    0 -0.26562106158E+02  0.19667803216E+01 -0.17530100303E+02  0.59301982296E+02  0.50000069792E+02 0.  0.
        -12    1    1    2    0    0  0.26562106158E+02 -0.19667803216E+01  0.17530100303E+02  0.31886017704E+02  0.00000000000E+00 0.  1.
         11    1    3    3    0    0 -0.15255253238E+02 -0.10837682163E+02 -0.27449912891E+01  0.18913304403E+02  0.51100000000E-03 0. -1.
        -11    1    3    3    0    0  0.90441701882E+01  0.81947858114E+01  0.34438257118E+01  0.12681146032E+02  0.51100000000E-03 0.  1.
        -12    1    3    3    0    0 -0.20351023108E+02  0.46096766732E+01 -0.18228934726E+02  0.27707531861E+02  0.00000000000E+00 0.  1.
</event>
<event>
 7    1  0.1139627E-011  0.5930196E+02  0.7816164E-02  0.1266605E+00
        -11   -1    0    0    0    0  0.00000000000E+00  0.00000000000E+00  0.45593999997E+02  0.45594000000E+02  0.51100000000E-03 0. -1.
         11   -1    0    0    0    0 -0.00000000000E+00 -0.00000000000E+00 -0.45593999997E+02  0.45594000000E+02  0.51100000000E-03 0.  1.
    9900012    2    1    2    0    0  0.28437118842E+02  0.16447360595E+01 -0.14329855854E+02  0.59301958327E+02  0.50000026079E+02 0.  0.
        -12    1    1    2    0    0 -0.28437118842E+02 -0.16447360595E+01  0.14329855854E+02  0.31886041673E+02  0.00000000000E+00 0.  1.
         11    1    3    3    0    0  0.70219862356E+01  0.45790254323E+01 -0.13891189524E+02  0.16224700652E+02  0.51100000000E-03 0. -1.
        -11    1    3    3    0    0  0.14157671699E+02 -0.19395605644E+02 -0.49770931524E+01  0.24523471262E+02  0.51100000000E-03 0.  1.
        -12    1    3    3    0    0  0.72574609082E+01  0.16461316271E+02  0.45384268224E+01  0.18553786413E+02  0.00000000000E+00 0.  1.
</event>
<event>
 7    1  0.1139627E-011  0.5930194E+02  0.7816164E-02  0.1266605E+00
        -11   -1    0    0    0    0  0.00000000000E+00  0.00000000000E+00  0.45593999997E+02  0.45594000000E+02  0.51100000000E-03 0.  1.
         11   -1    0    0    0    0 -0.00000000000E+00 -0.00000000000E+00 -0.45593999997E+02  0.45594000000E+02  0.51100000000E-03 0. -1.
    9900012    2    1    2    0    0 -0.23435763565E+02  0.20849763177E+02 -0.57247660495E+01  0.59301943726E+02  0.49999999450E+02 0.  0.
        -12    1    1    2    0    0  0.23435763565E+02 -0.20849763177E+02  0.57247660495E+01  0.31886056274E+02  0.00000000000E+00 0.  1.
         11    1    3    3    0    0 -0.10762143275E+02 -0.43168088115E+01 -0.21656291875E+02  0.24565291454E+02  0.51100000000E-03 0. -1.
        -11    1    3    3    0    0 -0.14571301944E+02  0.16717802308E+02  0.12159084547E+02  0.25291324434E+02  0.51100000000E-03 0.  1.
        -12    1    3    3    0    0  0.18976816546E+01  0.84487696803E+01  0.37724412783E+01  0.94453278382E+01  0.00000000000E+00 0.  1.
</event>
<event>
 7    1  0.1139627E-011  0.5930192E+02  0.7816164E-02  0.1266605E+00
        -11   -1    0    0    0    0  0.00000000000E+00  0.00000000000E+00  0.45593999997E+02  0.45594000000E+02  0.51100000000E-03 0. -1.
         11   -1    0    0    0    0 -0.00000000000E+00 -0.00000000000E+00 -0.45593999997E+02  0.45594000000E+02  0.51100000000E-03 0.  1.
    9900012    2    1    2    0    0 -0.61184475613E+01  0.92275060730E+00  0.31279952016E+02  0.59301917341E+02  0.49999951329E+02 0.  0.
        -12    1    1    2    0    0  0.61184475613E+01 -0.92275060730E+00 -0.31279952016E+02  0.31886082659E+02  0.00000000000E+00 0.  1.
         11    1    3    3    0    0 -0.57838698507E+01  0.19660217604E+02  0.54947516697E+01  0.21217200637E+02  0.51100000000E-03 0. -1.
        -11    1    3    3    0    0 -0.35868653146E+01 -0.22573576720E+02  0.19574270849E+02  0.30092923558E+02  0.51100000000E-03 0.  1.
         12    1    3    3    0    0  0.32522876041E+01  0.38361097234E+01  0.62109294972E+01  0.79917931460E+01  0.00000000000E+00 0. -1.
</event>
<event>
 7    1  0.1139627E-011  0.5930183E+02  0.7816164E-02  0.1266605E+00
        -11   -1    0    0    0    0  0.00000000000E+00  0.00000000000E+00  0.45593999997E+02  0.45594000000E+02  0.51100000000E-03 0. -1.
         11   -1    0    0    0    0 -0.00000000000E+00 -0.00000000000E+00 -0.45593999997E+02  0.45594000000E+02  0.51100000000E-03 0.  1.
    9900012    2    1    2    0    0  0.30580387762E+02  0.90264286819E+01  0.30245091032E+00  0.59301827338E+02  0.49999787186E+02 0.  0.
        -12    1    1    2    0    0 -0.30580387762E+02 -0.90264286819E+01 -0.30245091032E+00  0.31886172662E+02  0.00000000000E+00 0.  1.
         11    1    3    3    0    0  0.26566188577E+02 -0.32637092520E+01  0.14047187679E+02  0.30228093812E+02  0.51100000000E-03 0. -1.
        -11    1    3    3    0    0  0.20271278789E+01 -0.56799312952E+01 -0.81688015580E+01  0.10153826181E+02  0.51100000000E-03 0.  1.
         12    1    3    3    0    0  0.19870713071E+01  0.17970069229E+02 -0.55759352109E+01  0.18919907345E+02  0.00000000000E+00 0. -1.
</event>
<event>
 7    1  0.1139627E-011  0.5930194E+02  0.7816164E-02  0.1266605E+00
        -11   -1    0    0    0    0  0.00000000000E+00  0.00000000000E+00  0.45593999997E+02  0.45594000000E+02  0.51100000000E-03 0.  1.
         11   -1    0    0    0    0 -0.00000000000E+00 -0.00000000000E+00 -0.45593999997E+02  0.45594000000E+02  0.51100000000E-03 0. -1.
    9900012    2    1    2    0    0  0.24776652730E-02 -0.51776156766E+01 -0.31462880015E+02  0.59301944598E+02  0.50000001041E+02 0.  0.
        -12    1    1    2    0    0 -0.24776652730E-02  0.51776156766E+01  0.31462880015E+02  0.31886055402E+02  0.00000000000E+00 0.  1.
         11    1    3    3    0    0 -0.15822224727E+02  0.92583654740E+01 -0.16698415293E+02  0.24797120803E+02  0.51100000000E-03 0. -1.
        -11    1    3    3    0    0 -0.44298487319E+01 -0.91209191508E+01 -0.34987965144E+01  0.10726430126E+02  0.51100000000E-03 0.  1.
         12    1    3    3    0    0  0.20254551124E+02 -0.53150619998E+01 -0.11265668208E+02  0.23778393669E+02  0.00000000000E+00 0. -1.
</event>
<event>
 7    1  0.1139627E-011  0.5930195E+02  0.7816164E-02  0.1266605E+00
        -11   -1    0    0    0    0  0.00000000000E+00  0.00000000000E+00  0.45593999997E+02  0.45594000000E+02  0.51100000000E-03 0. -1.
         11   -1    0    0    0    0 -0.00000000000E+00 -0.00000000000E+00 -0.45593999997E+02  0.45594000000E+02  0.51100000000E-03 0.  1.
    9900012    2    1    2    0    0  0.92785072722E+01 -0.22792856879E+02  0.20275967280E+02  0.59301954917E+02  0.50000019859E+02 0.  0.
        -12    1    1    2    0    0 -0.92785072722E+01  0.22792856879E+02 -0.20275967280E+02  0.31886045083E+02  0.00000000000E+00 0.  1.
         11    1    3    3    0    0 -0.13180019498E+02 -0.88360762161E+01 -0.42343153167E+01  0.16423111256E+02  0.51100000000E-03 0. -1.
        -11    1    3    3    0    0  0.96251677680E+01  0.60578827236E+01  0.88268967261E+01  0.14396385092E+02  0.51100000000E-03 0.  1.
         12    1    3    3    0    0  0.12833359002E+02 -0.20014663386E+02  0.15683385871E+02  0.28482458569E+02  0.00000000000E+00 0. -1.
</event>
<event>
 7    1  0.1139627E-011  0.5930206E+02  0.7816164E-02  0.1266604E+00
        -11   -1    0    0    0    0  0.00000000000E+00  0.00000000000E+00  0.45593999997E+02  0.45594000000E+02  0.51100000000E-03 0.  1.
         11   -1    0    0    0    0 -0.00000000000E+00 -0.00000000000E+00 -0.45593999997E+02  0.45594000000E+02  0.51100000000E-03 0. -1.
    9900012    2    1    2    0    0 -0.90697482547E+01  0.18066790432E+02 -0.24658550289E+02  0.59302057137E+02  0.50000206284E+02 0.  0.
        -12    1    1    2    0    0  0.90697482547E+01 -0.18066790432E+02  0.24658550289E+02  0.31885942863E+02  0.00000000000E+00 0.  1.
         11    1    3    3    0    0 -0.82905196425E+01  0.94822460224E+01 -0.24097806813E+02  0.27190991138E+02  0.51100000000E-03 0. -1.
        -11    1    3    3    0    0  0.44102830602E+00 -0.11738367336E+02 -0.19484155980E+00  0.11748265284E+02  0.51100000000E-03 0.  1.
        -12    1    3    3    0    0 -0.12202569182E+01  0.20322911746E+02 -0.36590191531E+00  0.20362800716E+02  0.00000000000E+00 0.  1.
</event>
<event>
 7    1  0.1139627E-011  0.5930196E+02  0.7816164E-02  0.1266605E+00
        -11   -1    0    0    0    0  0.00000000000E+00  0.00000000000E+00  0.45593999997E+02  0.45594000000E+02  0.51100000000E-03 0.  1.
         11   -1    0    0    0    0 -0.00000000000E+00 -0.00000000000E+00 -0.45593999997E+02  0.45594000000E+02  0.51100000000E-03 0. -1.
    9900012    2    1    2    0    0  0.30089540494E+02  0.37439811109E-01  0.10551672409E+02  0.59301958548E+02  0.50000026481E+02 0.  0.
        -12    1    1    2    0    0 -0.30089540494E+02 -0.37439811109E-01 -0.10551672409E+02  0.31886041452E+02  0.00000000000E+00 0.  1.
         11    1    3    3    0    0  0.10635721858E+02 -0.14159493075E+02  0.18594900851E+02  0.25678398733E+02  0.51100000000E-03 0.  1.
        -11    1    3    3    0    0  0.11566366391E+02  0.10077262460E+02 -0.15651583810E+02  0.21915841901E+02  0.51100000000E-03 0. -1.
         12    1    3    3    0    0  0.78874522442E+01  0.41196704260E+01  0.76083553685E+01  0.11707717913E+02  0.00000000000E+00 0. -1.
</event>
<event>
 7    1  0.1139627E-011  0.5930194E+02  0.7816164E-02  0.1266605E+00
        -11   -1    0    0    0    0  0.00000000000E+00  0.00000000000E+00  0.45593999997E+02  0.45594000000E+02  0.51100000000E-03 0. -1.
         11   -1    0    0    0    0 -0.00000000000E+00 -0.00000000000E+00 -0.45593999997E+02  0.45594000000E+02  0.51100000000E-03 0.  1.
    9900012    2    1    2    0    0  0.87180706321E+01 -0.22721350059E+02  0.20602340491E+02  0.59301938190E+02  0.49999989353E+02 0.  0.
        -12    1    1    2    0    0 -0.87180706321E+01  0.22721350059E+02 -0.20602340491E+02  0.31886061810E+02  0.00000000000E+00 0.  1.
         11    1    3    3    0    0  0.20711997703E+02  0.55887843228E+01  0.99484278218E+01  0.23647253021E+02  0.51100000000E-03 0.  1.
        -11    1    3    3    0    0 -0.17636469954E+01 -0.18792775923E+02  0.14669393834E+01  0.18932268460E+02  0.51100000000E-03 0. -1.
        -12    1    3    3    0    0 -0.10230280075E+02 -0.95173584584E+01  0.91869732855E+01  0.16722416709E+02  0.00000000000E+00 0.  1.
</event>
<event>
 7    1  0.1139627E-011  0.5930193E+02  0.7816164E-02  0.1266605E+00
        -11   -1    0    0    0    0  0.00000000000E+00  0.00000000000E+00  0.45593999997E+02  0.45594000000E+02  0.51100000000E-03 0. -1.
         11   -1    0    0    0    0 -0.00000000000E+00 -0.00000000000E+00 -0.45593999997E+02  0.45594000000E+02  0.51100000000E-03 0.  1.
    9900012    2    1    2    0    0 -0.27633613480E-02  0.28807528591E+02  0.13669221083E+02  0.59301932256E+02  0.49999978532E+02 0.  0.
        -12    1    1    2    0    0  0.27633613480E-02 -0.28807528591E+02 -0.13669221083E+02  0.31886067744E+02  0.00000000000E+00 0.  1.
         11    1    3    3    0    0 -0.13358425192E+02  0.24366095963E+02  0.73670520609E+01  0.28747654033E+02  0.51100000000E-03 0. -1.
        -11    1    3    3    0    0  0.13188270871E+02 -0.28076635356E+01  0.14370834737E+02  0.19706200912E+02  0.51100000000E-03 0.  1.
         12    1    3    3    0    0  0.16739095901E+00  0.72490961637E+01 -0.80686657150E+01  0.10848077311E+02  0.00000000000E+00 0. -1.
</event>
<event>
 7    1  0.1139627E-011  0.5930194E+02  0.7816164E-02  0.1266605E+00
        -11   -1    0    0    0    0  0.00000000000E+00  0.00000000000E+00  0.45593999997E+02  0.45594000000E+02  0.51100000000E-03 0.  1.
         11   -1    0    0    0    0 -0.00000000000E+00 -0.00000000000E+00 -0.45593999997E+02  0.45594000000E+02  0.51100000000E-03 0. -1.
    9900012    2    1    2    0    0  0.18277340662E+02  0.81825819956E+01 -0.24813402583E+02  0.59301940702E+02  0.49999993936E+02 0.  0.
        -12    1    1    2    0    0 -0.18277340662E+02 -0.81825819956E+01  0.24813402583E+02  0.31886059298E+02  0.00000000000E+00 0.  1.
         11    1    3    3    0    0  0.61966132978E+01 -0.64216170772E+00 -0.25029845000E+01  0.67138155836E+01  0.51100000000E-03 0. -1.
        -11    1    3    3    0    0 -0.53878210719E+01  0.10472879181E+02 -0.30888291804E+02  0.33057470942E+02  0.51100000000E-03 0.  1.
        -12    1    3    3    0    0  0.17468548436E+02 -0.16481354781E+01  0.85778737210E+01  0.19530654177E+02  0.00000000000E+00 0.  1.
</event>
<event>
 7    1  0.1139627E-011  0.5930194E+02  0.7816164E-02  0.1266605E+00
        -11   -1    0    0    0    0  0.00000000000E+00  0.00000000000E+00  0.45593999997E+02  0.45594000000E+02  0.51100000000E-03 0. -1.
         11   -1    0    0    0    0 -0.00000000000E+00 -0.00000000000E+00 -0.45593999997E+02  0.45594000000E+02  0.51100000000E-03 0.  1.
    9900012    2    1    2    0    0  0.16678096886E+02  0.31151881646E+01  0.26997362267E+02  0.59301939058E+02  0.49999990936E+02 0.  0.
        -12    1    1    2    0    0 -0.16678096886E+02 -0.31151881646E+01 -0.26997362267E+02  0.31886060942E+02  0.00000000000E+00 0.  1.
         11    1    3    3    0    0  0.10209715177E+02 -0.52157406898E+01  0.10270551189E+02  0.15392415565E+02  0.51100000000E-03 0. -1.
        -11    1    3    3    0    0 -0.30232913716E+01  0.89954033367E+01 -0.11039750842E+02  0.14557941847E+02  0.51100000000E-03 0.  1.
        -12    1    3    3    0    0  0.94916730810E+01 -0.66447448237E+00  0.27766561920E+02  0.29351581646E+02  0.00000000000E+00 0.  1.
</event>
<event>
 7    1  0.1139627E-011  0.5930194E+02  0.7816164E-02  0.1266605E+00
        -11   -1    0    0    0    0  0.00000000000E+00  0.00000000000E+00  0.45593999997E+02  0.45594000000E+02  0.51100000000E-03 0. -1.
         11   -1    0    0    0    0 -0.00000000000E+00 -0.00000000000E+00 -0.45593999997E+02  0.45594000000E+02  0.51100000000E-03 0.  1.
    9900012    2    1    2    0    0 -0.24325034690E+02  0.19405229784E+02 -0.69606333155E+01  0.59301942360E+02  0.49999996959E+02 0.  0.
        -12    1    1    2    0    0  0.24325034690E+02 -0.19405229784E+02  0.69606333155E+01  0.31886057640E+02  0.00000000000E+00 0.  1.
         11    1    3    3    0    0  0.18842616761E+01  0.39265498804E+01  0.13499103520E+02  0.14184288214E+02  0.51100000000E-03 0. -1.
        -11    1    3    3    0    0 -0.90241545082E+01  0.11619017306E+02 -0.23019765998E+02  0.27319343964E+02  0.51100000000E-03 0.  1.
        -12    1    3    3    0    0 -0.17185141858E+02  0.38596625976E+01  0.25600291622E+01  0.17798310183E+02  0.00000000000E+00 0.  1.
</event>
<event>
 7    1  0.1139627E-011  0.5930192E+02  0.7816164E-02  0.1266605E+00
        -11   -1    0    0    0    0  0.00000000000E+00  0.00000000000E+00  0.45593999997E+02  0.45594000000E+02  0.51100000000E-03 0.  1.
         11   -1    0    0    0    0 -0.00000000000E+00 -0.00000000000E+00 -0.45593999997E+02  0.45594000000E+02  0.51100000000E-03 0. -1.
    9900012    2    1    2    0    0 -0.10425864295E+02  0.25630989350E+02 -0.15845364283E+02  0.59301924189E+02  0.49999963819E+02 0.  0.
        -12    1    1    2    0    0  0.10425864295E+02 -0.25630989350E+02  0.15845364283E+02  0.31886075811E+02  0.00000000000E+00 0.  1.
         11    1    3    3    0    0 -0.18126700610E+02  0.22832738778E+02 -0.19850855406E+01  0.29220742632E+02  0.51100000000E-03 0. -1.
        -11    1    3    3    0    0  0.11431805080E+02  0.11637043974E+02 -0.12139585285E+02  0.20334121348E+02  0.51100000000E-03 0.  1.
        -12    1    3    3    0    0 -0.37309687649E+01 -0.88387934028E+01 -0.17206934577E+01  0.97470602090E+01  0.00000000000E+00 0.  1.
</event>
<event>
 7    1  0.1139627E-011  0.5930193E+02  0.7816164E-02  0.1266605E+00
        -11   -1    0    0    0    0  0.00000000000E+00  0.00000000000E+00  0.45593999997E+02  0.45594000000E+02  0.51100000000E-03 0.  1.
         11   -1    0    0    0    0 -0.00000000000E+00 -0.00000000000E+00 -0.45593999997E+02  0.45594000000E+02  0.51100000000E-03 0. -1.
    9900012    2    1    2    0    0  0.18740556736E+02  0.25674039010E+02  0.25212131722E+01  0.59301933109E+02  0.49999980088E+02 0.  0.
        -12    1    1    2    0    0 -0.18740556736E+02 -0.25674039010E+02 -0.25212131722E+01  0.31886066891E+02  0.00000000000E+00 0.  1.
         11    1    3    3    0    0 -0.11752025446E+00 -0.71438742419E+01 -0.12913268873E+02  0.14758091457E+02  0.51100000000E-03 0. -1.
        -11    1    3    3    0    0  0.10260340242E+02  0.12565016214E+02  0.15649908577E+02  0.22540493630E+02  0.51100000000E-03 0.  1.
         12    1    3    3    0    0  0.85977367488E+01  0.20252897038E+02 -0.21542653106E+00  0.22003348023E+02  0.00000000000E+00 0. -1.
</event>
<event>
 7    1  0.1139627E-011  0.5930194E+02  0.7816164E-02  0.1266605E+00
        -11   -1    0    0    0    0  0.00000000000E+00  0.00000000000E+00  0.45593999997E+02  0.45594000000E+02  0.51100000000E-03 0.  1.
         11   -1    0    0    0    0 -0.00000000000E+00 -0.00000000000E+00 -0.45593999997E+02  0.45594000000E+02  0.51100000000E-03 0. -1.
    9900012    2    1    2    0    0 -0.18647490947E+02  0.14136801770E+02  0.21659698815E+02  0.59301942927E+02  0.49999997993E+02 0.  0.
        -12    1    1    2    0    0  0.18647490947E+02 -0.14136801770E+02 -0.21659698815E+02  0.31886057073E+02  0.00000000000E+00 0.  1.
         11    1    3    3    0    0  0.79881647420E+01  0.99498265204E+01 -0.74405116366E+01  0.14770613982E+02  0.51100000000E-03 0. -1.
        -11    1    3    3    0    0 -0.18928684886E+02  0.93782355032E+01  0.28144062960E+02  0.35189980006E+02  0.51100000000E-03 0.  1.
         12    1    3    3    0    0 -0.77069708028E+01 -0.51912602540E+01  0.95614749177E+00  0.93413489394E+01  0.00000000000E+00 0. -1.
</event>
<event>
 7    1  0.1139627E-011  0.5930192E+02  0.7816164E-02  0.1266605E+00
        -11   -1    0    0    0    0  0.00000000000E+00  0.00000000000E+00  0.45593999997E+02  0.45594000000E+02  0.51100000000E-03 0.  1.
         11   -1    0    0    0    0 -0.00000000000E+00 -0.00000000000E+00 -0.45593999997E+02  0.45594000000E+02  0.51100000000E-03 0. -1.
    9900012    2    1    2    0    0  0.15187114014E+02 -0.28127283089E+01 -0.27895554344E+02  0.59301924280E+02  0.49999963986E+02 0.  0.
        -12    1    1    2    0    0 -0.15187114014E+02  0.28127283089E+01  0.27895554344E+02  0.31886075720E+02  0.00000000000E+00 0.  1.
         11    1    3    3    0    0  0.10194221320E+02 -0.37635603491E+01 -0.32621048235E+02  0.34383416395E+02  0.51100000000E-03 0. -1.
        -11    1    3    3    0    0  0.96686264601E+00  0.11412855724E+02 -0.23090527759E+01  0.11684169809E+02  0.51100000000E-03 0.  1.
         12    1    3    3    0    0  0.40260300480E+01 -0.10462023684E+02  0.70345466663E+01  0.13234338076E+02  0.00000000000E+00 0. -1.
</event>
<event>
 7    1  0.1139627E-011  0.5930193E+02  0.7816164E-02  0.1266605E+00
        -11   -1    0    0    0    0  0.00000000000E+00  0.00000000000E+00  0.45593999997E+02  0.45594000000E+02  0.51100000000E-03 0.  1.
         11   -1    0    0    0    0 -0.00000000000E+00 -0.00000000000E+00 -0.45593999997E+02  0.45594000000E+02  0.51100000000E-03 0. -1.
    9900012    2    1    2    0    0 -0.31756345353E+02 -0.20845950272E+01 -0.19774289201E+01  0.59301933580E+02  0.49999980946E+02 0.  0.
        -12    1    1    2    0    0  0.31756345353E+02  0.20845950272E+01  0.19774289201E+01  0.31886066420E+02  0.00000000000E+00 0.  1.
         11    1    3    3    0    0 -0.57978633006E+01  0.53933730605E-01 -0.74912432647E+01  0.94729537955E+01  0.51100000000E-03 0. -1.
        -11    1    3    3    0    0 -0.35972707156E+02  0.18644241686E+01  0.11088049995E+02  0.37688945203E+02  0.51100000000E-03 0.  1.
        -12    1    3    3    0    0  0.10014225103E+02 -0.40029529264E+01 -0.55742356503E+01  0.12140034581E+02  0.00000000000E+00 0.  1.
</event>
<event>
 7    1  0.1139627E-011  0.5930195E+02  0.7816164E-02  0.1266605E+00
        -11   -1    0    0    0    0  0.00000000000E+00  0.00000000000E+00  0.45593999997E+02  0.45594000000E+02  0.51100000000E-03 0. -1.
         11   -1    0    0    0    0 -0.00000000000E+00 -0.00000000000E+00 -0.45593999997E+02  0.45594000000E+02  0.51100000000E-03 0.  1.
    9900012    2    1    2    0    0 -0.29842987130E+02  0.90147939118E+01 -0.66970199184E+01  0.59301945589E+02  0.50000002847E+02 0.  0.
        -12    1    1    2    0    0  0.29842987130E+02 -0.90147939118E+01  0.66970199184E+01  0.31886054411E+02  0.00000000000E+00 0.  1.
         11    1    3    3    0    0 -0.25094155248E+02  0.13216805939E+02  0.32888101876E+01  0.28552002724E+02  0.51100000000E-03 0. -1.
        -11    1    3    3    0    0 -0.44097041514E+01 -0.27420156191E+01 -0.19980127513E+02  0.20643876479E+02  0.51100000000E-03 0.  1.
        -12    1    3    3    0    0 -0.33912773061E+00 -0.14599964084E+01  0.99942974075E+01  0.10106066386E+02  0.00000000000E+00 0.  1.
</event>
<event>
 7    1  0.1139627E-011  0.5930195E+02  0.7816164E-02  0.1266605E+00
        -11   -1    0    0    0    0  0.00000000000E+00  0.00000000000E+00  0.45593999997E+02  0.45594000000E+02  0.51100000000E-03 0.  1.
         11   -1    0    0    0    0 -0.00000000000E+00 -0.00000000000E+00 -0.45593999997E+02  0.45594000000E+02  0.51100000000E-03 0. -1.
    9900012    2    1    2    0    0  0.78984093241E+00 -0.98335668230E+01 -0.30321564145E+02  0.59301950741E+02  0.50000012244E+02 0.  0.
        -12    1    1    2    0    0 -0.78984093241E+00  0.98335668230E+01  0.30321564145E+02  0.31886049259E+02  0.00000000000E+00 0.  1.
         11    1    3    3    0    0  0.18056160005E+02 -0.15631751568E+02 -0.29928249944E+02  0.38289381245E+02  0.51100000000E-03 0. -1.
        -11    1    3    3    0    0 -0.11378976411E+02 -0.71262745372E+00  0.26803400144E+01  0.11712094813E+02  0.51100000000E-03 0.  1.
         12    1    3    3    0    0 -0.58873426609E+01  0.65108121983E+01 -0.30736542150E+01  0.93004746826E+01  0.00000000000E+00 0. -1.
</event>
<event>
 7    1  0.1139627E-011  0.5930196E+02  0.7816164E-02  0.1266605E+00
        -11   -1    0    0    0    0  0.00000000000E+00  0.00000000000E+00  0.45593999997E+02  0.45594000000E+02  0.51100000000E-03 0.  1.
         11   -1    0    0    0    0 -0.00000000000E+00 -0.00000000000E+00 -0.45593999997E+02  0.45594000000E+02  0.51100000000E-03 0. -1.
    9900012    2    1    2    0    0 -0.12218788459E+02 -0.29401029348E+02 -0.17320301000E+01  0.59301964712E+02  0.50000037722E+02 0.  0.
        -12    1    1    2    0    0  0.12218788459E+02  0.29401029348E+02  0.17320301000E+01  0.31886035288E+02  0.00000000000E+00 0.  1.
         11    1    3    3    0    0 -0.71539606401E+01  0.68128746187E+01 -0.66863404049E+01  0.11929021824E+02  0.51100000000E-03 0. -1.
        -11    1    3    3    0    0 -0.80971731515E+01 -0.30270368387E+02  0.15449495151E+02  0.34936318009E+02  0.51100000000E-03 0.  1.
         12    1    3    3    0    0  0.30323453328E+01 -0.59435355803E+01 -0.10495184846E+02  0.12436624879E+02  0.00000000000E+00 0. -1.
</event>
<event>
 7    1  0.1139627E-011  0.5930194E+02  0.7816164E-02  0.1266605E+00
        -11   -1    0    0    0    0  0.00000000000E+00  0.00000000000E+00  0.45593999997E+02  0.45594000000E+02  0.51100000000E-03 0.  1.
         11   -1    0    0    0    0 -0.00000000000E+00 -0.00000000000E+00 -0.45593999997E+02  0.45594000000E+02  0.51100000000E-03 0. -1.
    9900012    2    1    2    0    0 -0.26782374095E+02 -0.10587894831E+02 -0.13686551438E+02  0.59301940830E+02  0.49999994168E+02 0.  0.
        -12    1    1    2    0    0  0.26782374095E+02  0.10587894831E+02  0.13686551438E+02  0.31886059170E+02  0.00000000000E+00 0.  1.
         11    1    3    3    0    0 -0.22597220748E+01 -0.21317440443E+02 -0.38002133906E+01  0.21771110053E+02  0.51100000000E-03 0. -1.
        -11    1    3    3    0    0  0.38665190537E+01  0.60475036572E+01 -0.37990857398E+01  0.81212882473E+01  0.51100000000E-03 0.  1.
         12    1    3    3    0    0 -0.28389171074E+02  0.46820419544E+01 -0.60872523072E+01  0.29409542530E+02  0.00000000000E+00 0. -1.
</event>
<event>
 7    1  0.1139627E-011  0.5930195E+02  0.7816164E-02  0.1266605E+00
        -11   -1    0    0    0    0  0.00000000000E+00  0.00000000000E+00  0.45593999997E+02  0.45594000000E+02  0.51100000000E-03 0. -1.
         11   -1    0    0    0    0 -0.00000000000E+00 -0.00000000000E+00 -0.45593999997E+02  0.45594000000E+02  0.51100000000E-03 0.  1.
    9900012    2    1    2    0    0 -0.24851405727E+02 -0.16501183693E+02 -0.11262267031E+02  0.59301951506E+02  0.50000013639E+02 0.  0.
        -12    1    1    2    0    0  0.24851405727E+02  0.16501183693E+02  0.11262267031E+02  0.31886048494E+02  0.00000000000E+00 0.  1.
         11    1    3    3    0    0 -0.32127922194E+02 -0.13085448905E+02 -0.95676735323E+01  0.35985729597E+02  0.51100000000E-03 0. -1.
        -11    1    3    3    0    0  0.13261945047E+01 -0.77846624866E+01 -0.96461583072E+01  0.12466279808E+02  0.51100000000E-03 0.  1.
         12    1    3    3    0    0  0.59503219625E+01  0.43689276991E+01  0.79515648086E+01  0.10849942101E+02  0.00000000000E+00 0. -1.
</event>
<event>
 7    1  0.1139627E-011  0.5930195E+02  0.7816164E-02  0.1266605E+00
        -11   -1    0    0    0    0  0.00000000000E+00  0.00000000000E+00  0.45593999997E+02  0.45594000000E+02  0.51100000000E-03 0. -1.
         11   -1    0    0    0    0 -0.00000000000E+00 -0.00000000000E+00 -0.45593999997E+02  0.45594000000E+02  0.51100000000E-03 0.  1.
    9900012    2    1    2    0    0  0.10187913636E+02  0.26010182762E+02 -0.15375212870E+02  0.59301947213E+02  0.50000005809E+02 0.  0.
        -12    1    1    2    0    0 -0.10187913636E+02 -0.26010182762E+02  0.15375212870E+02  0.31886052787E+02  0.00000000000E+00 0.  1.
         11    1    3    3    0    0  0.12668365933E+02  0.81454407061E+01  0.13696015180E+02  0.20357223086E+02  0.51100000000E-03 0. -1.
        -11    1    3    3    0    0  0.31147145033E+01  0.15551991024E+02 -0.28806834490E+02  0.32884640562E+02  0.51100000000E-03 0.  1.
         12    1    3    3    0    0 -0.55951668003E+01  0.23127510315E+01 -0.26439355953E+00  0.60600835647E+01  0.00000000000E+00 0. -1.
</event>
<event>
 7    1  0.1139627E-011  0.5930191E+02  0.7816164E-02  0.1266605E+00
        -11   -1    0    0    0    0  0.00000000000E+00  0.00000000000E+00  0.45593999997E+02  0.45594000000E+02  0.51100000000E-03 0.  1.
         11   -1    0    0    0    0 -0.00000000000E+00 -0.00000000000E+00 -0.45593999997E+02  0.45594000000E+02  0.51100000000E-03 0. -1.
    9900012    2    1    2    0    0  0.18376661407E+02 -0.26048190497E+02  0.71605793442E+00  0.59301911316E+02  0.49999940341E+02 0.  0.
        -12    1    1    2    0    0 -0.18376661407E+02  0.26048190497E+02 -0.71605793442E+00  0.31886088684E+02  0.00000000000E+00 0.  1.
         11    1    3    3    0    0  0.12724161135E+02 -0.13873204974E+02 -0.16568365630E+02  0.25077496541E+02  0.51100000000E-03 0. -1.
        -11    1    3    3    0    0 -0.84587155470E+01  0.25305777586E+00  0.12015336854E+02  0.14696333792E+02  0.51100000000E-03 0.  1.
         12    1    3    3    0    0  0.14111215819E+02 -0.12428043299E+02  0.52690867099E+01  0.19528080983E+02  0.00000000000E+00 0. -1.
</event>
<event>
 7    1  0.1139627E-011  0.5930192E+02  0.7816164E-02  0.1266605E+00
        -11   -1    0    0    0    0  0.00000000000E+00  0.00000000000E+00  0.45593999997E+02  0.45594000000E+02  0.51100000000E-03 0.  1.
         11   -1    0    0    0    0 -0.00000000000E+00 -0.00000000000E+00 -0.45593999997E+02  0.45594000000E+02  0.51100000000E-03 0. -1.
    9900012    2    1    2    0    0 -0.94181220217E+01 -0.30264830076E+02 -0.34729280318E+01  0.59301918537E+02  0.49999953512E+02 0.  0.
        -12    1    1    2    0    0  0.94181220217E+01  0.30264830076E+02  0.34729280318E+01  0.31886081463E+02  0.00000000000E+00 0.  1.
         11    1    3    3    0    0 -0.12235389668E+01  0.50371448641E+01 -0.78380862418E+01  0.93970991364E+01  0.51100000000E-03 0. -1.
        -11    1    3    3    0    0 -0.61178873120E+01 -0.42112496660E+02  0.44290496382E+01  0.42784429424E+02  0.51100000000E-03 0.  1.
         12    1    3    3    0    0 -0.20766957429E+01  0.68105217206E+01 -0.63891428223E-01  0.71203899774E+01  0.00000000000E+00 0. -1.
</event>
<event>
 7    1  0.1139627E-011  0.5930193E+02  0.7816164E-02  0.1266605E+00
        -11   -1    0    0    0    0  0.00000000000E+00  0.00000000000E+00  0.45593999997E+02  0.45594000000E+02  0.51100000000E-03 0.  1.
         11   -1    0    0    0    0 -0.00000000000E+00 -0.00000000000E+00 -0.45593999997E+02  0.45594000000E+02  0.51100000000E-03 0. -1.
    9900012    2    1    2    0    0  0.10519861767E+02  0.26145573807E+02  0.14915201666E+02  0.59301925264E+02  0.49999965780E+02 0.  0.
        -12    1    1    2    0    0 -0.10519861767E+02 -0.26145573807E+02 -0.14915201666E+02  0.31886074736E+02  0.00000000000E+00 0.  1.
         11    1    3    3    0    0  0.11115953043E+02 -0.25937123368E+01  0.30664629188E+01  0.11819261856E+02  0.51100000000E-03 0. -1.
        -11    1    3    3    0    0 -0.15822933074E+02  0.19504989607E+02 -0.15999482401E+01  0.25166836617E+02  0.51100000000E-03 0.  1.
         12    1    3    3    0    0  0.15226841799E+02  0.92342965365E+01  0.13448686988E+02  0.22315826791E+02  0.00000000000E+00 0. -1.
</event>
<event>
 7    1  0.1139627E-011  0.5930199E+02  0.7816164E-02  0.1266605E+00
        -11   -1    0    0    0    0  0.00000000000E+00  0.00000000000E+00  0.45593999997E+02  0.45594000000E+02  0.51100000000E-03 0. -1.
         11   -1    0    0    0    0 -0.00000000000E+00 -0.00000000000E+00 -0.45593999997E+02  0.45594000000E+02  0.51100000000E-03 0.  1.
    9900012    2    1    2    0    0 -0.31336947805E+02  0.58345183244E+01  0.81942588783E+00  0.59301994283E+02  0.50000091653E+02 0.  0.
        -12    1    1    2    0    0  0.31336947805E+02 -0.58345183244E+01 -0.81942588783E+00  0.31886005717E+02  0.00000000000E+00 0.  1.
         11    1    3    3    0    0 -0.35717164010E+02 -0.58917551631E+01  0.12770112266E+02  0.38386252114E+02  0.51100000000E-03 0. -1.
        -11    1    3    3    0    0  0.37491837024E+01 -0.37424136223E+00 -0.67488673772E+01  0.77294014107E+01  0.51100000000E-03 0.  1.
         12    1    3    3    0    0  0.63103250260E+00  0.12100514850E+02 -0.52018190014E+01  0.13186340757E+02  0.00000000000E+00 0. -1.
</event>
<event>
 7    1  0.1139627E-011  0.5930192E+02  0.7816164E-02  0.1266605E+00
        -11   -1    0    0    0    0  0.00000000000E+00  0.00000000000E+00  0.45593999997E+02  0.45594000000E+02  0.51100000000E-03 0.  1.
         11   -1    0    0    0    0 -0.00000000000E+00 -0.00000000000E+00 -0.45593999997E+02  0.45594000000E+02  0.51100000000E-03 0. -1.
    9900012    2    1    2    0    0 -0.29692432128E+02 -0.10589615175E+02  0.47897231322E+01  0.59301922742E+02  0.49999961180E+02 0.  0.
        -12    1    1    2    0    0  0.29692432128E+02  0.10589615175E+02 -0.47897231322E+01  0.31886077258E+02  0.00000000000E+00 0.  1.
         11    1    3    3    0    0 -0.22898200530E+02 -0.87631533922E+01 -0.28891282542E+01  0.24687395715E+02  0.51100000000E-03 0. -1.
        -11    1    3    3    0    0  0.17853356685E+01  0.84064970716E+01  0.16504425864E+02  0.18607866343E+02  0.51100000000E-03 0.  1.
        -12    1    3    3    0    0 -0.85795672667E+01 -0.10232958855E+02 -0.88255744775E+01  0.16006660684E+02  0.00000000000E+00 0.  1.
</event>
<event>
 7    1  0.1139627E-011  0.5930193E+02  0.7816164E-02  0.1266605E+00
        -11   -1    0    0    0    0  0.00000000000E+00  0.00000000000E+00  0.45593999997E+02  0.45594000000E+02  0.51100000000E-03 0. -1.
         11   -1    0    0    0    0 -0.00000000000E+00 -0.00000000000E+00 -0.45593999997E+02  0.45594000000E+02  0.51100000000E-03 0.  1.
    9900012    2    1    2    0    0 -0.65817836090E+01 -0.28258856734E+01  0.31071139040E+02  0.59301934289E+02  0.49999982239E+02 0.  0.
        -12    1    1    2    0    0  0.65817836090E+01  0.28258856734E+01 -0.31071139040E+02  0.31886065711E+02  0.00000000000E+00 0.  1.
         11    1    3    3    0    0  0.39813468264E+01 -0.22631392880E+01  0.22023257117E+02  0.22494372103E+02  0.51100000000E-03 0. -1.
        -11    1    3    3    0    0 -0.44874572710E+01 -0.82585075339E+01 -0.11013140031E+02  0.14478586708E+02  0.51100000000E-03 0.  1.
        -12    1    3    3    0    0 -0.60756731644E+01  0.76957611485E+01  0.20061021954E+02  0.22328975478E+02  0.00000000000E+00 0.  1.
</event>
<event>
 7    1  0.1139627E-011  0.5930194E+02  0.7816164E-02  0.1266605E+00
        -11   -1    0    0    0    0  0.00000000000E+00  0.00000000000E+00  0.45593999997E+02  0.45594000000E+02  0.51100000000E-03 0.  1.
         11   -1    0    0    0    0 -0.00000000000E+00 -0.00000000000E+00 -0.45593999997E+02  0.45594000000E+02  0.51100000000E-03 0. -1.
    9900012    2    1    2    0    0 -0.22868254470E+02 -0.18343994704E+02 -0.12540395208E+02  0.59301941664E+02  0.49999995690E+02 0.  0.
        -12    1    1    2    0    0  0.22868254470E+02  0.18343994704E+02  0.12540395208E+02  0.31886058336E+02  0.00000000000E+00 0.  1.
         11    1    3    3    0    0 -0.92892353237E+01 -0.21847996156E+02 -0.14940993027E+02  0.28050991102E+02  0.51100000000E-03 0. -1.
        -11    1    3    3    0    0 -0.36316721610E+01  0.12636516454E+02 -0.69054293834E+01  0.14851112618E+02  0.51100000000E-03 0.  1.
        -12    1    3    3    0    0 -0.99473469850E+01 -0.91325150024E+01  0.93060272019E+01  0.16399837944E+02  0.00000000000E+00 0.  1.
</event>
<event>
 7    1  0.1139627E-011  0.5930194E+02  0.7816164E-02  0.1266605E+00
        -11   -1    0    0    0    0  0.00000000000E+00  0.00000000000E+00  0.45593999997E+02  0.45594000000E+02  0.51100000000E-03 0.  1.
         11   -1    0    0    0    0 -0.00000000000E+00 -0.00000000000E+00 -0.45593999997E+02  0.45594000000E+02  0.51100000000E-03 0. -1.
    9900012    2    1    2    0    0 -0.29581680873E+02 -0.17768198320E+01  0.11768077676E+02  0.59301943735E+02  0.49999999466E+02 0.  0.
        -12    1    1    2    0    0  0.29581680873E+02  0.17768198320E+01 -0.11768077676E+02  0.31886056265E+02  0.00000000000E+00 0.  1.
         11    1    3    3    0    0 -0.96324765090E+01  0.58880254594E+01  0.25744148497E+02  0.28110756475E+02  0.51100000000E-03 0. -1.
        -11    1    3    3    0    0  0.86922221352E+00 -0.54269326151E+01  0.81396496805E+00  0.55560493244E+01  0.51100000000E-03 0.  1.
         12    1    3    3    0    0 -0.20818426577E+02 -0.22379126763E+01 -0.14790035789E+02  0.25635137935E+02  0.00000000000E+00 0. -1.
</event>
<event>
 7    1  0.1139627E-011  0.5930180E+02  0.7816164E-02  0.1266605E+00
        -11   -1    0    0    0    0  0.00000000000E+00  0.00000000000E+00  0.45593999997E+02  0.45594000000E+02  0.51100000000E-03 0.  1.
         11   -1    0    0    0    0 -0.00000000000E+00 -0.00000000000E+00 -0.45593999997E+02  0.45594000000E+02  0.51100000000E-03 0. -1.
    9900012    2    1    2    0    0  0.72644947881E+01  0.29183067921E+02 -0.10597415797E+02  0.59301802996E+02  0.49999742791E+02 0.  0.
        -12    1    1    2    0    0 -0.72644947881E+01 -0.29183067921E+02  0.10597415797E+02  0.31886197004E+02  0.00000000000E+00 0.  1.
         11    1    3    3    0    0 -0.10079111254E+02  0.12547934282E+02 -0.10755741741E+02  0.19357818035E+02  0.51100000000E-03 0.  1.
        -11    1    3    3    0    0  0.63321575195E+01 -0.89787567970E+01 -0.41260293862E+01  0.11736200886E+02  0.51100000000E-03 0. -1.
         12    1    3    3    0    0  0.11011448523E+02  0.25613890436E+02  0.42843553298E+01  0.28207784075E+02  0.00000000000E+00 0. -1.
</event>
<event>
 7    1  0.1139627E-011  0.5930194E+02  0.7816164E-02  0.1266605E+00
        -11   -1    0    0    0    0  0.00000000000E+00  0.00000000000E+00  0.45593999997E+02  0.45594000000E+02  0.51100000000E-03 0. -1.
         11   -1    0    0    0    0 -0.00000000000E+00 -0.00000000000E+00 -0.45593999997E+02  0.45594000000E+02  0.51100000000E-03 0.  1.
    9900012    2    1    2    0    0  0.13480128023E+02  0.26007311840E+02 -0.12594712746E+02  0.59301938628E+02  0.49999990152E+02 0.  0.
        -12    1    1    2    0    0 -0.13480128023E+02 -0.26007311840E+02  0.12594712746E+02  0.31886061372E+02  0.00000000000E+00 0.  1.
         11    1    3    3    0    0  0.76912251497E+01  0.20594430528E+02 -0.30191666026E+02  0.37347318655E+02  0.51100000000E-03 0. -1.
        -11    1    3    3    0    0  0.50106564643E+01 -0.71707613974E+00  0.25070168859E+01  0.56485405478E+01  0.51100000000E-03 0.  1.
         12    1    3    3    0    0  0.77824640926E+00  0.61299574521E+01  0.15089936394E+02  0.16306079425E+02  0.00000000000E+00 0. -1.
</event>
<event>
 7    1  0.1139627E-011  0.5930195E+02  0.7816164E-02  0.1266605E+00
        -11   -1    0    0    0    0  0.00000000000E+00  0.00000000000E+00  0.45593999997E+02  0.45594000000E+02  0.51100000000E-03 0.  1.
         11   -1    0    0    0    0 -0.00000000000E+00 -0.00000000000E+00 -0.45593999997E+02  0.45594000000E+02  0.51100000000E-03 0. -1.
    9900012    2    1    2    0    0 -0.17945684904E+01  0.31466183548E+02 -0.48352056783E+01  0.59301946667E+02  0.50000004814E+02 0.  0.
        -12    1    1    2    0    0  0.17945684904E+01 -0.31466183548E+02  0.48352056783E+01  0.31886053333E+02  0.00000000000E+00 0.  1.
         11    1    3    3    0    0  0.12995340071E+02  0.14246014573E+02 -0.15594964688E+02  0.24799812876E+02  0.51100000000E-03 0. -1.
        -11    1    3    3    0    0 -0.10703000365E+02 -0.37498142670E+01  0.26203563721E+01  0.11639655993E+02  0.51100000000E-03 0.  1.
        -12    1    3    3    0    0 -0.40869081963E+01  0.20969983242E+02  0.81394026381E+01  0.22862477799E+02  0.00000000000E+00 0.  1.
</event>
<event>
 7    1  0.1139627E-011  0.5930192E+02  0.7816164E-02  0.1266605E+00
        -11   -1    0    0    0    0  0.00000000000E+00  0.00000000000E+00  0.45593999997E+02  0.45594000000E+02  0.51100000000E-03 0.  1.
         11   -1    0    0    0    0 -0.00000000000E+00 -0.00000000000E+00 -0.45593999997E+02  0.45594000000E+02  0.51100000000E-03 0. -1.
    9900012    2    1    2    0    0  0.51672708249E+01  0.16610229241E+02 -0.26723055062E+02  0.59301920356E+02  0.49999956828E+02 0.  0.
        -12    1    1    2    0    0 -0.51672708249E+01 -0.16610229241E+02  0.26723055062E+02  0.31886079644E+02  0.00000000000E+00 0.  1.
         11    1    3    3    0    0 -0.38186900656E+00  0.27673990749E+02 -0.19816760077E+02  0.34039676381E+02  0.51100000000E-03 0. -1.
        -11    1    3    3    0    0  0.62579101179E+01 -0.17104254596E+02 -0.49581494811E+01  0.18875916159E+02  0.51100000000E-03 0.  1.
        -12    1    3    3    0    0 -0.70877028645E+00  0.60404930883E+01 -0.19481455034E+01  0.63863278159E+01  0.00000000000E+00 0.  1.
</event>
<event>
 7    1  0.1139627E-011  0.5930160E+02  0.7816164E-02  0.1266606E+00
        -11   -1    0    0    0    0  0.00000000000E+00  0.00000000000E+00  0.45593999997E+02  0.45594000000E+02  0.51100000000E-03 0. -1.
         11   -1    0    0    0    0 -0.00000000000E+00 -0.00000000000E+00 -0.45593999997E+02  0.45594000000E+02  0.51100000000E-03 0.  1.
    9900012    2    1    2    0    0 -0.29125389666E+01  0.31397575502E+02  0.47383500271E+01  0.59301598641E+02  0.49999370094E+02 0.  0.
        -12    1    1    2    0    0  0.29125389666E+01 -0.31397575502E+02 -0.47383500271E+01  0.31886401359E+02  0.00000000000E+00 0.  1.
         11    1    3    3    0    0 -0.22942510766E+01  0.13013315774E+02 -0.17190418132E+02  0.21682261211E+02  0.51100000000E-03 0. -1.
        -11    1    3    3    0    0  0.11870181470E+02  0.86697582705E+01  0.11592283199E+02  0.18720228274E+02  0.51100000000E-03 0.  1.
         12    1    3    3    0    0 -0.12488469360E+02  0.97145014580E+01  0.10336484960E+02  0.18899109155E+02  0.00000000000E+00 0. -1.
</event>
<event>
 7    1  0.1139627E-011  0.5930194E+02  0.7816164E-02  0.1266605E+00
        -11   -1    0    0    0    0  0.00000000000E+00  0.00000000000E+00  0.45593999997E+02  0.45594000000E+02  0.51100000000E-03 0. -1.
         11   -1    0    0    0    0 -0.00000000000E+00 -0.00000000000E+00 -0.45593999997E+02  0.45594000000E+02  0.51100000000E-03 0.  1.
    9900012    2    1    2    0    0 -0.70529250473E+01  0.16460888065E+02  0.26382122372E+02  0.59301937708E+02  0.49999988475E+02 0.  0.
        -12    1    1    2    0    0  0.70529250473E+01 -0.16460888065E+02 -0.26382122372E+02  0.31886062292E+02  0.00000000000E+00 0.  1.
         11    1    3    3    0    0 -0.51613447453E+01  0.31070209005E+02  0.18651416693E+02  0.36604271774E+02  0.51100000000E-03 0. -1.
        -11    1    3    3    0    0  0.54923118844E+01 -0.72651476329E+01 -0.92696509389E+00  0.91546231222E+01  0.51100000000E-03 0.  1.
         12    1    3    3    0    0 -0.73838921864E+01 -0.73441733072E+01  0.86576707735E+01  0.13543042812E+02  0.00000000000E+00 0. -1.
</event>
<event>
 7    1  0.1139627E-011  0.5930199E+02  0.7816164E-02  0.1266605E+00
        -11   -1    0    0    0    0  0.00000000000E+00  0.00000000000E+00  0.45593999997E+02  0.45594000000E+02  0.51100000000E-03 0. -1.
         11   -1    0    0    0    0 -0.00000000000E+00 -0.00000000000E+00 -0.45593999997E+02  0.45594000000E+02  0.51100000000E-03 0.  1.
    9900012    2    1    2    0    0  0.42199330453E+01 -0.25589746877E+02  0.18549241110E+02  0.59301994827E+02  0.50000092646E+02 0.  0.
        -12    1    1    2    0    0 -0.42199330453E+01  0.25589746877E+02 -0.18549241110E+02  0.31886005173E+02  0.00000000000E+00 0.  1.
         11    1    3    3    0    0 -0.23526121789E+01  0.77430739278E+01 -0.36750624065E+01  0.88879728774E+01  0.51100000000E-03 0. -1.
        -11    1    3    3    0    0  0.18493630932E+02 -0.17812397266E+02  0.12280584090E+02  0.28462407264E+02  0.51100000000E-03 0.  1.
         12    1    3    3    0    0 -0.11921085708E+02 -0.15520423539E+02  0.99437194257E+01  0.21951614685E+02  0.00000000000E+00 0. -1.
</event>
<event>
 7    1  0.1139627E-011  0.5930183E+02  0.7816164E-02  0.1266605E+00
        -11   -1    0    0    0    0  0.00000000000E+00  0.00000000000E+00  0.45593999997E+02  0.45594000000E+02  0.51100000000E-03 0.  1.
         11   -1    0    0    0    0 -0.00000000000E+00 -0.00000000000E+00 -0.45593999997E+02  0.45594000000E+02  0.51100000000E-03 0. -1.
    9900012    2    1    2    0    0 -0.23126874074E+01 -0.83879848926E+01 -0.30676060805E+02  0.59301834973E+02  0.49999801110E+02 0.  0.
        -12    1    1    2    0    0  0.23126874074E+01  0.83879848926E+01  0.30676060805E+02  0.31886165027E+02  0.00000000000E+00 0.  1.
         11    1    3    3    0    0  0.85370474766E+01  0.34723089515E+01 -0.14872776999E+02  0.17496788419E+02  0.51100000000E-03 0. -1.
        -11    1    3    3    0    0 -0.14830752504E+02 -0.14810939106E+02 -0.24224896076E+02  0.32033743572E+02  0.51100000000E-03 0.  1.
        -12    1    3    3    0    0  0.39810176202E+01  0.29506452621E+01  0.84216122698E+01  0.97713029826E+01  0.00000000000E+00 0.  1.
</event>
<event>
 7    1  0.1139627E-011  0.5930194E+02  0.7816164E-02  0.1266605E+00
        -11   -1    0    0    0    0  0.00000000000E+00  0.00000000000E+00  0.45593999997E+02  0.45594000000E+02  0.51100000000E-03 0.  1.
         11   -1    0    0    0    0 -0.00000000000E+00 -0.00000000000E+00 -0.45593999997E+02  0.45594000000E+02  0.51100000000E-03 0. -1.
    9900012    2    1    2    0    0 -0.27179520885E+02 -0.16521527288E+02 -0.22435752349E+01  0.59301939577E+02  0.49999991884E+02 0.  0.
        -12    1    1    2    0    0  0.27179520885E+02  0.16521527288E+02  0.22435752349E+01  0.31886060423E+02  0.00000000000E+00 0.  1.
         11    1    3    3    0    0 -0.18338799554E+02 -0.77734109707E+01 -0.17037269635E+02  0.26210800142E+02  0.51100000000E-03 0. -1.
        -11    1    3    3    0    0  0.65266997740E+01 -0.12168125755E+02  0.78614693533E+01  0.15889109320E+02  0.51100000000E-03 0.  1.
        -12    1    3    3    0    0 -0.15367421105E+02  0.34200094386E+01  0.69322250470E+01  0.17202030115E+02  0.00000000000E+00 0.  1.
</event>
<event>
 7    1  0.1139627E-011  0.5930196E+02  0.7816164E-02  0.1266605E+00
        -11   -1    0    0    0    0  0.00000000000E+00  0.00000000000E+00  0.45593999997E+02  0.45594000000E+02  0.51100000000E-03 0.  1.
         11   -1    0    0    0    0 -0.00000000000E+00 -0.00000000000E+00 -0.45593999997E+02  0.45594000000E+02  0.51100000000E-03 0. -1.
    9900012    2    1    2    0    0 -0.97010843565E+01  0.30011040734E+00 -0.30372986336E+02  0.59301962258E+02  0.50000033247E+02 0.  0.
        -12    1    1    2    0    0  0.97010843565E+01 -0.30011040734E+00  0.30372986336E+02  0.31886037742E+02  0.00000000000E+00 0.  1.
         11    1    3    3    0    0 -0.22090866119E+01  0.55455223979E+00 -0.36654487043E+02  0.36725182266E+02  0.51100000000E-03 0. -1.
        -11    1    3    3    0    0 -0.14135631399E+02  0.25095535514E+01  0.53498452237E+01  0.15321056695E+02  0.51100000000E-03 0.  1.
         12    1    3    3    0    0  0.66436336545E+01 -0.27639953838E+01  0.93165548340E+00  0.72557232966E+01  0.00000000000E+00 0. -1.
</event>
<event>
 7    1  0.1139627E-011  0.5930192E+02  0.7816164E-02  0.1266605E+00
        -11   -1    0    0    0    0  0.00000000000E+00  0.00000000000E+00  0.45593999997E+02  0.45594000000E+02  0.51100000000E-03 0. -1.
         11   -1    0    0    0    0 -0.00000000000E+00 -0.00000000000E+00 -0.45593999997E+02  0.45594000000E+02  0.51100000000E-03 0.  1.
    9900012    2    1    2    0    0  0.19811898534E+02 -0.66537573474E+01  0.24081906122E+02  0.59301921332E+02  0.49999958609E+02 0.  0.
        -12    1    1    2    0    0 -0.19811898534E+02  0.66537573474E+01 -0.24081906122E+02  0.31886078668E+02  0.00000000000E+00 0.  1.
         11    1    3    3    0    0  0.89038847779E+01 -0.18658290585E+02  0.26368757427E+02  0.33507049112E+02  0.51100000000E-03 0. -1.
        -11    1    3    3    0    0  0.15654641459E+02  0.12049287871E+02  0.13707612911E+01  0.19802326231E+02  0.51100000000E-03 0.  1.
         12    1    3    3    0    0 -0.47466277026E+01 -0.44754633009E-01 -0.36576125963E+01  0.59925459889E+01  0.00000000000E+00 0. -1.
</event>
<event>
 7    1  0.1139627E-011  0.5930198E+02  0.7816164E-02  0.1266605E+00
        -11   -1    0    0    0    0  0.00000000000E+00  0.00000000000E+00  0.45593999997E+02  0.45594000000E+02  0.51100000000E-03 0.  1.
         11   -1    0    0    0    0 -0.00000000000E+00 -0.00000000000E+00 -0.45593999997E+02  0.45594000000E+02  0.51100000000E-03 0. -1.
    9900012    2    1    2    0    0  0.25144079252E+02  0.19578657691E+02 -0.10814047200E+01  0.59301984341E+02  0.50000073522E+02 0.  0.
        -12    1    1    2    0    0 -0.25144079252E+02 -0.19578657691E+02  0.10814047200E+01  0.31886015659E+02  0.00000000000E+00 0.  1.
         11    1    3    3    0    0  0.19306121811E+02  0.41892321557E+01  0.10622430874E+01  0.19783942127E+02  0.51100000000E-03 0. -1.
        -11    1    3    3    0    0  0.74032932286E+01  0.25195874691E+02 -0.86464019448E+01  0.27647804957E+02  0.51100000000E-03 0.  1.
        -12    1    3    3    0    0 -0.15653357877E+01 -0.98064491558E+01  0.65027541374E+01  0.11870237257E+02  0.00000000000E+00 0.  1.
</event>
<event>
 7    1  0.1139627E-011  0.5930188E+02  0.7816164E-02  0.1266605E+00
        -11   -1    0    0    0    0  0.00000000000E+00  0.00000000000E+00  0.45593999997E+02  0.45594000000E+02  0.51100000000E-03 0. -1.
         11   -1    0    0    0    0 -0.00000000000E+00 -0.00000000000E+00 -0.45593999997E+02  0.45594000000E+02  0.51100000000E-03 0.  1.
    9900012    2    1    2    0    0 -0.62833204716E+01 -0.71169847357E+01  0.30439995245E+02  0.59301876084E+02  0.49999876086E+02 0.  0.
        -12    1    1    2    0    0  0.62833204716E+01  0.71169847357E+01 -0.30439995245E+02  0.31886123916E+02  0.00000000000E+00 0.  1.
         11    1    3    3    0    0  0.37852990921E+01  0.31469546016E+01  0.19578495018E+02  0.20187849809E+02  0.51100000000E-03 0. -1.
        -11    1    3    3    0    0  0.24014392525E+01 -0.25760892247E+01 -0.11697304614E+02  0.12215976492E+02  0.51100000000E-03 0.  1.
         12    1    3    3    0    0 -0.12470058816E+02 -0.76878501126E+01  0.22558804841E+02  0.26898049782E+02  0.00000000000E+00 0. -1.
</event>
<event>
 7    1  0.1139627E-011  0.5930189E+02  0.7816164E-02  0.1266605E+00
        -11   -1    0    0    0    0  0.00000000000E+00  0.00000000000E+00  0.45593999997E+02  0.45594000000E+02  0.51100000000E-03 0. -1.
         11   -1    0    0    0    0 -0.00000000000E+00 -0.00000000000E+00 -0.45593999997E+02  0.45594000000E+02  0.51100000000E-03 0.  1.
    9900012    2    1    2    0    0 -0.26468037805E+02 -0.10505389780E+02  0.14345862776E+02  0.59301889882E+02  0.49999901251E+02 0.  0.
        -12    1    1    2    0    0  0.26468037805E+02  0.10505389780E+02 -0.14345862776E+02  0.31886110118E+02  0.00000000000E+00 0.  1.
         11    1    3    3    0    0  0.10821980138E+02 -0.12490604065E+02  0.14168168802E+02  0.21768496767E+02  0.51100000000E-03 0. -1.
        -11    1    3    3    0    0 -0.10763374580E+02  0.14075226344E+01 -0.14455988886E+01  0.10950849680E+02  0.51100000000E-03 0.  1.
         12    1    3    3    0    0 -0.26526643363E+02  0.57769165032E+00  0.16232928626E+01  0.26582543435E+02  0.00000000000E+00 0. -1.
</event>
<event>
 7    1  0.1139627E-011  0.5930193E+02  0.7816164E-02  0.1266605E+00
        -11   -1    0    0    0    0  0.00000000000E+00  0.00000000000E+00  0.45593999997E+02  0.45594000000E+02  0.51100000000E-03 0. -1.
         11   -1    0    0    0    0 -0.00000000000E+00 -0.00000000000E+00 -0.45593999997E+02  0.45594000000E+02  0.51100000000E-03 0.  1.
    9900012    2    1    2    0    0 -0.15795837271E+02 -0.10549694222E+02  0.25610871241E+02  0.59301933310E+02  0.49999980453E+02 0.  0.
        -12    1    1    2    0    0  0.15795837271E+02  0.10549694222E+02 -0.25610871241E+02  0.31886066690E+02  0.00000000000E+00 0.  1.
         11    1    3    3    0    0 -0.15441058705E+02  0.16647448964E+01  0.28062133656E+02  0.32073057464E+02  0.51100000000E-03 0. -1.
        -11    1    3    3    0    0 -0.13135982243E+01 -0.17574721411E+02 -0.80883944522E+01  0.19391196406E+02  0.51100000000E-03 0.  1.
        -12    1    3    3    0    0  0.95881965833E+00  0.53602822930E+01  0.56371320369E+01  0.78376794397E+01  0.00000000000E+00 0.  1.
</event>
<event>
 7    1  0.1139627E-011  0.5930193E+02  0.7816164E-02  0.1266605E+00
        -11   -1    0    0    0    0  0.00000000000E+00  0.00000000000E+00  0.45593999997E+02  0.45594000000E+02  0.51100000000E-03 0.  1.
         11   -1    0    0    0    0 -0.00000000000E+00 -0.00000000000E+00 -0.45593999997E+02  0.45594000000E+02  0.51100000000E-03 0. -1.
    9900012    2    1    2    0    0  0.10691338644E+02 -0.19975049159E+02 -0.22436895668E+02  0.59301927835E+02  0.49999970468E+02 0.  0.
        -12    1    1    2    0    0 -0.10691338644E+02  0.19975049159E+02  0.22436895668E+02  0.31886072165E+02  0.00000000000E+00 0.  1.
         11    1    3    3    0    0  0.12771993135E+01 -0.71325732177E+01 -0.18039236287E+02  0.19440135928E+02  0.51100000000E-03 0. -1.
        -11    1    3    3    0    0 -0.25378551822E+01  0.38801579459E+01  0.12449645070E+02  0.13284953791E+02  0.51100000000E-03 0.  1.
        -12    1    3    3    0    0  0.11951994513E+02 -0.16722633887E+02 -0.16847304451E+02  0.26576838116E+02  0.00000000000E+00 0.  1.
</event>
<event>
 7    1  0.1139627E-011  0.5930197E+02  0.7816164E-02  0.1266605E+00
        -11   -1    0    0    0    0  0.00000000000E+00  0.00000000000E+00  0.45593999997E+02  0.45594000000E+02  0.51100000000E-03 0. -1.
         11   -1    0    0    0    0 -0.00000000000E+00 -0.00000000000E+00 -0.45593999997E+02  0.45594000000E+02  0.51100000000E-03 0.  1.
    9900012    2    1    2    0    0 -0.21747024676E+02  0.55077703537E+01  0.22659447461E+02  0.59301965820E+02  0.50000039743E+02 0.  0.
        -12    1    1    2    0    0  0.21747024676E+02 -0.55077703537E+01 -0.22659447461E+02  0.31886034180E+02  0.00000000000E+00 0.  1.
         11    1    3    3    0    0 -0.14839905237E+02 -0.15764793844E+02  0.12258977799E+02  0.24880394879E+02  0.51100000000E-03 0. -1.
        -11    1    3    3    0    0  0.24927425032E+01  0.12287368755E+02  0.15946231947E+02  0.20284859124E+02  0.51100000000E-03 0.  1.
        -12    1    3    3    0    0 -0.93998619418E+01  0.89851954426E+01 -0.55457622856E+01  0.14136711817E+02  0.00000000000E+00 0.  1.
</event>
<event>
 7    1  0.1139627E-011  0.5930209E+02  0.7816164E-02  0.1266604E+00
        -11   -1    0    0    0    0  0.00000000000E+00  0.00000000000E+00  0.45593999997E+02  0.45594000000E+02  0.51100000000E-03 0. -1.
         11   -1    0    0    0    0 -0.00000000000E+00 -0.00000000000E+00 -0.45593999997E+02  0.45594000000E+02  0.51100000000E-03 0.  1.
    9900012    2    1    2    0    0  0.64042646204E+00  0.15495984716E+02  0.27859924113E+02  0.59302093083E+02  0.50000271839E+02 0.  0.
        -12    1    1    2    0    0 -0.64042646204E+00 -0.15495984716E+02 -0.27859924113E+02  0.31885906917E+02  0.00000000000E+00 0.  1.
         11    1    3    3    0    0  0.18941801707E+02  0.14461019465E+02  0.98856059972E+01  0.25799963994E+02  0.51100000000E-03 0. -1.
        -11    1    3    3    0    0 -0.10932193538E+02  0.74204307184E+01  0.19578944446E+02  0.23620133647E+02  0.51100000000E-03 0.  1.
         12    1    3    3    0    0 -0.73691817063E+01 -0.63854654681E+01 -0.16046263301E+01  0.98819954425E+01  0.00000000000E+00 0. -1.
</event>
<event>
 7    1  0.1139627E-011  0.5930194E+02  0.7816164E-02  0.1266605E+00
        -11   -1    0    0    0    0  0.00000000000E+00  0.00000000000E+00  0.45593999997E+02  0.45594000000E+02  0.51100000000E-03 0. -1.
         11   -1    0    0    0    0 -0.00000000000E+00 -0.00000000000E+00 -0.45593999997E+02  0.45594000000E+02  0.51100000000E-03 0.  1.
    9900012    2    1    2    0    0  0.30205622535E+02  0.10213962666E+02 -0.12698009331E+00  0.59301940507E+02  0.49999993579E+02 0.  0.
        -12    1    1    2    0    0 -0.30205622535E+02 -0.10213962666E+02  0.12698009331E+00  0.31886059493E+02  0.00000000000E+00 0.  1.
         11    1    3    3    0    0  0.26906523307E+02  0.43197759897E+01 -0.19873709514E+02  0.33728115737E+02  0.51100000000E-03 0. -1.
        -11    1    3    3    0    0 -0.28070511080E+01  0.25579297983E+01  0.18004797661E+02  0.18400958667E+02  0.51100000000E-03 0.  1.
         12    1    3    3    0    0  0.61061503362E+01  0.33362568775E+01  0.17419317595E+01  0.71728661033E+01  0.00000000000E+00 0. -1.
</event>
<event>
 7    1  0.1139627E-011  0.5930195E+02  0.7816164E-02  0.1266605E+00
        -11   -1    0    0    0    0  0.00000000000E+00  0.00000000000E+00  0.45593999997E+02  0.45594000000E+02  0.51100000000E-03 0. -1.
         11   -1    0    0    0    0 -0.00000000000E+00 -0.00000000000E+00 -0.45593999997E+02  0.45594000000E+02  0.51100000000E-03 0.  1.
    9900012    2    1    2    0    0 -0.25038934577E+02  0.19609296283E+02  0.22906942637E+01  0.59301952492E+02  0.50000015436E+02 0.  0.
        -12    1    1    2    0    0  0.25038934577E+02 -0.19609296283E+02 -0.22906942637E+01  0.31886047508E+02  0.00000000000E+00 0.  1.
         11    1    3    3    0    0  0.53952942516E+00  0.18990030573E+02 -0.15621565120E+02  0.24595642911E+02  0.51100000000E-03 0. -1.
        -11    1    3    3    0    0 -0.18988616551E+02 -0.42988465754E+00  0.20128497347E+02  0.27675056731E+02  0.51100000000E-03 0.  1.
        -12    1    3    3    0    0 -0.65898474514E+01  0.10491503683E+01 -0.22162379627E+01  0.70312528496E+01  0.00000000000E+00 0.  1.
</event>
<event>
 7    1  0.1139627E-011  0.5930194E+02  0.7816164E-02  0.1266605E+00
        -11   -1    0    0    0    0  0.00000000000E+00  0.00000000000E+00  0.45593999997E+02  0.45594000000E+02  0.51100000000E-03 0.  1.
         11   -1    0    0    0    0 -0.00000000000E+00 -0.00000000000E+00 -0.45593999997E+02  0.45594000000E+02  0.51100000000E-03 0. -1.
    9900012    2    1    2    0    0  0.10383110282E+02 -0.68797164010E+01 -0.29352702920E+02  0.59301942771E+02  0.49999997708E+02 0.  0.
        -12    1    1    2    0    0 -0.10383110282E+02  0.68797164010E+01  0.29352702920E+02  0.31886057229E+02  0.00000000000E+00 0.  1.
         11    1    3    3    0    0 -0.55089700143E+01 -0.65221253922E+01 -0.11906397935E+02  0.14650910630E+02  0.51100000000E-03 0. -1.
        -11    1    3    3    0    0  0.25980966671E+02 -0.81698832707E+01 -0.68971177870E+01  0.28094979193E+02  0.51100000000E-03 0.  1.
        -12    1    3    3    0    0 -0.10088886375E+02  0.78122922619E+01 -0.10549187199E+02  0.16556052948E+02  0.00000000000E+00 0.  1.
</event>
<event>
 7    1  0.1139627E-011  0.5930203E+02  0.7816164E-02  0.1266604E+00
        -11   -1    0    0    0    0  0.00000000000E+00  0.00000000000E+00  0.45593999997E+02  0.45594000000E+02  0.51100000000E-03 0. -1.
         11   -1    0    0    0    0 -0.00000000000E+00 -0.00000000000E+00 -0.45593999997E+02  0.45594000000E+02  0.51100000000E-03 0.  1.
    9900012    2    1    2    0    0  0.29851478399E+02  0.11098897535E+02 -0.15553077809E+01  0.59302027043E+02  0.50000151400E+02 0.  0.
        -12    1    1    2    0    0 -0.29851478399E+02 -0.11098897535E+02  0.15553077809E+01  0.31885972957E+02  0.00000000000E+00 0.  1.
         11    1    3    3    0    0  0.36624566409E+02  0.11951786531E+02 -0.11107022563E+02  0.40094513545E+02  0.51100000000E-03 0.  1.
        -11    1    3    3    0    0 -0.10284932922E+02  0.19301692819E+01  0.10278455330E+02  0.14668062002E+02  0.51100000000E-03 0. -1.
        -12    1    3    3    0    0  0.35118449117E+01 -0.27830582780E+01 -0.72674054729E+00  0.45394514962E+01  0.00000000000E+00 0.  1.
</event>
<event>
 7    1  0.1139627E-011  0.5930197E+02  0.7816164E-02  0.1266605E+00
        -11   -1    0    0    0    0  0.00000000000E+00  0.00000000000E+00  0.45593999997E+02  0.45594000000E+02  0.51100000000E-03 0.  1.
         11   -1    0    0    0    0 -0.00000000000E+00 -0.00000000000E+00 -0.45593999997E+02  0.45594000000E+02  0.51100000000E-03 0. -1.
    9900012    2    1    2    0    0  0.35959849648E+01 -0.17881166743E+02 -0.26154386611E+02  0.59301965895E+02  0.50000039881E+02 0.  0.
        -12    1    1    2    0    0 -0.35959849648E+01  0.17881166743E+02  0.26154386611E+02  0.31886034105E+02  0.00000000000E+00 0.  1.
         11    1    3    3    0    0  0.25585777060E+01 -0.42137362348E+01 -0.11677318812E+02  0.12675238374E+02  0.51100000000E-03 0. -1.
        -11    1    3    3    0    0  0.15312129146E+02 -0.27302595850E+01  0.82813861716E+01  0.17620924311E+02  0.51100000000E-03 0.  1.
        -12    1    3    3    0    0 -0.14274721887E+02 -0.10937170923E+02 -0.22758453970E+02  0.29005803210E+02  0.00000000000E+00 0.  1.
</event>
<event>
 7    1  0.1139627E-011  0.5930197E+02  0.7816164E-02  0.1266605E+00
        -11   -1    0    0    0    0  0.00000000000E+00  0.00000000000E+00  0.45593999997E+02  0.45594000000E+02  0.51100000000E-03 0.  1.
         11   -1    0    0    0    0 -0.00000000000E+00 -0.00000000000E+00 -0.45593999997E+02  0.45594000000E+02  0.51100000000E-03 0. -1.
    9900012    2    1    2    0    0 -0.32415126050E+01 -0.21677522030E+02 -0.23158082420E+02  0.59301966275E+02  0.50000040575E+02 0.  0.
        -12    1    1    2    0    0  0.32415126050E+01  0.21677522030E+02  0.23158082420E+02  0.31886033725E+02  0.00000000000E+00 0.  1.
         11    1    3    3    0    0 -0.32206749221E+01 -0.31803679755E+02 -0.20716394740E+02  0.38092201357E+02  0.51100000000E-03 0. -1.
        -11    1    3    3    0    0 -0.65174104776E+01 -0.15561173335E+01  0.22110826045E+01  0.70559922785E+01  0.51100000000E-03 0.  1.
        -12    1    3    3    0    0  0.64965727948E+01  0.11682275059E+02 -0.46527702842E+01  0.14153772640E+02  0.00000000000E+00 0.  1.
</event>
<event>
 7    1  0.1139627E-011  0.5930196E+02  0.7816164E-02  0.1266605E+00
        -11   -1    0    0    0    0  0.00000000000E+00  0.00000000000E+00  0.45593999997E+02  0.45594000000E+02  0.51100000000E-03 0. -1.
         11   -1    0    0    0    0 -0.00000000000E+00 -0.00000000000E+00 -0.45593999997E+02  0.45594000000E+02  0.51100000000E-03 0.  1.
    9900012    2    1    2    0    0  0.72692259749E+01 -0.27360369379E+02  0.14672696305E+02  0.59301961116E+02  0.50000031165E+02 0.  0.
        -12    1    1    2    0    0 -0.72692259749E+01  0.27360369379E+02 -0.14672696305E+02  0.31886038884E+02  0.00000000000E+00 0.  1.
         11    1    3    3    0    0  0.12416233886E+02 -0.12680436008E+02  0.26315311160E+01  0.17941050068E+02  0.51100000000E-03 0. -1.
        -11    1    3    3    0    0 -0.14586355219E+02 -0.22767903386E+02  0.95986969725E+01  0.28692754609E+02  0.51100000000E-03 0.  1.
        -12    1    3    3    0    0  0.94393473082E+01  0.80879700157E+01  0.24424682165E+01  0.12668156439E+02  0.00000000000E+00 0.  1.
</event>
<event>
 7    1  0.1139627E-011  0.5930192E+02  0.7816164E-02  0.1266605E+00
        -11   -1    0    0    0    0  0.00000000000E+00  0.00000000000E+00  0.45593999997E+02  0.45594000000E+02  0.51100000000E-03 0.  1.
         11   -1    0    0    0    0 -0.00000000000E+00 -0.00000000000E+00 -0.45593999997E+02  0.45594000000E+02  0.51100000000E-03 0. -1.
    9900012    2    1    2    0    0 -0.49018030747E+01  0.16564499891E+02 -0.26801335246E+02  0.59301923086E+02  0.49999961807E+02 0.  0.
        -12    1    1    2    0    0  0.49018030747E+01 -0.16564499891E+02  0.26801335246E+02  0.31886076914E+02  0.00000000000E+00 0.  1.
         11    1    3    3    0    0  0.18563686988E+02  0.48045479794E+01 -0.13329335057E+02  0.23353058241E+02  0.51100000000E-03 0. -1.
        -11    1    3    3    0    0 -0.65154912900E+01 -0.50037030490E+01  0.64945058951E+00  0.82407801379E+01  0.51100000000E-03 0.  1.
        -12    1    3    3    0    0 -0.16949998773E+02  0.16763654961E+02 -0.14121450779E+02  0.27708084707E+02  0.00000000000E+00 0.  1.
</event>
<event>
 7    1  0.1139627E-011  0.5930189E+02  0.7816164E-02  0.1266605E+00
        -11   -1    0    0    0    0  0.00000000000E+00  0.00000000000E+00  0.45593999997E+02  0.45594000000E+02  0.51100000000E-03 0.  1.
         11   -1    0    0    0    0 -0.00000000000E+00 -0.00000000000E+00 -0.45593999997E+02  0.45594000000E+02  0.51100000000E-03 0. -1.
    9900012    2    1    2    0    0  0.98332477442E+01  0.23385358915E+02 -0.19317252051E+02  0.59301890177E+02  0.49999901790E+02 0.  0.
        -12    1    1    2    0    0 -0.98332477442E+01 -0.23385358915E+02  0.19317252051E+02  0.31886109823E+02  0.00000000000E+00 0.  1.
         11    1    3    3    0    0  0.56957090580E+01  0.29303253939E+02 -0.90586836012E+01  0.31195857769E+02  0.51100000000E-03 0. -1.
        -11    1    3    3    0    0 -0.48840080407E+01 -0.12935880064E+02 -0.92412756948E+01  0.16631046399E+02  0.51100000000E-03 0.  1.
        -12    1    3    3    0    0  0.90215467269E+01  0.70179850404E+01 -0.10172927555E+01  0.11474986010E+02  0.00000000000E+00 0.  1.
</event>
<event>
 7    1  0.1139627E-011  0.5930192E+02  0.7816164E-02  0.1266605E+00
        -11   -1    0    0    0    0  0.00000000000E+00  0.00000000000E+00  0.45593999997E+02  0.45594000000E+02  0.51100000000E-03 0.  1.
         11   -1    0    0    0    0 -0.00000000000E+00 -0.00000000000E+00 -0.45593999997E+02  0.45594000000E+02  0.51100000000E-03 0. -1.
    9900012    2    1    2    0    0  0.70583246096E+01 -0.30369084119E+02 -0.66798942299E+01  0.59301918343E+02  0.49999953157E+02 0.  0.
        -12    1    1    2    0    0 -0.70583246096E+01  0.30369084119E+02  0.66798942299E+01  0.31886081657E+02  0.00000000000E+00 0.  1.
         11    1    3    3    0    0 -0.44225152853E+01 -0.18482273260E+02 -0.21226030512E+02  0.28490304278E+02  0.51100000000E-03 0. -1.
        -11    1    3    3    0    0  0.11159611947E+02 -0.15784302515E+02  0.42426597980E+01  0.19790940027E+02  0.51100000000E-03 0.  1.
         12    1    3    3    0    0  0.32122794756E+00  0.38974916560E+01  0.10303476484E+02  0.11020674038E+02  0.00000000000E+00 0. -1.
</event>
<event>
 7    1  0.1139627E-011  0.5930220E+02  0.7816164E-02  0.1266604E+00
        -11   -1    0    0    0    0  0.00000000000E+00  0.00000000000E+00  0.45593999997E+02  0.45594000000E+02  0.51100000000E-03 0.  1.
         11   -1    0    0    0    0 -0.00000000000E+00 -0.00000000000E+00 -0.45593999997E+02  0.45594000000E+02  0.51100000000E-03 0. -1.
    9900012    2    1    2    0    0  0.12235329685E+02  0.19849334701E+02 -0.21748679561E+02  0.59302196839E+02  0.50000461066E+02 0.  0.
        -12    1    1    2    0    0 -0.12235329685E+02 -0.19849334701E+02  0.21748679561E+02  0.31885803161E+02  0.00000000000E+00 0.  1.
         11    1    3    3    0    0  0.15316795388E+02  0.27676667710E+02 -0.11033123976E+02  0.33501223581E+02  0.51100000000E-03 0.  1.
        -11    1    3    3    0    0 -0.80647624689E+01 -0.73781947516E+01  0.28886197333E+01  0.11305851392E+02  0.51100000000E-03 0. -1.
         12    1    3    3    0    0  0.49832967662E+01 -0.44913825806E+00 -0.13604175318E+02  0.14495121866E+02  0.00000000000E+00 0. -1.
</event>
<event>
 7    1  0.1139627E-011  0.5930194E+02  0.7816164E-02  0.1266605E+00
        -11   -1    0    0    0    0  0.00000000000E+00  0.00000000000E+00  0.45593999997E+02  0.45594000000E+02  0.51100000000E-03 0.  1.
         11   -1    0    0    0    0 -0.00000000000E+00 -0.00000000000E+00 -0.45593999997E+02  0.45594000000E+02  0.51100000000E-03 0. -1.
    9900012    2    1    2    0    0  0.34088456381E+01 -0.21835173823E+02 -0.22985344210E+02  0.59301935757E+02  0.49999984916E+02 0.  0.
        -12    1    1    2    0    0 -0.34088456381E+01  0.21835173823E+02  0.22985344210E+02  0.31886064243E+02  0.00000000000E+00 0.  1.
         11    1    3    3    0    0  0.14668941914E+02 -0.48113769053E+01 -0.26634796604E+01  0.15665928915E+02  0.51100000000E-03 0.  1.
        -11    1    3    3    0    0 -0.90117227799E+00 -0.13319718328E+02 -0.27452127146E+02  0.30526157519E+02  0.51100000000E-03 0. -1.
         12    1    3    3    0    0 -0.10358923998E+02 -0.37040785901E+01  0.71302625958E+01  0.13109849323E+02  0.00000000000E+00 0. -1.
</event>
<event>
 7    1  0.1139627E-011  0.5930190E+02  0.7816164E-02  0.1266605E+00
        -11   -1    0    0    0    0  0.00000000000E+00  0.00000000000E+00  0.45593999997E+02  0.45594000000E+02  0.51100000000E-03 0. -1.
         11   -1    0    0    0    0 -0.00000000000E+00 -0.00000000000E+00 -0.45593999997E+02  0.45594000000E+02  0.51100000000E-03 0.  1.
    9900012    2    1    2    0    0  0.31164348531E+02 -0.89884460573E+00  0.66856947861E+01  0.59301904978E+02  0.49999928783E+02 0.  0.
        -12    1    1    2    0    0 -0.31164348531E+02  0.89884460573E+00 -0.66856947861E+01  0.31886095022E+02  0.00000000000E+00 0.  1.
         11    1    3    3    0    0  0.11854346807E+02  0.11331592616E+02  0.96879820481E+01  0.19046982067E+02  0.51100000000E-03 0. -1.
        -11    1    3    3    0    0 -0.31531616720E+01 -0.77905269030E+01 -0.12829671122E+02  0.15337379154E+02  0.51100000000E-03 0.  1.
        -12    1    3    3    0    0  0.22463163396E+02 -0.44399103183E+01  0.98273838596E+01  0.24917543757E+02  0.00000000000E+00 0.  1.
</event>
<event>
 7    1  0.1139627E-011  0.5930194E+02  0.7816164E-02  0.1266605E+00
        -11   -1    0    0    0    0  0.00000000000E+00  0.00000000000E+00  0.45593999997E+02  0.45594000000E+02  0.51100000000E-03 0.  1.
         11   -1    0    0    0    0 -0.00000000000E+00 -0.00000000000E+00 -0.45593999997E+02  0.45594000000E+02  0.51100000000E-03 0. -1.
    9900012    2    1    2    0    0 -0.11904455850E+02 -0.10995375003E+02 -0.27460994890E+02  0.59301943786E+02  0.49999999559E+02 0.  0.
        -12    1    1    2    0    0  0.11904455850E+02  0.10995375003E+02  0.27460994890E+02  0.31886056214E+02  0.00000000000E+00 0.  1.
         11    1    3    3    0    0 -0.16591017630E+02 -0.15497223626E+02 -0.97153420024E+01  0.24694405776E+02  0.51100000000E-03 0. -1.
        -11    1    3    3    0    0  0.16800971004E+02  0.71014147095E+00 -0.12088317254E+02  0.20710005840E+02  0.51100000000E-03 0.  1.
         12    1    3    3    0    0 -0.12114409224E+02  0.37917071522E+01 -0.56573356331E+01  0.13897532170E+02  0.00000000000E+00 0. -1.
</event>
<event>
 7    1  0.1139627E-011  0.5930194E+02  0.7816164E-02  0.1266605E+00
        -11   -1    0    0    0    0  0.00000000000E+00  0.00000000000E+00  0.45593999997E+02  0.45594000000E+02  0.51100000000E-03 0.  1.
         11   -1    0    0    0    0 -0.00000000000E+00 -0.00000000000E+00 -0.45593999997E+02  0.45594000000E+02  0.51100000000E-03 0. -1.
    9900012    2    1    2    0    0 -0.17030355703E+02  0.42899928118E+01 -0.26613603617E+02  0.59301937980E+02  0.49999988969E+02 0.  0.
        -12    1    1    2    0    0  0.17030355703E+02 -0.42899928117E+01  0.26613603617E+02  0.31886062020E+02  0.00000000000E+00 0.  1.
         11    1    3    3    0    0 -0.51459409192E+01 -0.21389695707E+02 -0.14984147645E+02  0.26618122986E+02  0.51100000000E-03 0. -1.
        -11    1    3    3    0    0 -0.48262080366E+01  0.36271788081E+01  0.12832205646E+01  0.61721443111E+01  0.51100000000E-03 0.  1.
         12    1    3    3    0    0 -0.70582067468E+01  0.22052509711E+02 -0.12912676537E+02  0.26511670682E+02  0.00000000000E+00 0. -1.
</event>
<event>
 7    1  0.1139627E-011  0.5930194E+02  0.7816164E-02  0.1266605E+00
        -11   -1    0    0    0    0  0.00000000000E+00  0.00000000000E+00  0.45593999997E+02  0.45594000000E+02  0.51100000000E-03 0.  1.
         11   -1    0    0    0    0 -0.00000000000E+00 -0.00000000000E+00 -0.45593999997E+02  0.45594000000E+02  0.51100000000E-03 0. -1.
    9900012    2    1    2    0    0  0.31589875089E+02 -0.24665335312E+01 -0.35660388302E+01  0.59301943035E+02  0.49999998190E+02 0.  0.
        -12    1    1    2    0    0 -0.31589875089E+02  0.24665335312E+01  0.35660388302E+01  0.31886056965E+02  0.00000000000E+00 0.  1.
         11    1    3    3    0    0  0.35450018116E+02 -0.52893153205E+01 -0.13863562980E+01  0.35869243441E+02  0.51100000000E-03 0. -1.
        -11    1    3    3    0    0 -0.52897605875E+01 -0.52844729796E+01  0.75918003230E+01  0.10655639547E+02  0.51100000000E-03 0.  1.
         12    1    3    3    0    0  0.14296175604E+01  0.81072547689E+01 -0.97714828552E+01  0.12777060047E+02  0.00000000000E+00 0. -1.
</event>
<event>
 7    1  0.1139627E-011  0.5930195E+02  0.7816164E-02  0.1266605E+00
        -11   -1    0    0    0    0  0.00000000000E+00  0.00000000000E+00  0.45593999997E+02  0.45594000000E+02  0.51100000000E-03 0.  1.
         11   -1    0    0    0    0 -0.00000000000E+00 -0.00000000000E+00 -0.45593999997E+02  0.45594000000E+02  0.51100000000E-03 0. -1.
    9900012    2    1    2    0    0  0.21136458031E+01  0.34862160777E+01 -0.31624344232E+02  0.59301947418E+02  0.50000006184E+02 0.  0.
        -12    1    1    2    0    0 -0.21136458031E+01 -0.34862160777E+01  0.31624344232E+02  0.31886052582E+02  0.00000000000E+00 0.  1.
         11    1    3    3    0    0  0.29390682204E+01  0.20803358959E+01 -0.39092591289E+01  0.53149060802E+01  0.51100000000E-03 0. -1.
        -11    1    3    3    0    0  0.22360321605E+01 -0.22307635062E+02 -0.13310744421E+02  0.26073096080E+02  0.51100000000E-03 0.  1.
        -12    1    3    3    0    0 -0.30614545778E+01  0.23713515244E+02 -0.14404340682E+02  0.27913945258E+02  0.00000000000E+00 0.  1.
</event>
<event>
 7    1  0.1139627E-011  0.5930196E+02  0.7816164E-02  0.1266605E+00
        -11   -1    0    0    0    0  0.00000000000E+00  0.00000000000E+00  0.45593999997E+02  0.45594000000E+02  0.51100000000E-03 0. -1.
         11   -1    0    0    0    0 -0.00000000000E+00 -0.00000000000E+00 -0.45593999997E+02  0.45594000000E+02  0.51100000000E-03 0.  1.
    9900012    2    1    2    0    0 -0.30370023063E+02  0.38098776182E+00  0.97075405383E+01  0.59301956097E+02  0.50000022011E+02 0.  0.
        -12    1    1    2    0    0  0.30370023063E+02 -0.38098776182E+00 -0.97075405383E+01  0.31886043903E+02  0.00000000000E+00 0.  1.
         11    1    3    3    0    0 -0.52294173964E+01 -0.74668293429E+01  0.16177648439E+02  0.18569239511E+02  0.51100000000E-03 0. -1.
        -11    1    3    3    0    0 -0.13482944050E+02  0.17900036113E+02 -0.10607081594E+02  0.24793371156E+02  0.51100000000E-03 0.  1.
        -12    1    3    3    0    0 -0.11657661617E+02 -0.10052219008E+02  0.41369736928E+01  0.15939345429E+02  0.00000000000E+00 0.  1.
</event>
<event>
 7    1  0.1139627E-011  0.5930194E+02  0.7816164E-02  0.1266605E+00
        -11   -1    0    0    0    0  0.00000000000E+00  0.00000000000E+00  0.45593999997E+02  0.45594000000E+02  0.51100000000E-03 0. -1.
         11   -1    0    0    0    0 -0.00000000000E+00 -0.00000000000E+00 -0.45593999997E+02  0.45594000000E+02  0.51100000000E-03 0.  1.
    9900012    2    1    2    0    0 -0.19227631269E+02  0.24774926119E+02 -0.57638609443E+01  0.59301939387E+02  0.49999991536E+02 0.  0.
        -12    1    1    2    0    0  0.19227631269E+02 -0.24774926119E+02  0.57638609443E+01  0.31886060613E+02  0.00000000000E+00 0.  1.
         11    1    3    3    0    0  0.13525414070E+02  0.18325301532E+02 -0.88110909754E+01  0.24421073409E+02  0.51100000000E-03 0. -1.
        -11    1    3    3    0    0 -0.17092197711E+02  0.82430500331E+01  0.12863289871E+01  0.19019614585E+02  0.51100000000E-03 0.  1.
         12    1    3    3    0    0 -0.15660847628E+02 -0.17934254459E+01  0.17609010440E+01  0.15861251393E+02  0.00000000000E+00 0. -1.
</event>
<event>
 7    1  0.1139627E-011  0.5930193E+02  0.7816164E-02  0.1266605E+00
        -11   -1    0    0    0    0  0.00000000000E+00  0.00000000000E+00  0.45593999997E+02  0.45594000000E+02  0.51100000000E-03 0. -1.
         11   -1    0    0    0    0 -0.00000000000E+00 -0.00000000000E+00 -0.45593999997E+02  0.45594000000E+02  0.51100000000E-03 0.  1.
    9900012    2    1    2    0    0 -0.20346604893E+02 -0.17070593794E+02  0.17644598541E+02  0.59301931556E+02  0.49999977254E+02 0.  0.
        -12    1    1    2    0    0  0.20346604893E+02  0.17070593794E+02 -0.17644598541E+02  0.31886068444E+02  0.00000000000E+00 0.  1.
         11    1    3    3    0    0 -0.14215211475E+02 -0.17350224361E+02  0.21863689865E+02  0.31322890311E+02  0.51100000000E-03 0. -1.
        -11    1    3    3    0    0 -0.28725914746E+01  0.55696824904E+01 -0.14595860411E+02  0.15884340912E+02  0.51100000000E-03 0.  1.
        -12    1    3    3    0    0 -0.32588019440E+01 -0.52900519238E+01  0.10376769087E+02  0.12094700333E+02  0.00000000000E+00 0.  1.
</event>
<event>
 7    1  0.1139627E-011  0.5930189E+02  0.7816164E-02  0.1266605E+00
        -11   -1    0    0    0    0  0.00000000000E+00  0.00000000000E+00  0.45593999997E+02  0.45594000000E+02  0.51100000000E-03 0.  1.
         11   -1    0    0    0    0 -0.00000000000E+00 -0.00000000000E+00 -0.45593999997E+02  0.45594000000E+02  0.51100000000E-03 0. -1.
    9900012    2    1    2    0    0 -0.57688779766E+00  0.11901052660E+02 -0.29576272888E+02  0.59301893749E+02  0.49999908303E+02 0.  0.
        -12    1    1    2    0    0  0.57688779766E+00 -0.11901052660E+02  0.29576272888E+02  0.31886106251E+02  0.00000000000E+00 0.  1.
         11    1    3    3    0    0  0.57030678364E+01 -0.49573583669E+01  0.99194601416E+00  0.76213084100E+01  0.51100000000E-03 0. -1.
        -11    1    3    3    0    0 -0.11367583244E+02  0.26206636283E+02 -0.29369263440E+02  0.40970274216E+02  0.51100000000E-03 0.  1.
        -12    1    3    3    0    0  0.50876276099E+01 -0.93482252563E+01 -0.11989554617E+01  0.10710311122E+02  0.00000000000E+00 0.  1.
</event>
<event>
 7    1  0.1139627E-011  0.5930194E+02  0.7816164E-02  0.1266605E+00
        -11   -1    0    0    0    0  0.00000000000E+00  0.00000000000E+00  0.45593999997E+02  0.45594000000E+02  0.51100000000E-03 0. -1.
         11   -1    0    0    0    0 -0.00000000000E+00 -0.00000000000E+00 -0.45593999997E+02  0.45594000000E+02  0.51100000000E-03 0.  1.
    9900012    2    1    2    0    0  0.64356527916E+01  0.28529842096E+02  0.12702416765E+02  0.59301938648E+02  0.49999990189E+02 0.  0.
        -12    1    1    2    0    0 -0.64356527916E+01 -0.28529842096E+02 -0.12702416765E+02  0.31886061352E+02  0.00000000000E+00 0.  1.
         11    1    3    3    0    0  0.10660171137E+02 -0.75303078416E+01  0.19167460732E+01  0.13191614784E+02  0.51100000000E-03 0. -1.
        -11    1    3    3    0    0  0.93916321196E+00  0.28682267924E+02  0.18590867901E+02  0.34193199475E+02  0.51100000000E-03 0.  1.
        -12    1    3    3    0    0 -0.51636815569E+01  0.73778820133E+01 -0.78051972089E+01  0.11917124389E+02  0.00000000000E+00 0.  1.
</event>
<event>
 7    1  0.1139627E-011  0.5930194E+02  0.7816164E-02  0.1266605E+00
        -11   -1    0    0    0    0  0.00000000000E+00  0.00000000000E+00  0.45593999997E+02  0.45594000000E+02  0.51100000000E-03 0.  1.
         11   -1    0    0    0    0 -0.00000000000E+00 -0.00000000000E+00 -0.45593999997E+02  0.45594000000E+02  0.51100000000E-03 0. -1.
    9900012    2    1    2    0    0  0.14661510121E+02 -0.21861755357E+02 -0.17995135095E+02  0.59301935436E+02  0.49999984330E+02 0.  0.
        -12    1    1    2    0    0 -0.14661510121E+02  0.21861755357E+02  0.17995135095E+02  0.31886064564E+02  0.00000000000E+00 0.  1.
         11    1    3    3    0    0  0.69259943421E+01 -0.24232770354E+02 -0.31784393718E+02  0.40564075744E+02  0.51100000000E-03 0. -1.
        -11    1    3    3    0    0  0.42293991166E+00 -0.31407239537E+01  0.17769124079E+01  0.36332414025E+01  0.51100000000E-03 0.  1.
         12    1    3    3    0    0  0.73125758669E+01  0.55117389507E+01  0.12012346215E+02  0.15104618289E+02  0.00000000000E+00 0. -1.
</event>
<event>
 7    1  0.1139627E-011  0.5930196E+02  0.7816164E-02  0.1266605E+00
        -11   -1    0    0    0    0  0.00000000000E+00  0.00000000000E+00  0.45593999997E+02  0.45594000000E+02  0.51100000000E-03 0.  1.
         11   -1    0    0    0    0 -0.00000000000E+00 -0.00000000000E+00 -0.45593999997E+02  0.45594000000E+02  0.51100000000E-03 0. -1.
    9900012    2    1    2    0    0 -0.25240799102E+02  0.17058470135E+02  0.94143538779E+01  0.59301962278E+02  0.50000033285E+02 0.  0.
        -12    1    1    2    0    0  0.25240799102E+02 -0.17058470135E+02 -0.94143538779E+01  0.31886037722E+02  0.00000000000E+00 0.  1.
         11    1    3    3    0    0 -0.15135116738E+01  0.10781087057E+01 -0.12084852836E+00  0.18621601961E+01  0.51100000000E-03 0. -1.
        -11    1    3    3    0    0 -0.13515302904E+02  0.33044641649E+02  0.77718256388E+00  0.35710163362E+02  0.51100000000E-03 0.  1.
        -12    1    3    3    0    0 -0.10211984524E+02 -0.17064280220E+02  0.87580198424E+01  0.21729638721E+02  0.00000000000E+00 0.  1.
</event>
<event>
 7    1  0.1139627E-011  0.5930198E+02  0.7816164E-02  0.1266605E+00
        -11   -1    0    0    0    0  0.00000000000E+00  0.00000000000E+00  0.45593999997E+02  0.45594000000E+02  0.51100000000E-03 0. -1.
         11   -1    0    0    0    0 -0.00000000000E+00 -0.00000000000E+00 -0.45593999997E+02  0.45594000000E+02  0.51100000000E-03 0.  1.
    9900012    2    1    2    0    0  0.24728930942E+02  0.18351244163E+02  0.82722360813E+01  0.59301983039E+02  0.50000071147E+02 0.  0.
        -12    1    1    2    0    0 -0.24728930942E+02 -0.18351244163E+02 -0.82722360813E+01  0.31886016961E+02  0.00000000000E+00 0.  1.
         11    1    3    3    0    0 -0.26968339234E+01  0.10511116302E+02  0.21848679027E+02  0.24395107186E+02  0.51100000000E-03 0. -1.
        -11    1    3    3    0    0  0.78233472407E+01 -0.42336718894E+00 -0.10961713383E+02  0.13473795396E+02  0.51100000000E-03 0.  1.
         12    1    3    3    0    0  0.19602417625E+02  0.82634950499E+01 -0.26147295629E+01  0.21433080457E+02  0.00000000000E+00 0. -1.
</event>
<event>
 7    1  0.1139627E-011  0.5930207E+02  0.7816164E-02  0.1266604E+00
        -11   -1    0    0    0    0  0.00000000000E+00  0.00000000000E+00  0.45593999997E+02  0.45594000000E+02  0.51100000000E-03 0.  1.
         11   -1    0    0    0    0 -0.00000000000E+00 -0.00000000000E+00 -0.45593999997E+02  0.45594000000E+02  0.51100000000E-03 0. -1.
    9900012    2    1    2    0    0  0.12033141329E+02  0.25527207835E+02 -0.14841753167E+02  0.59302071016E+02  0.50000231596E+02 0.  0.
        -12    1    1    2    0    0 -0.12033141329E+02 -0.25527207835E+02  0.14841753167E+02  0.31885928984E+02  0.00000000000E+00 0.  1.
         11    1    3    3    0    0  0.23888958576E+02  0.24346637244E+02 -0.15213234448E+02  0.37348140377E+02  0.51100000000E-03 0. -1.
        -11    1    3    3    0    0  0.61681536536E+00 -0.11775810782E+00  0.75020966299E+01  0.75283319714E+01  0.51100000000E-03 0.  1.
         12    1    3    3    0    0 -0.12472632612E+02  0.12983286982E+01 -0.71306153489E+01  0.14425598668E+02  0.00000000000E+00 0. -1.
</event>
<event>
 7    1  0.1139627E-011  0.5930190E+02  0.7816164E-02  0.1266605E+00
        -11   -1    0    0    0    0  0.00000000000E+00  0.00000000000E+00  0.45593999997E+02  0.45594000000E+02  0.51100000000E-03 0. -1.
         11   -1    0    0    0    0 -0.00000000000E+00 -0.00000000000E+00 -0.45593999997E+02  0.45594000000E+02  0.51100000000E-03 0.  1.
    9900012    2    1    2    0    0  0.30201301625E+02 -0.87512207631E+01  0.52934630033E+01  0.59301902163E+02  0.49999923650E+02 0.  0.
        -12    1    1    2    0    0 -0.30201301625E+02  0.87512207631E+01 -0.52934630033E+01  0.31886097837E+02  0.00000000000E+00 0.  1.
         11    1    3    3    0    0  0.33732786649E+02  0.55693048247E+01  0.41216329173E+01  0.34436984617E+02  0.51100000000E-03 0. -1.
        -11    1    3    3    0    0 -0.78000623920E+01 -0.50661470852E+01  0.82694922460E+01  0.12445534214E+02  0.51100000000E-03 0.  1.
         12    1    3    3    0    0  0.42685773674E+01 -0.92543785025E+01 -0.70976621600E+01  0.12419383332E+02  0.00000000000E+00 0. -1.
</event>
<event>
 7    1  0.1139627E-011  0.5930193E+02  0.7816164E-02  0.1266605E+00
        -11   -1    0    0    0    0  0.00000000000E+00  0.00000000000E+00  0.45593999997E+02  0.45594000000E+02  0.51100000000E-03 0. -1.
         11   -1    0    0    0    0 -0.00000000000E+00 -0.00000000000E+00 -0.45593999997E+02  0.45594000000E+02  0.51100000000E-03 0.  1.
    9900012    2    1    2    0    0 -0.17923864479E+02 -0.15932195101E+02  0.21014789798E+02  0.59301934880E+02  0.49999983317E+02 0.  0.
        -12    1    1    2    0    0  0.17923864479E+02  0.15932195101E+02 -0.21014789798E+02  0.31886065120E+02  0.00000000000E+00 0.  1.
         11    1    3    3    0    0 -0.41137584127E+00 -0.28923409854E+02  0.94919762783E+01  0.30443890710E+02  0.51100000000E-03 0. -1.
        -11    1    3    3    0    0 -0.17634748865E+01  0.93403594746E+01  0.77317817897E+01  0.12252861245E+02  0.51100000000E-03 0.  1.
         12    1    3    3    0    0 -0.15749013751E+02  0.36508552782E+01  0.37910317301E+01  0.16605182925E+02  0.00000000000E+00 0. -1.
</event>
<event>
 7    1  0.1139627E-011  0.5930194E+02  0.7816164E-02  0.1266605E+00
        -11   -1    0    0    0    0  0.00000000000E+00  0.00000000000E+00  0.45593999997E+02  0.45594000000E+02  0.51100000000E-03 0. -1.
         11   -1    0    0    0    0 -0.00000000000E+00 -0.00000000000E+00 -0.45593999997E+02  0.45594000000E+02  0.51100000000E-03 0.  1.
    9900012    2    1    2    0    0 -0.11954284423E+02  0.29012766021E+02  0.56634906932E+01  0.59301942936E+02  0.49999998008E+02 0.  0.
        -12    1    1    2    0    0  0.11954284423E+02 -0.29012766021E+02 -0.56634906932E+01  0.31886057064E+02  0.00000000000E+00 0.  1.
         11    1    3    3    0    0 -0.11995969405E+02 -0.97391028203E+00 -0.14085589332E+02  0.18527158721E+02  0.51100000000E-03 0. -1.
        -11    1    3    3    0    0 -0.78622862181E+01  0.54404941505E+01  0.29806073237E+01  0.10014915949E+02  0.51100000000E-03 0.  1.
         12    1    3    3    0    0  0.79039711999E+01  0.24546182153E+02  0.16768472701E+02  0.30759868266E+02  0.00000000000E+00 0. -1.
</event>
<event>
 7    1  0.1139627E-011  0.5930193E+02  0.7816164E-02  0.1266605E+00
        -11   -1    0    0    0    0  0.00000000000E+00  0.00000000000E+00  0.45593999997E+02  0.45594000000E+02  0.51100000000E-03 0. -1.
         11   -1    0    0    0    0 -0.00000000000E+00 -0.00000000000E+00 -0.45593999997E+02  0.45594000000E+02  0.51100000000E-03 0.  1.
    9900012    2    1    2    0    0  0.17368850440E+02 -0.26347750862E+02 -0.45651607999E+01  0.59301927269E+02  0.49999969436E+02 0.  0.
        -12    1    1    2    0    0 -0.17368850440E+02  0.26347750862E+02  0.45651607999E+01  0.31886072731E+02  0.00000000000E+00 0.  1.
         11    1    3    3    0    0  0.63573202908E+01 -0.33485895676E+02  0.36344543639E+01  0.34277251775E+02  0.51100000000E-03 0. -1.
        -11    1    3    3    0    0  0.15936663139E+02  0.62211548765E+01 -0.98612853099E+01  0.19746517369E+02  0.51100000000E-03 0.  1.
        -12    1    3    3    0    0 -0.49251329897E+01  0.91698993743E+00  0.16616701461E+01  0.52781581244E+01  0.00000000000E+00 0.  1.
</event>
<event>
 7    1  0.1139627E-011  0.5930192E+02  0.7816164E-02  0.1266605E+00
        -11   -1    0    0    0    0  0.00000000000E+00  0.00000000000E+00  0.45593999997E+02  0.45594000000E+02  0.51100000000E-03 0.  1.
         11   -1    0    0    0    0 -0.00000000000E+00 -0.00000000000E+00 -0.45593999997E+02  0.45594000000E+02  0.51100000000E-03 0. -1.
    9900012    2    1    2    0    0  0.13437022651E+02 -0.28098373756E+02  0.68300532119E+01  0.59301924476E+02  0.49999964342E+02 0.  0.
        -12    1    1    2    0    0 -0.13437022651E+02  0.28098373756E+02 -0.68300532119E+01  0.31886075524E+02  0.00000000000E+00 0.  1.
         11    1    3    3    0    0  0.28590997223E+02 -0.18778698525E+02 -0.12958685810E+01  0.34231037322E+02  0.51100000000E-03 0. -1.
        -11    1    3    3    0    0 -0.71897107250E+01 -0.12568753189E+02  0.78367592860E+01  0.16464516191E+02  0.51100000000E-03 0.  1.
         12    1    3    3    0    0 -0.79642638468E+01  0.32490779581E+01  0.28916250683E+00  0.86063709631E+01  0.00000000000E+00 0. -1.
</event>
<event>
 7    1  0.1139627E-011  0.5930196E+02  0.7816164E-02  0.1266605E+00
        -11   -1    0    0    0    0  0.00000000000E+00  0.00000000000E+00  0.45593999997E+02  0.45594000000E+02  0.51100000000E-03 0.  1.
         11   -1    0    0    0    0 -0.00000000000E+00 -0.00000000000E+00 -0.45593999997E+02  0.45594000000E+02  0.51100000000E-03 0. -1.
    9900012    2    1    2    0    0 -0.88940209412E+01  0.16648745089E+01 -0.30575222300E+02  0.59301958629E+02  0.50000026629E+02 0.  0.
        -12    1    1    2    0    0  0.88940209412E+01 -0.16648745089E+01  0.30575222300E+02  0.31886041371E+02  0.00000000000E+00 0.  1.
         11    1    3    3    0    0  0.14578210091E+02 -0.11948374086E+02 -0.24855863997E+02  0.31194580107E+02  0.51100000000E-03 0. -1.
        -11    1    3    3    0    0 -0.12555554554E+02  0.98968763632E+01 -0.33785702620E+01  0.16340283020E+02  0.51100000000E-03 0.  1.
         12    1    3    3    0    0 -0.10916676478E+02  0.37163722315E+01 -0.23407880406E+01  0.11767095501E+02  0.00000000000E+00 0. -1.
</event>
<event>
 7    1  0.1139627E-011  0.5930194E+02  0.7816164E-02  0.1266605E+00
        -11   -1    0    0    0    0  0.00000000000E+00  0.00000000000E+00  0.45593999997E+02  0.45594000000E+02  0.51100000000E-03 0.  1.
         11   -1    0    0    0    0 -0.00000000000E+00 -0.00000000000E+00 -0.45593999997E+02  0.45594000000E+02  0.51100000000E-03 0. -1.
    9900012    2    1    2    0    0 -0.95354742328E+00 -0.29182146978E+02  0.12814587714E+02  0.59301943279E+02  0.49999998634E+02 0.  0.
        -12    1    1    2    0    0  0.95354742328E+00  0.29182146978E+02 -0.12814587714E+02  0.31886056721E+02  0.00000000000E+00 0.  1.
         11    1    3    3    0    0 -0.59279537303E+01 -0.17147956196E+02  0.76526973871E+01  0.19691541704E+02  0.51100000000E-03 0. -1.
        -11    1    3    3    0    0  0.84075151312E+01  0.35706046793E+01 -0.12700797266E+02  0.15644352972E+02  0.51100000000E-03 0.  1.
        -12    1    3    3    0    0 -0.34331088241E+01 -0.15604795461E+02  0.17862687593E+02  0.23966048603E+02  0.00000000000E+00 0.  1.
</event>
<event>
 7    1  0.1139627E-011  0.5930191E+02  0.7816164E-02  0.1266605E+00
        -11   -1    0    0    0    0  0.00000000000E+00  0.00000000000E+00  0.45593999997E+02  0.45594000000E+02  0.51100000000E-03 0.  1.
         11   -1    0    0    0    0 -0.00000000000E+00 -0.00000000000E+00 -0.45593999997E+02  0.45594000000E+02  0.51100000000E-03 0. -1.
    9900012    2    1    2    0    0  0.16002775275E+02 -0.16874727479E+02 -0.21814609893E+02  0.59301914496E+02  0.49999946141E+02 0.  0.
        -12    1    1    2    0    0 -0.16002775275E+02  0.16874727479E+02  0.21814609893E+02  0.31886085504E+02  0.00000000000E+00 0.  1.
         11    1    3    3    0    0  0.28930234236E+01 -0.11491600560E+02 -0.31124683970E+00  0.11854254208E+02  0.51100000000E-03 0. -1.
        -11    1    3    3    0    0  0.34759502754E+01  0.94010589152E+01 -0.27133214653E+02  0.28925308585E+02  0.51100000000E-03 0.  1.
        -12    1    3    3    0    0  0.96338015760E+01 -0.14784185834E+02  0.56298516002E+01  0.18522351704E+02  0.00000000000E+00 0.  1.
</event>
<event>
 7    1  0.1139627E-011  0.5930195E+02  0.7816164E-02  0.1266605E+00
        -11   -1    0    0    0    0  0.00000000000E+00  0.00000000000E+00  0.45593999997E+02  0.45594000000E+02  0.51100000000E-03 0.  1.
         11   -1    0    0    0    0 -0.00000000000E+00 -0.00000000000E+00 -0.45593999997E+02  0.45594000000E+02  0.51100000000E-03 0. -1.
    9900012    2    1    2    0    0 -0.14136554652E+02  0.26530518692E+02 -0.10630587214E+02  0.59301953146E+02  0.50000016629E+02 0.  0.
        -12    1    1    2    0    0  0.14136554652E+02 -0.26530518692E+02  0.10630587214E+02  0.31886046854E+02  0.00000000000E+00 0.  1.
         11    1    3    3    0    0 -0.19389682519E+02  0.32761625448E+02  0.25361970680E+01  0.38153848901E+02  0.51100000000E-03 0. -1.
        -11    1    3    3    0    0  0.16896937931E+01  0.21703223309E+01 -0.11558890976E+02  0.11881638144E+02  0.51100000000E-03 0.  1.
         12    1    3    3    0    0  0.35634340736E+01 -0.84014290871E+01 -0.16078933057E+01  0.92664661002E+01  0.00000000000E+00 0. -1.
</event>
<event>
 7    1  0.1139627E-011  0.5930194E+02  0.7816164E-02  0.1266605E+00
        -11   -1    0    0    0    0  0.00000000000E+00  0.00000000000E+00  0.45593999997E+02  0.45594000000E+02  0.51100000000E-03 0.  1.
         11   -1    0    0    0    0 -0.00000000000E+00 -0.00000000000E+00 -0.45593999997E+02  0.45594000000E+02  0.51100000000E-03 0. -1.
    9900012    2    1    2    0    0 -0.63110370749E+01 -0.23380028710E+02 -0.20742854374E+02  0.59301938170E+02  0.49999989317E+02 0.  0.
        -12    1    1    2    0    0  0.63110370749E+01  0.23380028710E+02  0.20742854374E+02  0.31886061830E+02  0.00000000000E+00 0.  1.
         11    1    3    3    0    0 -0.26691422037E+02 -0.15504943597E+02 -0.17524704193E+02  0.35495782054E+02  0.51100000000E-03 0.  1.
        -11    1    3    3    0    0  0.16649590309E+02 -0.25365380852E+01 -0.80644663431E+00  0.16860997579E+02  0.51100000000E-03 0. -1.
        -12    1    3    3    0    0  0.37307946529E+01 -0.53385470276E+01 -0.24117035462E+01  0.69451585370E+01  0.00000000000E+00 0.  1.
</event>
<event>
 7    1  0.1139627E-011  0.5930194E+02  0.7816164E-02  0.1266605E+00
        -11   -1    0    0    0    0  0.00000000000E+00  0.00000000000E+00  0.45593999997E+02  0.45594000000E+02  0.51100000000E-03 0. -1.
         11   -1    0    0    0    0 -0.00000000000E+00 -0.00000000000E+00 -0.45593999997E+02  0.45594000000E+02  0.51100000000E-03 0.  1.
    9900012    2    1    2    0    0  0.13435988743E+02 -0.19014959749E+02  0.21785926800E+02  0.59301935735E+02  0.49999984877E+02 0.  0.
        -12    1    1    2    0    0 -0.13435988743E+02  0.19014959749E+02 -0.21785926800E+02  0.31886064265E+02  0.00000000000E+00 0.  1.
         11    1    3    3    0    0 -0.52807826538E+01  0.21046168490E+01  0.12586416155E+02  0.13810646234E+02  0.51100000000E-03 0. -1.
        -11    1    3    3    0    0  0.20092779813E+02 -0.10419365487E+02 -0.89813634075E+01  0.24350520870E+02  0.51100000000E-03 0.  1.
        -12    1    3    3    0    0 -0.13760084159E+01 -0.10700211112E+02  0.18180874052E+02  0.21140768631E+02  0.00000000000E+00 0.  1.
</event>
<event>
 7    1  0.1139627E-011  0.5930193E+02  0.7816164E-02  0.1266605E+00
        -11   -1    0    0    0    0  0.00000000000E+00  0.00000000000E+00  0.45593999997E+02  0.45594000000E+02  0.51100000000E-03 0. -1.
         11   -1    0    0    0    0 -0.00000000000E+00 -0.00000000000E+00 -0.45593999997E+02  0.45594000000E+02  0.51100000000E-03 0.  1.
    9900012    2    1    2    0    0 -0.22927684773E+01  0.28981671785E+02  0.13096840115E+02  0.59301932388E+02  0.49999978772E+02 0.  0.
        -12    1    1    2    0    0  0.22927684773E+01 -0.28981671785E+02 -0.13096840115E+02  0.31886067612E+02  0.00000000000E+00 0.  1.
         11    1    3    3    0    0 -0.15272716204E+02  0.10554246003E+02 -0.12074562269E+02  0.22145948234E+02  0.51100000000E-03 0. -1.
        -11    1    3    3    0    0  0.19515040855E-01  0.10106554994E+02  0.37657971999E+01  0.10785363392E+02  0.51100000000E-03 0.  1.
         12    1    3    3    0    0  0.12960432686E+02  0.83208707881E+01  0.21405605184E+02  0.26370620762E+02  0.00000000000E+00 0. -1.
</event>
<event>
 7    1  0.1139627E-011  0.5930196E+02  0.7816164E-02  0.1266605E+00
        -11   -1    0    0    0    0  0.00000000000E+00  0.00000000000E+00  0.45593999997E+02  0.45594000000E+02  0.51100000000E-03 0.  1.
         11   -1    0    0    0    0 -0.00000000000E+00 -0.00000000000E+00 -0.45593999997E+02  0.45594000000E+02  0.51100000000E-03 0. -1.
    9900012    2    1    2    0    0 -0.19051945212E+02  0.25802517284E+01 -0.25437874868E+02  0.59301956138E+02  0.50000022087E+02 0.  0.
        -12    1    1    2    0    0  0.19051945212E+02 -0.25802517284E+01  0.25437874868E+02  0.31886043862E+02  0.00000000000E+00 0.  1.
         11    1    3    3    0    0 -0.16262524064E+02 -0.13888223497E+02 -0.19863328739E+02  0.29187399160E+02  0.51100000000E-03 0. -1.
        -11    1    3    3    0    0  0.94520046058E+01  0.10556070446E+02  0.23740613182E+01  0.14366877940E+02  0.51100000000E-03 0.  1.
        -12    1    3    3    0    0 -0.12241425754E+02  0.59124047796E+01 -0.79486074468E+01  0.15747679039E+02  0.00000000000E+00 0.  1.
</event>
<event>
 7    1  0.1139627E-011  0.5930191E+02  0.7816164E-02  0.1266605E+00
        -11   -1    0    0    0    0  0.00000000000E+00  0.00000000000E+00  0.45593999997E+02  0.45594000000E+02  0.51100000000E-03 0. -1.
         11   -1    0    0    0    0 -0.00000000000E+00 -0.00000000000E+00 -0.45593999997E+02  0.45594000000E+02  0.51100000000E-03 0.  1.
    9900012    2    1    2    0    0  0.12797535879E+00 -0.29643253542E+02  0.11746660091E+02  0.59301907710E+02  0.49999933765E+02 0.  0.
        -12    1    1    2    0    0 -0.12797535879E+00  0.29643253542E+02 -0.11746660091E+02  0.31886092290E+02  0.00000000000E+00 0.  1.
         11    1    3    3    0    0  0.99463655236E+00 -0.80541910373E+01  0.70628656282E+01  0.10758409096E+02  0.51100000000E-03 0. -1.
        -11    1    3    3    0    0  0.27888846072E-01 -0.95400723101E+01 -0.19388913395E+02  0.21608880590E+02  0.51100000000E-03 0.  1.
        -12    1    3    3    0    0 -0.89455003964E+00 -0.12048990195E+02  0.24072707858E+02  0.26934618024E+02  0.00000000000E+00 0.  1.
</event>
<event>
 7    1  0.1139627E-011  0.5930195E+02  0.7816164E-02  0.1266605E+00
        -11   -1    0    0    0    0  0.00000000000E+00  0.00000000000E+00  0.45593999997E+02  0.45594000000E+02  0.51100000000E-03 0. -1.
         11   -1    0    0    0    0 -0.00000000000E+00 -0.00000000000E+00 -0.45593999997E+02  0.45594000000E+02  0.51100000000E-03 0.  1.
    9900012    2    1    2    0    0 -0.70332378995E+01  0.30505148774E+02 -0.60572230317E+01  0.59301945244E+02  0.50000002217E+02 0.  0.
        -12    1    1    2    0    0  0.70332378995E+01 -0.30505148774E+02  0.60572230317E+01  0.31886054756E+02  0.00000000000E+00 0.  1.
         11    1    3    3    0    0 -0.21182199000E+02  0.34936441563E+02 -0.37536033086E+01  0.41028405302E+02  0.51100000000E-03 0. -1.
        -11    1    3    3    0    0  0.42118586730E+01 -0.26604902594E+01  0.39864355672E+01  0.63804099159E+01  0.51100000000E-03 0.  1.
         12    1    3    3    0    0  0.99371024276E+01 -0.17708025294E+01 -0.62900552903E+01  0.11893130026E+02  0.00000000000E+00 0. -1.
</event>
<event>
 7    1  0.1139627E-011  0.5930192E+02  0.7816164E-02  0.1266605E+00
        -11   -1    0    0    0    0  0.00000000000E+00  0.00000000000E+00  0.45593999997E+02  0.45594000000E+02  0.51100000000E-03 0.  1.
         11   -1    0    0    0    0 -0.00000000000E+00 -0.00000000000E+00 -0.45593999997E+02  0.45594000000E+02  0.51100000000E-03 0. -1.
    9900012    2    1    2    0    0 -0.11104013120E+02  0.20041281929E+02 -0.22175886860E+02  0.59301920800E+02  0.49999957638E+02 0.  0.
        -12    1    1    2    0    0  0.11104013120E+02 -0.20041281929E+02  0.22175886860E+02  0.31886079200E+02  0.00000000000E+00 0.  1.
         11    1    3    3    0    0 -0.23363636935E+02  0.47551477678E+01 -0.35473319916E+01  0.24105072612E+02  0.51100000000E-03 0. -1.
        -11    1    3    3    0    0  0.84099556911E+01 -0.42451721026E+01 -0.29965506181E+01  0.98857552455E+01  0.51100000000E-03 0.  1.
         12    1    3    3    0    0  0.38496681241E+01  0.19531306264E+02 -0.15632004250E+02  0.25311092942E+02  0.00000000000E+00 0. -1.
</event>
<event>
 7    1  0.1139627E-011  0.5930192E+02  0.7816164E-02  0.1266605E+00
        -11   -1    0    0    0    0  0.00000000000E+00  0.00000000000E+00  0.45593999997E+02  0.45594000000E+02  0.51100000000E-03 0.  1.
         11   -1    0    0    0    0 -0.00000000000E+00 -0.00000000000E+00 -0.45593999997E+02  0.45594000000E+02  0.51100000000E-03 0. -1.
    9900012    2    1    2    0    0  0.14099981232E+01 -0.42474388785E+01 -0.31570445056E+02  0.59301924155E+02  0.49999963757E+02 0.  0.
        -12    1    1    2    0    0 -0.14099981232E+01  0.42474388785E+01  0.31570445056E+02  0.31886075845E+02  0.00000000000E+00 0.  1.
         11    1    3    3    0    0  0.19129821039E+02 -0.59972727747E+01 -0.32851951681E+02  0.38485946308E+02  0.51100000000E-03 0. -1.
        -11    1    3    3    0    0 -0.42175619000E+01  0.52395204003E+01  0.13966473422E+01  0.68695725097E+01  0.51100000000E-03 0.  1.
         12    1    3    3    0    0 -0.13502261016E+02 -0.34896865041E+01 -0.11514071783E+00  0.13946405337E+02  0.00000000000E+00 0. -1.
</event>
<event>
 7    1  0.1139627E-011  0.5930195E+02  0.7816164E-02  0.1266605E+00
        -11   -1    0    0    0    0  0.00000000000E+00  0.00000000000E+00  0.45593999997E+02  0.45594000000E+02  0.51100000000E-03 0.  1.
         11   -1    0    0    0    0 -0.00000000000E+00 -0.00000000000E+00 -0.45593999997E+02  0.45594000000E+02  0.51100000000E-03 0. -1.
    9900012    2    1    2    0    0  0.24886325884E+02  0.18250336108E+02  0.80197489852E+01  0.59301947283E+02  0.50000005937E+02 0.  0.
        -12    1    1    2    0    0 -0.24886325884E+02 -0.18250336108E+02 -0.80197489852E+01  0.31886052717E+02  0.00000000000E+00 0.  1.
         11    1    3    3    0    0 -0.55460210453E+01  0.70432114502E+00 -0.35415043444E+01  0.66179053327E+01  0.51100000000E-03 0. -1.
        -11    1    3    3    0    0  0.36788937708E+02  0.17024708234E+02  0.12461021062E+01  0.40556373098E+02  0.51100000000E-03 0.  1.
        -12    1    3    3    0    0 -0.63565907788E+01  0.52130672918E+00  0.10315151223E+02  0.12127668852E+02  0.00000000000E+00 0.  1.
</event>
<event>
 7    1  0.1139627E-011  0.5930192E+02  0.7816164E-02  0.1266605E+00
        -11   -1    0    0    0    0  0.00000000000E+00  0.00000000000E+00  0.45593999997E+02  0.45594000000E+02  0.51100000000E-03 0. -1.
         11   -1    0    0    0    0 -0.00000000000E+00 -0.00000000000E+00 -0.45593999997E+02  0.45594000000E+02  0.51100000000E-03 0.  1.
    9900012    2    1    2    0    0  0.27752167331E+02  0.15682981539E+02 -0.76363864527E+00  0.59301923956E+02  0.49999963394E+02 0.  0.
        -12    1    1    2    0    0 -0.27752167331E+02 -0.15682981539E+02  0.76363864527E+00  0.31886076044E+02  0.00000000000E+00 0.  1.
         11    1    3    3    0    0  0.21154815068E+02  0.11154107127E+02  0.19091851774E+02  0.30601292633E+02  0.51100000000E-03 0. -1.
        -11    1    3    3    0    0 -0.67316610092E+01  0.22226250225E+01 -0.54697657644E+01  0.89539745204E+01  0.51100000000E-03 0.  1.
         12    1    3    3    0    0  0.13329013272E+02  0.23062493891E+01 -0.14385724655E+02  0.19746656803E+02  0.00000000000E+00 0. -1.
</event>
<event>
 7    1  0.1139627E-011  0.5930193E+02  0.7816164E-02  0.1266605E+00
        -11   -1    0    0    0    0  0.00000000000E+00  0.00000000000E+00  0.45593999997E+02  0.45594000000E+02  0.51100000000E-03 0.  1.
         11   -1    0    0    0    0 -0.00000000000E+00 -0.00000000000E+00 -0.45593999997E+02  0.45594000000E+02  0.51100000000E-03 0. -1.
    9900012    2    1    2    0    0 -0.27022359984E+02  0.23170729495E+01 -0.16767365280E+02  0.59301932438E+02  0.49999978863E+02 0.  0.
        -12    1    1    2    0    0  0.27022359984E+02 -0.23170729495E+01  0.16767365280E+02  0.31886067562E+02  0.00000000000E+00 0.  1.
         11    1    3    3    0    0 -0.20802012632E+02 -0.30584508950E+01 -0.70287118287E+01  0.22169362680E+02  0.51100000000E-03 0. -1.
        -11    1    3    3    0    0  0.59941084197E+01 -0.51479772729E+01 -0.17528272892E+02  0.19226839485E+02  0.51100000000E-03 0.  1.
        -12    1    3    3    0    0 -0.12214455771E+02  0.10523501117E+02  0.77896194411E+01  0.17905730273E+02  0.00000000000E+00 0.  1.
</event>
<event>
 7    1  0.1139627E-011  0.5930194E+02  0.7816164E-02  0.1266605E+00
        -11   -1    0    0    0    0  0.00000000000E+00  0.00000000000E+00  0.45593999997E+02  0.45594000000E+02  0.51100000000E-03 0.  1.
         11   -1    0    0    0    0 -0.00000000000E+00 -0.00000000000E+00 -0.45593999997E+02  0.45594000000E+02  0.51100000000E-03 0. -1.
    9900012    2    1    2    0    0 -0.14612550716E+02  0.26894271675E+02 -0.89382384040E+01  0.59301943594E+02  0.49999999209E+02 0.  0.
        -12    1    1    2    0    0  0.14612550716E+02 -0.26894271675E+02  0.89382384040E+01  0.31886056406E+02  0.00000000000E+00 0.  1.
         11    1    3    3    0    0 -0.35383978417E+01  0.19651581946E+02  0.56162118832E+01  0.20742390616E+02  0.51100000000E-03 0. -1.
        -11    1    3    3    0    0 -0.89286138747E+01 -0.12485284464E+02 -0.96066228118E+01  0.18107724208E+02  0.51100000000E-03 0.  1.
        -12    1    3    3    0    0 -0.21455389998E+01  0.19727974192E+02 -0.49478274754E+01  0.20451828771E+02  0.00000000000E+00 0.  1.
</event>
<event>
 7    1  0.1139627E-011  0.5930196E+02  0.7816164E-02  0.1266605E+00
        -11   -1    0    0    0    0  0.00000000000E+00  0.00000000000E+00  0.45593999997E+02  0.45594000000E+02  0.51100000000E-03 0.  1.
         11   -1    0    0    0    0 -0.00000000000E+00 -0.00000000000E+00 -0.45593999997E+02  0.45594000000E+02  0.51100000000E-03 0. -1.
    9900012    2    1    2    0    0 -0.39288459214E+01  0.10375966455E+02 -0.29893528247E+02  0.59301960089E+02  0.50000029293E+02 0.  0.
        -12    1    1    2    0    0  0.39288459214E+01 -0.10375966455E+02  0.29893528247E+02  0.31886039911E+02  0.00000000000E+00 0.  1.
         11    1    3    3    0    0 -0.11171982174E+02 -0.67889690537E+01 -0.16530784440E+02  0.21075343911E+02  0.51100000000E-03 0. -1.
        -11    1    3    3    0    0 -0.19963045640E+01  0.21510911141E+02 -0.24666404340E+00  0.21604753492E+02  0.51100000000E-03 0.  1.
         12    1    3    3    0    0  0.92394408167E+01 -0.43459756325E+01 -0.13116079763E+02  0.16621862686E+02  0.00000000000E+00 0. -1.
</event>
<event>
 7    1  0.1139627E-011  0.5930196E+02  0.7816164E-02  0.1266605E+00
        -11   -1    0    0    0    0  0.00000000000E+00  0.00000000000E+00  0.45593999997E+02  0.45594000000E+02  0.51100000000E-03 0. -1.
         11   -1    0    0    0    0 -0.00000000000E+00 -0.00000000000E+00 -0.45593999997E+02  0.45594000000E+02  0.51100000000E-03 0.  1.
    9900012    2    1    2    0    0  0.53695885365E+01 -0.25621727097E+02  0.18204784214E+02  0.59301959971E+02  0.50000029076E+02 0.  0.
        -12    1    1    2    0    0 -0.53695885365E+01  0.25621727097E+02 -0.18204784214E+02  0.31886040029E+02  0.00000000000E+00 0.  1.
         11    1    3    3    0    0 -0.64162379279E+01 -0.19048738078E+02  0.91417796154E+01  0.22081545831E+02  0.51100000000E-03 0. -1.
        -11    1    3    3    0    0 -0.82295315945E+00  0.12578888200E+02  0.11431816385E+00  0.12606297996E+02  0.51100000000E-03 0.  1.
        -12    1    3    3    0    0  0.12608779624E+02 -0.19151877219E+02  0.89486864352E+01  0.24614116144E+02  0.00000000000E+00 0.  1.
</event>
<event>
 7    1  0.1139627E-011  0.5930204E+02  0.7816164E-02  0.1266604E+00
        -11   -1    0    0    0    0  0.00000000000E+00  0.00000000000E+00  0.45593999997E+02  0.45594000000E+02  0.51100000000E-03 0. -1.
         11   -1    0    0    0    0 -0.00000000000E+00 -0.00000000000E+00 -0.45593999997E+02  0.45594000000E+02  0.51100000000E-03 0.  1.
    9900012    2    1    2    0    0  0.78731929499E+01  0.20270394222E+02  0.23320340931E+02  0.59302041487E+02  0.50000177743E+02 0.  0.
        -12    1    1    2    0    0 -0.78731929499E+01 -0.20270394222E+02 -0.23320340931E+02  0.31885958513E+02  0.00000000000E+00 0.  1.
         11    1    3    3    0    0 -0.40575046144E+00 -0.30212150088E+01  0.52125692383E+01  0.60384809258E+01  0.51100000000E-03 0. -1.
        -11    1    3    3    0    0  0.21429418128E+02  0.17522490203E+02 -0.28825889487E+01  0.27831042804E+02  0.51100000000E-03 0.  1.
        -12    1    3    3    0    0 -0.13150474717E+02  0.57691190275E+01  0.20990360641E+02  0.25432517757E+02  0.00000000000E+00 0.  1.
</event>
<event>
 7    1  0.1139627E-011  0.5930194E+02  0.7816164E-02  0.1266605E+00
        -11   -1    0    0    0    0  0.00000000000E+00  0.00000000000E+00  0.45593999997E+02  0.45594000000E+02  0.51100000000E-03 0.  1.
         11   -1    0    0    0    0 -0.00000000000E+00 -0.00000000000E+00 -0.45593999997E+02  0.45594000000E+02  0.51100000000E-03 0. -1.
    9900012    2    1    2    0    0 -0.95620724189E+01 -0.22825341165E+02 -0.20106996928E+02  0.59301941076E+02  0.49999994617E+02 0.  0.
        -12    1    1    2    0    0  0.95620724189E+01  0.22825341165E+02  0.20106996928E+02  0.31886058924E+02  0.00000000000E+00 0.  1.
         11    1    3    3    0    0  0.14054953680E+02 -0.16929827794E+02 -0.20550791549E+02  0.30108069112E+02  0.51100000000E-03 0. -1.
        -11    1    3    3    0    0 -0.20719312442E+02 -0.13599296591E+01  0.58428938991E+01  0.21570320492E+02  0.51100000000E-03 0.  1.
        -12    1    3    3    0    0 -0.28977136565E+01 -0.45355837115E+01 -0.53990992776E+01  0.76235514722E+01  0.00000000000E+00 0.  1.
</event>
<event>
 7    1  0.1139627E-011  0.5930195E+02  0.7816164E-02  0.1266605E+00
        -11   -1    0    0    0    0  0.00000000000E+00  0.00000000000E+00  0.45593999997E+02  0.45594000000E+02  0.51100000000E-03 0.  1.
         11   -1    0    0    0    0 -0.00000000000E+00 -0.00000000000E+00 -0.45593999997E+02  0.45594000000E+02  0.51100000000E-03 0. -1.
    9900012    2    1    2    0    0  0.63354373700E+01  0.34046285987E+01 -0.31064303808E+02  0.59301949231E+02  0.50000009490E+02 0.  0.
        -12    1    1    2    0    0 -0.63354373700E+01 -0.34046285987E+01  0.31064303808E+02  0.31886050769E+02  0.00000000000E+00 0.  1.
         11    1    3    3    0    0  0.60956742681E+01  0.11612761238E+02 -0.16445895977E+02  0.21035231472E+02  0.51100000000E-03 0. -1.
        -11    1    3    3    0    0 -0.10770588816E+02  0.45992942298E+01  0.46883267716E+01  0.12615050496E+02  0.51100000000E-03 0.  1.
        -12    1    3    3    0    0  0.11010351917E+02 -0.12807426869E+02 -0.19306734603E+02  0.25651667263E+02  0.00000000000E+00 0.  1.
</event>
<event>
 7    1  0.1139627E-011  0.5930190E+02  0.7816164E-02  0.1266605E+00
        -11   -1    0    0    0    0  0.00000000000E+00  0.00000000000E+00  0.45593999997E+02  0.45594000000E+02  0.51100000000E-03 0.  1.
         11   -1    0    0    0    0 -0.00000000000E+00 -0.00000000000E+00 -0.45593999997E+02  0.45594000000E+02  0.51100000000E-03 0. -1.
    9900012    2    1    2    0    0  0.59286318812E+01  0.54526002855E+01 -0.30851969079E+02  0.59301897668E+02  0.49999915451E+02 0.  0.
        -12    1    1    2    0    0 -0.59286318812E+01 -0.54526002855E+01  0.30851969079E+02  0.31886102332E+02  0.00000000000E+00 0.  1.
         11    1    3    3    0    0 -0.11691856261E+02 -0.11021916574E+02 -0.51308061227E+01  0.16867344768E+02  0.51100000000E-03 0. -1.
        -11    1    3    3    0    0  0.11833200669E+02  0.20868073383E+02 -0.11807702914E+02  0.26738043556E+02  0.51100000000E-03 0.  1.
         12    1    3    3    0    0  0.57872874732E+01 -0.43935565235E+01 -0.13913460043E+02  0.15696509344E+02  0.00000000000E+00 0. -1.
</event>
<event>
 7    1  0.1139627E-011  0.5930201E+02  0.7816164E-02  0.1266605E+00
        -11   -1    0    0    0    0  0.00000000000E+00  0.00000000000E+00  0.45593999997E+02  0.45594000000E+02  0.51100000000E-03 0.  1.
         11   -1    0    0    0    0 -0.00000000000E+00 -0.00000000000E+00 -0.45593999997E+02  0.45594000000E+02  0.51100000000E-03 0. -1.
    9900012    2    1    2    0    0 -0.22610249136E+02  0.16919748027E+02 -0.14805912964E+02  0.59302010946E+02  0.50000122042E+02 0.  0.
        -12    1    1    2    0    0  0.22610249136E+02 -0.16919748027E+02  0.14805912964E+02  0.31885989054E+02  0.00000000000E+00 0.  1.
         11    1    3    3    0    0 -0.49026241935E+01 -0.11571730038E+02 -0.19381371968E+02  0.23099312537E+02  0.51100000000E-03 0. -1.
        -11    1    3    3    0    0 -0.19634216856E+02  0.25218739294E+02  0.51130804138E+01  0.32367126451E+02  0.51100000000E-03 0.  1.
        -12    1    3    3    0    0  0.19265919135E+01  0.32727387705E+01 -0.53762140974E+00  0.38355719575E+01  0.00000000000E+00 0.  1.
</event>
<event>
 7    1  0.1139627E-011  0.5930195E+02  0.7816164E-02  0.1266605E+00
        -11   -1    0    0    0    0  0.00000000000E+00  0.00000000000E+00  0.45593999997E+02  0.45594000000E+02  0.51100000000E-03 0.  1.
         11   -1    0    0    0    0 -0.00000000000E+00 -0.00000000000E+00 -0.45593999997E+02  0.45594000000E+02  0.51100000000E-03 0. -1.
    9900012    2    1    2    0    0 -0.30890991478E+02  0.57923775645E+01  0.53772762016E+01  0.59301951457E+02  0.50000013549E+02 0.  0.
        -12    1    1    2    0    0  0.30890991478E+02 -0.57923775645E+01 -0.53772762016E+01  0.31886048543E+02  0.00000000000E+00 0.  1.
         11    1    3    3    0    0 -0.11981925428E+02 -0.37098345374E+01  0.14411874257E+02  0.19105798311E+02  0.51100000000E-03 0. -1.
        -11    1    3    3    0    0 -0.14251375878E+02 -0.78315954457E+01 -0.14125073371E+02  0.21539575197E+02  0.51100000000E-03 0.  1.
        -12    1    3    3    0    0 -0.46576901721E+01  0.17333807548E+02  0.50904753160E+01  0.18656577949E+02  0.00000000000E+00 0.  1.
</event>
<event>
 7    1  0.1139627E-011  0.5930189E+02  0.7816164E-02  0.1266605E+00
        -11   -1    0    0    0    0  0.00000000000E+00  0.00000000000E+00  0.45593999997E+02  0.45594000000E+02  0.51100000000E-03 0. -1.
         11   -1    0    0    0    0 -0.00000000000E+00 -0.00000000000E+00 -0.45593999997E+02  0.45594000000E+02  0.51100000000E-03 0.  1.
    9900012    2    1    2    0    0  0.30835498115E+02 -0.58018276384E+01  0.56775559623E+01  0.59301893470E+02  0.49999907795E+02 0.  0.
        -12    1    1    2    0    0 -0.30835498115E+02  0.58018276384E+01 -0.56775559623E+01  0.31886106530E+02  0.00000000000E+00 0.  1.
         11    1    3    3    0    0 -0.87219192734E+01 -0.35630891366E+01 -0.53774372164E+01  0.10848240009E+02  0.51100000000E-03 0. -1.
        -11    1    3    3    0    0  0.30370874902E+02  0.73021559070E+01  0.54466243675E-01  0.31236428893E+02  0.51100000000E-03 0.  1.
         12    1    3    3    0    0  0.91865424865E+01 -0.95408944089E+01  0.11000526935E+02  0.17217224568E+02  0.00000000000E+00 0. -1.
</event>
<event>
 7    1  0.1139627E-011  0.5930193E+02  0.7816164E-02  0.1266605E+00
        -11   -1    0    0    0    0  0.00000000000E+00  0.00000000000E+00  0.45593999997E+02  0.45594000000E+02  0.51100000000E-03 0.  1.
         11   -1    0    0    0    0 -0.00000000000E+00 -0.00000000000E+00 -0.45593999997E+02  0.45594000000E+02  0.51100000000E-03 0. -1.
    9900012    2    1    2    0    0 -0.12627973049E+02 -0.28129707501E+02 -0.81225060229E+01  0.59301933270E+02  0.49999980381E+02 0.  0.
        -12    1    1    2    0    0  0.12627973049E+02  0.28129707501E+02  0.81225060229E+01  0.31886066730E+02  0.00000000000E+00 0.  1.
         11    1    3    3    0    0 -0.13998956591E+02 -0.11284970862E+02 -0.24657544625E+02  0.30517468116E+02  0.51100000000E-03 0. -1.
        -11    1    3    3    0    0  0.63201768904E+01 -0.17362176207E+01  0.11380591453E+01  0.66523880248E+01  0.51100000000E-03 0.  1.
         12    1    3    3    0    0 -0.49491933480E+01 -0.15108519017E+02  0.15396979457E+02  0.22132077130E+02  0.00000000000E+00 0. -1.
</event>
<event>
 7    1  0.1139627E-011  0.5930193E+02  0.7816164E-02  0.1266605E+00
        -11   -1    0    0    0    0  0.00000000000E+00  0.00000000000E+00  0.45593999997E+02  0.45594000000E+02  0.51100000000E-03 0.  1.
         11   -1    0    0    0    0 -0.00000000000E+00 -0.00000000000E+00 -0.45593999997E+02  0.45594000000E+02  0.51100000000E-03 0. -1.
    9900012    2    1    2    0    0 -0.18847173698E+01  0.29208090096E+02 -0.12651353737E+02  0.59301930346E+02  0.49999975047E+02 0.  0.
        -12    1    1    2    0    0  0.18847173698E+01 -0.29208090096E+02  0.12651353737E+02  0.31886069654E+02  0.00000000000E+00 0.  1.
         11    1    3    3    0    0  0.14191860045E+02  0.12061103815E+02  0.36155313254E+00  0.18628200066E+02  0.51100000000E-03 0. -1.
        -11    1    3    3    0    0 -0.18200087576E+02  0.21989955229E+02 -0.21907110317E+01  0.28628666295E+02  0.51100000000E-03 0.  1.
        -12    1    3    3    0    0  0.21235101614E+01 -0.48429689480E+01 -0.10822195837E+02  0.12045063984E+02  0.00000000000E+00 0.  1.
</event>
<event>
 7    1  0.1139627E-011  0.5930199E+02  0.7816164E-02  0.1266605E+00
        -11   -1    0    0    0    0  0.00000000000E+00  0.00000000000E+00  0.45593999997E+02  0.45594000000E+02  0.51100000000E-03 0.  1.
         11   -1    0    0    0    0 -0.00000000000E+00 -0.00000000000E+00 -0.45593999997E+02  0.45594000000E+02  0.51100000000E-03 0. -1.
    9900012    2    1    2    0    0 -0.17910343284E+02 -0.19137754206E+02 -0.18157197433E+02  0.59301986589E+02  0.50000077622E+02 0.  0.
        -12    1    1    2    0    0  0.17910343284E+02  0.19137754206E+02  0.18157197433E+02  0.31886013411E+02  0.00000000000E+00 0.  1.
         11    1    3    3    0    0 -0.30972744274E+02 -0.90837442809E+01 -0.79306087627E+01  0.33237326211E+02  0.51100000000E-03 0. -1.
        -11    1    3    3    0    0  0.14933850346E+02 -0.44822826406E+01 -0.12271057623E+02  0.19841612819E+02  0.51100000000E-03 0.  1.
         12    1    3    3    0    0 -0.18714493552E+01 -0.55717272850E+01  0.20444689524E+01  0.62230475592E+01  0.00000000000E+00 0. -1.
</event>
<event>
 7    1  0.1139627E-011  0.5930198E+02  0.7816164E-02  0.1266605E+00
        -11   -1    0    0    0    0  0.00000000000E+00  0.00000000000E+00  0.45593999997E+02  0.45594000000E+02  0.51100000000E-03 0.  1.
         11   -1    0    0    0    0 -0.00000000000E+00 -0.00000000000E+00 -0.45593999997E+02  0.45594000000E+02  0.51100000000E-03 0. -1.
    9900012    2    1    2    0    0  0.67297690109E+01 -0.26255705917E+02 -0.16794831861E+02  0.59301980158E+02  0.50000065892E+02 0.  0.
        -12    1    1    2    0    0 -0.67297690109E+01  0.26255705917E+02  0.16794831861E+02  0.31886019842E+02  0.00000000000E+00 0.  1.
         11    1    3    3    0    0  0.12193893672E+02 -0.72153982581E+01  0.54379209575E+01  0.15176429076E+02  0.51100000000E-03 0. -1.
        -11    1    3    3    0    0 -0.15647092162E+02  0.28066388065E+00 -0.13268071409E+02  0.20517114429E+02  0.51100000000E-03 0.  1.
        -12    1    3    3    0    0  0.10182967501E+02 -0.19320971540E+02 -0.89646814101E+01  0.23608436652E+02  0.00000000000E+00 0.  1.
</event>
<event>
 7    1  0.1139627E-011  0.5930195E+02  0.7816164E-02  0.1266605E+00
        -11   -1    0    0    0    0  0.00000000000E+00  0.00000000000E+00  0.45593999997E+02  0.45594000000E+02  0.51100000000E-03 0.  1.
         11   -1    0    0    0    0 -0.00000000000E+00 -0.00000000000E+00 -0.45593999997E+02  0.45594000000E+02  0.51100000000E-03 0. -1.
    9900012    2    1    2    0    0  0.19020228455E+02  0.19160644327E+02 -0.16965280540E+02  0.59301950930E+02  0.50000012588E+02 0.  0.
        -12    1    1    2    0    0 -0.19020228455E+02 -0.19160644327E+02  0.16965280540E+02  0.31886049070E+02  0.00000000000E+00 0.  1.
         11    1    3    3    0    0  0.19801044432E+02  0.11198496352E+02 -0.18484325428E+02  0.29311396554E+02  0.51100000000E-03 0. -1.
        -11    1    3    3    0    0 -0.12962713350E+02 -0.29654289716E+01 -0.13866111029E+01  0.13369682008E+02  0.51100000000E-03 0.  1.
         12    1    3    3    0    0  0.12181897373E+02  0.10927576947E+02  0.29056559909E+01  0.16620872368E+02  0.00000000000E+00 0. -1.
</event>
<event>
 7    1  0.1139627E-011  0.5930197E+02  0.7816164E-02  0.1266605E+00
        -11   -1    0    0    0    0  0.00000000000E+00  0.00000000000E+00  0.45593999997E+02  0.45594000000E+02  0.51100000000E-03 0. -1.
         11   -1    0    0    0    0 -0.00000000000E+00 -0.00000000000E+00 -0.45593999997E+02  0.45594000000E+02  0.51100000000E-03 0.  1.
    9900012    2    1    2    0    0  0.12831504672E+02 -0.35432219019E+01  0.28974422613E+02  0.59301967018E+02  0.50000041929E+02 0.  0.
        -12    1    1    2    0    0 -0.12831504672E+02  0.35432219019E+01 -0.28974422613E+02  0.31886032982E+02  0.00000000000E+00 0.  1.
         11    1    3    3    0    0  0.39129125470E+01 -0.11683942008E+02  0.23360951218E+02  0.26411350354E+02  0.51100000000E-03 0. -1.
        -11    1    3    3    0    0 -0.32892375283E+01  0.45576579564E+01 -0.10769294563E+02  0.12147799603E+02  0.51100000000E-03 0.  1.
        -12    1    3    3    0    0  0.12207829653E+02  0.35830621498E+01  0.16382765957E+02  0.20742817061E+02  0.00000000000E+00 0.  1.
</event>
<event>
 7    1  0.1139627E-011  0.5930194E+02  0.7816164E-02  0.1266605E+00
        -11   -1    0    0    0    0  0.00000000000E+00  0.00000000000E+00  0.45593999997E+02  0.45594000000E+02  0.51100000000E-03 0.  1.
         11   -1    0    0    0    0 -0.00000000000E+00 -0.00000000000E+00 -0.45593999997E+02  0.45594000000E+02  0.51100000000E-03 0. -1.
    9900012    2    1    2    0    0 -0.18575557330E+02 -0.41172244120E+01 -0.25587461907E+02  0.59301936056E+02  0.49999985462E+02 0.  0.
        -12    1    1    2    0    0  0.18575557330E+02  0.41172244120E+01  0.25587461907E+02  0.31886063944E+02  0.00000000000E+00 0.  1.
         11    1    3    3    0    0  0.52579901031E+01 -0.65057567113E+01  0.75249638209E+00  0.83986654521E+01  0.51100000000E-03 0. -1.
        -11    1    3    3    0    0 -0.33502569044E+02  0.39383769399E+01 -0.21228899829E+02  0.39857234396E+02  0.51100000000E-03 0.  1.
        -12    1    3    3    0    0  0.96690216113E+01 -0.15498446405E+01 -0.51110584608E+01  0.11046036208E+02  0.00000000000E+00 0.  1.
</event>
<event>
 7    1  0.1139627E-011  0.5930196E+02  0.7816164E-02  0.1266605E+00
        -11   -1    0    0    0    0  0.00000000000E+00  0.00000000000E+00  0.45593999997E+02  0.45594000000E+02  0.51100000000E-03 0.  1.
         11   -1    0    0    0    0 -0.00000000000E+00 -0.00000000000E+00 -0.45593999997E+02  0.45594000000E+02  0.51100000000E-03 0. -1.
    9900012    2    1    2    0    0 -0.22977287377E+02 -0.73215849460E+00 -0.22095881269E+02  0.59301956653E+02  0.50000023025E+02 0.  0.
        -12    1    1    2    0    0  0.22977287377E+02  0.73215849460E+00  0.22095881269E+02  0.31886043347E+02  0.00000000000E+00 0.  1.
         11    1    3    3    0    0  0.19622442112E+01  0.30002011121E+01 -0.84564289336E+01  0.91849224073E+01  0.51100000000E-03 0. -1.
        -11    1    3    3    0    0 -0.30572756461E+02 -0.11042890839E+02  0.13277799833E+01  0.32533088935E+02  0.51100000000E-03 0.  1.
        -12    1    3    3    0    0  0.56332248731E+01  0.73105312328E+01 -0.14967232319E+02  0.17583945310E+02  0.00000000000E+00 0.  1.
</event>
<event>
 7    1  0.1139627E-011  0.5930194E+02  0.7816164E-02  0.1266605E+00
        -11   -1    0    0    0    0  0.00000000000E+00  0.00000000000E+00  0.45593999997E+02  0.45594000000E+02  0.51100000000E-03 0.  1.
         11   -1    0    0    0    0 -0.00000000000E+00 -0.00000000000E+00 -0.45593999997E+02  0.45594000000E+02  0.51100000000E-03 0. -1.
    9900012    2    1    2    0    0  0.82935243768E+01 -0.25962593988E+02 -0.16549380621E+02  0.59301939846E+02  0.49999992374E+02 0.  0.
        -12    1    1    2    0    0 -0.82935243768E+01  0.25962593988E+02  0.16549380621E+02  0.31886060154E+02  0.00000000000E+00 0.  1.
         11    1    3    3    0    0  0.93615336008E+00  0.20765904311E+00 -0.22231168498E+02  0.22251839439E+02  0.51100000000E-03 0. -1.
        -11    1    3    3    0    0 -0.82007581172E+01 -0.16116190689E+02  0.31164083715E+01  0.18349278935E+02  0.51100000000E-03 0.  1.
        -12    1    3    3    0    0  0.15558129134E+02 -0.10054062342E+02  0.25653795053E+01  0.18700821472E+02  0.00000000000E+00 0.  1.
</event>
<event>
 7    1  0.1139627E-011  0.5930191E+02  0.7816164E-02  0.1266605E+00
        -11   -1    0    0    0    0  0.00000000000E+00  0.00000000000E+00  0.45593999997E+02  0.45594000000E+02  0.51100000000E-03 0. -1.
         11   -1    0    0    0    0 -0.00000000000E+00 -0.00000000000E+00 -0.45593999997E+02  0.45594000000E+02  0.51100000000E-03 0.  1.
    9900012    2    1    2    0    0  0.23458716239E+02 -0.26522714871E+01  0.21433071865E+02  0.59301913987E+02  0.49999945213E+02 0.  0.
        -12    1    1    2    0    0 -0.23458716239E+02  0.26522714871E+01 -0.21433071865E+02  0.31886086013E+02  0.00000000000E+00 0.  1.
         11    1    3    3    0    0  0.18742219471E+02 -0.18327787799E+02  0.21810085788E+02  0.34100710237E+02  0.51100000000E-03 0. -1.
        -11    1    3    3    0    0  0.12015197468E+02  0.11358544845E+02 -0.16897780038E+01  0.16620374880E+02  0.51100000000E-03 0.  1.
         12    1    3    3    0    0 -0.72987007006E+01  0.43169714673E+01  0.13127640817E+01  0.85808288702E+01  0.00000000000E+00 0. -1.
</event>
<event>
 7    1  0.1139627E-011  0.5930203E+02  0.7816164E-02  0.1266604E+00
        -11   -1    0    0    0    0  0.00000000000E+00  0.00000000000E+00  0.45593999997E+02  0.45594000000E+02  0.51100000000E-03 0.  1.
         11   -1    0    0    0    0 -0.00000000000E+00 -0.00000000000E+00 -0.45593999997E+02  0.45594000000E+02  0.51100000000E-03 0. -1.
    9900012    2    1    2    0    0 -0.33053535119E+01  0.25855096422E+02 -0.18365827722E+02  0.59302031287E+02  0.50000159140E+02 0.  0.
        -12    1    1    2    0    0  0.33053535119E+01 -0.25855096422E+02  0.18365827722E+02  0.31885968713E+02  0.00000000000E+00 0.  1.
         11    1    3    3    0    0 -0.96467071068E+01  0.29382847457E+02 -0.86813474236E+01  0.32121277621E+02  0.51100000000E-03 0. -1.
        -11    1    3    3    0    0  0.63369820911E+01 -0.11658835357E+02 -0.12834290900E+02  0.18460899412E+02  0.51100000000E-03 0.  1.
        -12    1    3    3    0    0  0.43715038006E-02  0.81310843233E+01  0.31498106021E+01  0.87198542540E+01  0.00000000000E+00 0.  1.
</event>
<event>
 7    1  0.1139627E-011  0.5930192E+02  0.7816164E-02  0.1266605E+00
        -11   -1    0    0    0    0  0.00000000000E+00  0.00000000000E+00  0.45593999997E+02  0.45594000000E+02  0.51100000000E-03 0. -1.
         11   -1    0    0    0    0 -0.00000000000E+00 -0.00000000000E+00 -0.45593999997E+02  0.45594000000E+02  0.51100000000E-03 0.  1.
    9900012    2    1    2    0    0  0.11593901553E+02 -0.18266511252E+02  0.23423019888E+02  0.59301923929E+02  0.49999963345E+02 0.  0.
        -12    1    1    2    0    0 -0.11593901553E+02  0.18266511252E+02 -0.23423019888E+02  0.31886076071E+02  0.00000000000E+00 0.  1.
         11    1    3    3    0    0  0.64097395505E+01 -0.80495397402E+01  0.51804413951E+01  0.11520278835E+02  0.51100000000E-03 0. -1.
        -11    1    3    3    0    0 -0.68570124596E+01  0.14003424063E+02  0.12840974008E+02  0.20199136592E+02  0.51100000000E-03 0.  1.
        -12    1    3    3    0    0  0.12041174462E+02 -0.24220395575E+02  0.54016044846E+01  0.27582508501E+02  0.00000000000E+00 0.  1.
</event>
<event>
 7    1  0.1139627E-011  0.5930195E+02  0.7816164E-02  0.1266605E+00
        -11   -1    0    0    0    0  0.00000000000E+00  0.00000000000E+00  0.45593999997E+02  0.45594000000E+02  0.51100000000E-03 0.  1.
         11   -1    0    0    0    0 -0.00000000000E+00 -0.00000000000E+00 -0.45593999997E+02  0.45594000000E+02  0.51100000000E-03 0. -1.
    9900012    2    1    2    0    0  0.21759438163E+02  0.38101076644E+01 -0.22994130057E+02  0.59301951536E+02  0.50000013693E+02 0.  0.
        -12    1    1    2    0    0 -0.21759438163E+02 -0.38101076644E+01  0.22994130057E+02  0.31886048464E+02  0.00000000000E+00 0.  1.
         11    1    3    3    0    0  0.52054155036E+01 -0.63440226467E+01 -0.27887964146E+02  0.29070285833E+02  0.51100000000E-03 0. -1.
        -11    1    3    3    0    0  0.96632066248E+01  0.16974112809E+02  0.37604499620E+00  0.19535595154E+02  0.51100000000E-03 0.  1.
         12    1    3    3    0    0  0.68908160344E+01 -0.68199824983E+01  0.45177890930E+01  0.10696070549E+02  0.00000000000E+00 0. -1.
</event>
<event>
 7    1  0.1139627E-011  0.5930197E+02  0.7816164E-02  0.1266605E+00
        -11   -1    0    0    0    0  0.00000000000E+00  0.00000000000E+00  0.45593999997E+02  0.45594000000E+02  0.51100000000E-03 0. -1.
         11   -1    0    0    0    0 -0.00000000000E+00 -0.00000000000E+00 -0.45593999997E+02  0.45594000000E+02  0.51100000000E-03 0.  1.
    9900012    2    1    2    0    0  0.13975151758E+02 -0.24258632018E+02  0.15262137052E+02  0.59301969808E+02  0.50000047017E+02 0.  0.
        -12    1    1    2    0    0 -0.13975151758E+02  0.24258632018E+02 -0.15262137052E+02  0.31886030192E+02  0.00000000000E+00 0.  1.
         11    1    3    3    0    0  0.23268809112E+02 -0.15975029108E+02  0.18129248902E+02  0.33545621153E+02  0.51100000000E-03 0. -1.
        -11    1    3    3    0    0 -0.66451846658E+01 -0.48647745262E+01 -0.12630365076E+02  0.15078150837E+02  0.51100000000E-03 0.  1.
         12    1    3    3    0    0 -0.26484726882E+01 -0.34188283832E+01  0.97632532261E+01  0.10678197818E+02  0.00000000000E+00 0. -1.
</event>
<event>
 7    1  0.1139627E-011  0.5930195E+02  0.7816164E-02  0.1266605E+00
        -11   -1    0    0    0    0  0.00000000000E+00  0.00000000000E+00  0.45593999997E+02  0.45594000000E+02  0.51100000000E-03 0.  1.
         11   -1    0    0    0    0 -0.00000000000E+00 -0.00000000000E+00 -0.45593999997E+02  0.45594000000E+02  0.51100000000E-03 0. -1.
    9900012    2    1    2    0    0 -0.97879775303E+01 -0.45879876355E+01 -0.29997771737E+02  0.59301945935E+02  0.50000003478E+02 0.  0.
        -12    1    1    2    0    0  0.97879775303E+01  0.45879876355E+01  0.29997771737E+02  0.31886054065E+02  0.00000000000E+00 0.  1.
         11    1    3    3    0    0  0.48627136869E+01  0.97950517577E+01  0.20382152348E+01  0.11123998604E+02  0.51100000000E-03 0. -1.
        -11    1    3    3    0    0 -0.21052068669E+02 -0.17311871661E+02 -0.18563509941E+02  0.32977179947E+02  0.51100000000E-03 0.  1.
         12    1    3    3    0    0  0.64013774517E+01  0.29288322675E+01 -0.13472477031E+02  0.15200767384E+02  0.00000000000E+00 0. -1.
</event>
<event>
 7    1  0.1139627E-011  0.5930192E+02  0.7816164E-02  0.1266605E+00
        -11   -1    0    0    0    0  0.00000000000E+00  0.00000000000E+00  0.45593999997E+02  0.45594000000E+02  0.51100000000E-03 0.  1.
         11   -1    0    0    0    0 -0.00000000000E+00 -0.00000000000E+00 -0.45593999997E+02  0.45594000000E+02  0.51100000000E-03 0. -1.
    9900012    2    1    2    0    0  0.13290477060E+02  0.16999909688E+02 -0.23475278261E+02  0.59301915272E+02  0.49999947556E+02 0.  0.
        -12    1    1    2    0    0 -0.13290477060E+02 -0.16999909688E+02  0.23475278261E+02  0.31886084728E+02  0.00000000000E+00 0.  1.
         11    1    3    3    0    0  0.19765157300E+02  0.10106110024E+02 -0.26247458354E+02  0.34376212317E+02  0.51100000000E-03 0. -1.
        -11    1    3    3    0    0  0.39821109071E+00 -0.20098766036E+01  0.10873026574E+02  0.11064397099E+02  0.51100000000E-03 0.  1.
        -12    1    3    3    0    0 -0.68728913308E+01  0.89036762679E+01 -0.81008464804E+01  0.13861305856E+02  0.00000000000E+00 0.  1.
</event>
<event>
 7    1  0.1139627E-011  0.5930195E+02  0.7816164E-02  0.1266605E+00
        -11   -1    0    0    0    0  0.00000000000E+00  0.00000000000E+00  0.45593999997E+02  0.45594000000E+02  0.51100000000E-03 0. -1.
         11   -1    0    0    0    0 -0.00000000000E+00 -0.00000000000E+00 -0.45593999997E+02  0.45594000000E+02  0.51100000000E-03 0.  1.
    9900012    2    1    2    0    0  0.15732731089E+01 -0.69045033005E+01  0.31089755555E+02  0.59301948902E+02  0.50000008890E+02 0.  0.
        -12    1    1    2    0    0 -0.15732731089E+01  0.69045033005E+01 -0.31089755555E+02  0.31886051098E+02  0.00000000000E+00 0.  1.
         11    1    3    3    0    0  0.21034926784E+02  0.76210578112E+01  0.20942926172E+02  0.30645633031E+02  0.51100000000E-03 0.  1.
        -11    1    3    3    0    0 -0.77044410348E+01 -0.12745926714E+02  0.51638569821E+01  0.15763327017E+02  0.51100000000E-03 0. -1.
         12    1    3    3    0    0 -0.11757212640E+02 -0.17796343981E+01  0.49829724015E+01  0.12892988855E+02  0.00000000000E+00 0. -1.
</event>
<event>
 7    1  0.1139627E-011  0.5930191E+02  0.7816164E-02  0.1266605E+00
        -11   -1    0    0    0    0  0.00000000000E+00  0.00000000000E+00  0.45593999997E+02  0.45594000000E+02  0.51100000000E-03 0. -1.
         11   -1    0    0    0    0 -0.00000000000E+00 -0.00000000000E+00 -0.45593999997E+02  0.45594000000E+02  0.51100000000E-03 0.  1.
    9900012    2    1    2    0    0  0.32121675798E+01 -0.26977531778E+02  0.16691844060E+02  0.59301907428E+02  0.49999933251E+02 0.  0.
        -12    1    1    2    0    0 -0.32121675798E+01  0.26977531778E+02 -0.16691844060E+02  0.31886092572E+02  0.00000000000E+00 0.  1.
         11    1    3    3    0    0  0.12090585851E+02 -0.37362604665E+02  0.52159537993E+01  0.39615056075E+02  0.51100000000E-03 0. -1.
        -11    1    3    3    0    0  0.79733167208E+00  0.32363211923E+01  0.50424684181E+01  0.60445016886E+01  0.51100000000E-03 0.  1.
         12    1    3    3    0    0 -0.96757499432E+01  0.71487516945E+01  0.64334218426E+01  0.13642349664E+02  0.00000000000E+00 0. -1.
</event>
<event>
 7    1  0.1139627E-011  0.5930193E+02  0.7816164E-02  0.1266605E+00
        -11   -1    0    0    0    0  0.00000000000E+00  0.00000000000E+00  0.45593999997E+02  0.45594000000E+02  0.51100000000E-03 0.  1.
         11   -1    0    0    0    0 -0.00000000000E+00 -0.00000000000E+00 -0.45593999997E+02  0.45594000000E+02  0.51100000000E-03 0. -1.
    9900012    2    1    2    0    0 -0.15725322162E+02  0.73611637080E+01 -0.26744136005E+02  0.59301932527E+02  0.49999979026E+02 0.  0.
        -12    1    1    2    0    0  0.15725322162E+02 -0.73611637080E+01  0.26744136005E+02  0.31886067473E+02  0.00000000000E+00 0.  1.
         11    1    3    3    0    0 -0.72288838291E+01 -0.14747752435E+02 -0.99516752703E+01  0.19203874720E+02  0.51100000000E-03 0. -1.
        -11    1    3    3    0    0 -0.18291725783E+02  0.18293610533E+02 -0.11189101258E+02  0.28185801491E+02  0.51100000000E-03 0.  1.
        -12    1    3    3    0    0  0.97952874499E+01  0.38153056105E+01 -0.56033594767E+01  0.11912256317E+02  0.00000000000E+00 0.  1.
</event>
<event>
 7    1  0.1139627E-011  0.5930194E+02  0.7816164E-02  0.1266605E+00
        -11   -1    0    0    0    0  0.00000000000E+00  0.00000000000E+00  0.45593999997E+02  0.45594000000E+02  0.51100000000E-03 0.  1.
         11   -1    0    0    0    0 -0.00000000000E+00 -0.00000000000E+00 -0.45593999997E+02  0.45594000000E+02  0.51100000000E-03 0. -1.
    9900012    2    1    2    0    0 -0.61191753840E+01  0.31272082213E+02  0.11547034627E+01  0.59301940767E+02  0.49999994054E+02 0.  0.
        -12    1    1    2    0    0  0.61191753840E+01 -0.31272082213E+02 -0.11547034627E+01  0.31886059233E+02  0.00000000000E+00 0.  1.
         11    1    3    3    0    0 -0.24220727462E+02  0.14889064866E+02  0.10878806014E+02  0.30441358576E+02  0.51100000000E-03 0. -1.
        -11    1    3    3    0    0  0.16099143726E+02  0.71207068009E+01 -0.51720173210E+01  0.18347660818E+02  0.51100000000E-03 0.  1.
         12    1    3    3    0    0  0.20024083521E+01  0.92623105461E+01 -0.45520852306E+01  0.10512921374E+02  0.00000000000E+00 0. -1.
</event>
<event>
 7    1  0.1139627E-011  0.5930193E+02  0.7816164E-02  0.1266605E+00
        -11   -1    0    0    0    0  0.00000000000E+00  0.00000000000E+00  0.45593999997E+02  0.45594000000E+02  0.51100000000E-03 0. -1.
         11   -1    0    0    0    0 -0.00000000000E+00 -0.00000000000E+00 -0.45593999997E+02  0.45594000000E+02  0.51100000000E-03 0.  1.
    9900012    2    1    2    0    0  0.13045198855E+02  0.26589652591E+02 -0.11812465319E+02  0.59301934470E+02  0.49999982570E+02 0.  0.
        -12    1    1    2    0    0 -0.13045198855E+02 -0.26589652591E+02  0.11812465319E+02  0.31886065530E+02  0.00000000000E+00 0.  1.
         11    1    3    3    0    0  0.18173695020E+02  0.20739785581E+00 -0.10356456065E+02  0.20918469998E+02  0.51100000000E-03 0. -1.
        -11    1    3    3    0    0  0.16316372550E+01  0.28689925971E+02 -0.67183691276E+01  0.29511194085E+02  0.51100000000E-03 0.  1.
         12    1    3    3    0    0 -0.67601334203E+01 -0.23076712358E+01  0.52623598739E+01  0.88722703878E+01  0.00000000000E+00 0. -1.
</event>
<event>
 7    1  0.1139627E-011  0.5930196E+02  0.7816164E-02  0.1266605E+00
        -11   -1    0    0    0    0  0.00000000000E+00  0.00000000000E+00  0.45593999997E+02  0.45594000000E+02  0.51100000000E-03 0.  1.
         11   -1    0    0    0    0 -0.00000000000E+00 -0.00000000000E+00 -0.45593999997E+02  0.45594000000E+02  0.51100000000E-03 0. -1.
    9900012    2    1    2    0    0  0.21840061607E+02  0.59641843050E+01 -0.22453499056E+02  0.59301962220E+02  0.50000033178E+02 0.  0.
        -12    1    1    2    0    0 -0.21840061607E+02 -0.59641843050E+01  0.22453499056E+02  0.31886037780E+02  0.00000000000E+00 0.  1.
         11    1    3    3    0    0  0.88739863123E+01 -0.36098404451E+01 -0.25369413077E+01  0.99103305985E+01  0.51100000000E-03 0. -1.
        -11    1    3    3    0    0 -0.13321346376E+02  0.11447539575E+02 -0.13799941030E+02  0.22337027651E+02  0.51100000000E-03 0.  1.
        -12    1    3    3    0    0  0.26287421671E+02 -0.18735148253E+01 -0.61166167189E+01  0.27054603970E+02  0.00000000000E+00 0.  1.
</event>
<event>
 7    1  0.1271432E-011  0.5930194E+02  0.7816164E-02  0.1266605E+00
        -11   -1    0    0    0    0  0.00000000000E+00  0.00000000000E+00  0.45593999997E+02  0.45594000000E+02  0.51100000000E-03 0.  1.
         11   -1    0    0    0    0 -0.00000000000E+00 -0.00000000000E+00 -0.45593999997E+02  0.45594000000E+02  0.51100000000E-03 0. -1.
    9900012    2    1    2    0    0 -0.28494552734E+02 -0.82054261239E+01 -0.11724008584E+02  0.59301938301E+02  0.49999989556E+02 0.  0.
        -12    1    1    2    0    0  0.28494552734E+02  0.82054261239E+01  0.11724008584E+02  0.31886061699E+02  0.00000000000E+00 0.  1.
         11    1    3    3    0    0 -0.12960192741E+02  0.35491332236E+01  0.14505624099E+02  0.19773114911E+02  0.51100000000E-03 0. -1.
        -11    1    3    3    0    0  0.27794494167E+01 -0.10849405230E+02 -0.90000896962E+01  0.14367899906E+02  0.51100000000E-03 0.  1.
         12    1    3    3    0    0 -0.18313809410E+02 -0.90515411796E+00 -0.17229542986E+02  0.25160923484E+02  0.00000000000E+00 0. -1.
</event>
<event>
 7    1  0.1139627E-011  0.5930195E+02  0.7816164E-02  0.1266605E+00
        -11   -1    0    0    0    0  0.00000000000E+00  0.00000000000E+00  0.45593999997E+02  0.45594000000E+02  0.51100000000E-03 0.  1.
         11   -1    0    0    0    0 -0.00000000000E+00 -0.00000000000E+00 -0.45593999997E+02  0.45594000000E+02  0.51100000000E-03 0. -1.
    9900012    2    1    2    0    0 -0.16108927116E+02 -0.14004251870E+02 -0.23687631049E+02  0.59301945557E+02  0.50000002789E+02 0.  0.
        -12    1    1    2    0    0  0.16108927116E+02  0.14004251870E+02  0.23687631049E+02  0.31886054443E+02  0.00000000000E+00 0.  1.
         11    1    3    3    0    0  0.10596437759E+02 -0.61570007271E+01 -0.11842768666E+02  0.17042427088E+02  0.51100000000E-03 0. -1.
        -11    1    3    3    0    0 -0.26400237810E+02  0.24166538234E+01 -0.16240665430E+02  0.31089740848E+02  0.51100000000E-03 0.  1.
        -12    1    3    3    0    0 -0.30512706423E+00 -0.10263904966E+02  0.43958030463E+01  0.11169777621E+02  0.00000000000E+00 0.  1.
</event>
<event>
 7    1  0.1139627E-011  0.5930195E+02  0.7816164E-02  0.1266605E+00
        -11   -1    0    0    0    0  0.00000000000E+00  0.00000000000E+00  0.45593999997E+02  0.45594000000E+02  0.51100000000E-03 0.  1.
         11   -1    0    0    0    0 -0.00000000000E+00 -0.00000000000E+00 -0.45593999997E+02  0.45594000000E+02  0.51100000000E-03 0. -1.
    9900012    2    1    2    0    0 -0.24676245873E+02 -0.76787971667E+01 -0.18677240081E+02  0.59301947667E+02  0.50000006637E+02 0.  0.
        -12    1    1    2    0    0  0.24676245873E+02  0.76787971667E+01  0.18677240081E+02  0.31886052333E+02  0.00000000000E+00 0.  1.
         11    1    3    3    0    0 -0.58555821284E+01  0.27661614151E+01 -0.20482920630E+02  0.21482307344E+02  0.51100000000E-03 0. -1.
        -11    1    3    3    0    0 -0.36994519533E+01 -0.48923412345E+01  0.15504692131E+02  0.16673824572E+02  0.51100000000E-03 0.  1.
        -12    1    3    3    0    0 -0.15121211792E+02 -0.55526173474E+01 -0.13699011582E+02  0.21145815751E+02  0.00000000000E+00 0.  1.
</event>
<event>
 7    1  0.1139627E-011  0.5930193E+02  0.7816164E-02  0.1266605E+00
        -11   -1    0    0    0    0  0.00000000000E+00  0.00000000000E+00  0.45593999997E+02  0.45594000000E+02  0.51100000000E-03 0.  1.
         11   -1    0    0    0    0 -0.00000000000E+00 -0.00000000000E+00 -0.45593999997E+02  0.45594000000E+02  0.51100000000E-03 0. -1.
    9900012    2    1    2    0    0  0.11360983004E+02  0.10074180206E+02 -0.28038556871E+02  0.59301926033E+02  0.49999967182E+02 0.  0.
        -12    1    1    2    0    0 -0.11360983004E+02 -0.10074180206E+02  0.28038556871E+02  0.31886073967E+02  0.00000000000E+00 0.  1.
         11    1    3    3    0    0  0.12585631270E+02  0.14477856190E+02 -0.74032701728E+01  0.20562462008E+02  0.51100000000E-03 0. -1.
        -11    1    3    3    0    0 -0.16770044684E+02 -0.32778097815E+01 -0.91858364724E+01  0.19399949166E+02  0.51100000000E-03 0.  1.
        -12    1    3    3    0    0  0.15545396419E+02 -0.11258662027E+01 -0.11449450225E+02  0.19339514859E+02  0.00000000000E+00 0.  1.
</event>
<event>
 7    1  0.1139627E-011  0.5930194E+02  0.7816164E-02  0.1266605E+00
        -11   -1    0    0    0    0  0.00000000000E+00  0.00000000000E+00  0.45593999997E+02  0.45594000000E+02  0.51100000000E-03 0. -1.
         11   -1    0    0    0    0 -0.00000000000E+00 -0.00000000000E+00 -0.45593999997E+02  0.45594000000E+02  0.51100000000E-03 0.  1.
    9900012    2    1    2    0    0 -0.29195318073E+01  0.86588188576E+01  0.30548679806E+02  0.59301942736E+02  0.49999997644E+02 0.  0.
        -12    1    1    2    0    0  0.29195318073E+01 -0.86588188576E+01 -0.30548679806E+02  0.31886057264E+02  0.00000000000E+00 0.  1.
         11    1    3    3    0    0  0.50479638114E+01  0.85254241685E+01  0.31613021770E+02  0.33129261108E+02  0.51100000000E-03 0. -1.
        -11    1    3    3    0    0  0.19320254059E+01 -0.10039364857E+02 -0.50868388303E+01  0.11419172406E+02  0.51100000000E-03 0.  1.
         12    1    3    3    0    0 -0.98995210246E+01  0.10172759546E+02  0.40224968661E+01  0.14753509221E+02  0.00000000000E+00 0. -1.
</event>
<event>
 7    1  0.1139627E-011  0.5930193E+02  0.7816164E-02  0.1266605E+00
        -11   -1    0    0    0    0  0.00000000000E+00  0.00000000000E+00  0.45593999997E+02  0.45594000000E+02  0.51100000000E-03 0. -1.
         11   -1    0    0    0    0 -0.00000000000E+00 -0.00000000000E+00 -0.45593999997E+02  0.45594000000E+02  0.51100000000E-03 0.  1.
    9900012    2    1    2    0    0  0.21364076491E+02 -0.12619786088E+02  0.20025954376E+02  0.59301927588E+02  0.49999970017E+02 0.  0.
        -12    1    1    2    0    0 -0.21364076491E+02  0.12619786088E+02 -0.20025954376E+02  0.31886072412E+02  0.00000000000E+00 0.  1.
         11    1    3    3    0    0  0.28042475298E+02 -0.28182520488E+01  0.20739352327E+02  0.34992051964E+02  0.51100000000E-03 0.  1.
        -11    1    3    3    0    0 -0.23831280510E+01 -0.15141388381E+02 -0.51224336041E+01  0.16161072603E+02  0.51100000000E-03 0. -1.
        -12    1    3    3    0    0 -0.42952707565E+01  0.53398543419E+01  0.44090356538E+01  0.81488030202E+01  0.00000000000E+00 0.  1.
</event>
<event>
 7    1  0.1139627E-011  0.5930195E+02  0.7816164E-02  0.1266605E+00
        -11   -1    0    0    0    0  0.00000000000E+00  0.00000000000E+00  0.45593999997E+02  0.45594000000E+02  0.51100000000E-03 0. -1.
         11   -1    0    0    0    0 -0.00000000000E+00 -0.00000000000E+00 -0.45593999997E+02  0.45594000000E+02  0.51100000000E-03 0.  1.
    9900012    2    1    2    0    0  0.33455315870E+00 -0.11668367767E+02  0.29672503257E+02  0.59301950045E+02  0.50000010974E+02 0.  0.
        -12    1    1    2    0    0 -0.33455315870E+00  0.11668367767E+02 -0.29672503257E+02  0.31886049955E+02  0.00000000000E+00 0.  1.
         11    1    3    3    0    0  0.20441000660E+02 -0.95781395109E+01  0.28289404395E+02  0.36192066337E+02  0.51100000000E-03 0. -1.
        -11    1    3    3    0    0 -0.11534263328E+02 -0.79471718988E+00 -0.47405595520E+01  0.12495747719E+02  0.51100000000E-03 0.  1.
        -12    1    3    3    0    0 -0.85721841726E+01 -0.12955110662E+01  0.61236584148E+01  0.10614135989E+02  0.00000000000E+00 0.  1.
</event>
<event>
 7    1  0.1139627E-011  0.5930195E+02  0.7816164E-02  0.1266605E+00
        -11   -1    0    0    0    0  0.00000000000E+00  0.00000000000E+00  0.45593999997E+02  0.45594000000E+02  0.51100000000E-03 0. -1.
         11   -1    0    0    0    0 -0.00000000000E+00 -0.00000000000E+00 -0.45593999997E+02  0.45594000000E+02  0.51100000000E-03 0.  1.
    9900012    2    1    2    0    0 -0.25959842519E+02  0.69312988375E+01  0.17168697072E+02  0.59301945269E+02  0.50000002263E+02 0.  0.
        -12    1    1    2    0    0  0.25959842519E+02 -0.69312988375E+01 -0.17168697072E+02  0.31886054731E+02  0.00000000000E+00 0.  1.
         11    1    3    3    0    0  0.72396265870E+01 -0.47247155212E+00  0.20824250019E+02  0.22051866397E+02  0.51100000000E-03 0. -1.
        -11    1    3    3    0    0 -0.65473665965E+01  0.76774850425E+01 -0.32251998736E+01  0.10593096828E+02  0.51100000000E-03 0.  1.
         12    1    3    3    0    0 -0.26652102510E+02 -0.27371465286E+00 -0.43035307337E+00  0.26656982044E+02  0.00000000000E+00 0. -1.
</event>
<event>
 7    1  0.1139627E-011  0.5930193E+02  0.7816164E-02  0.1266605E+00
        -11   -1    0    0    0    0  0.00000000000E+00  0.00000000000E+00  0.45593999997E+02  0.45594000000E+02  0.51100000000E-03 0.  1.
         11   -1    0    0    0    0 -0.00000000000E+00 -0.00000000000E+00 -0.45593999997E+02  0.45594000000E+02  0.51100000000E-03 0. -1.
    9900012    2    1    2    0    0  0.20603458905E+02  0.53872062071E+01 -0.23731766007E+02  0.59301933649E+02  0.49999981071E+02 0.  0.
        -12    1    1    2    0    0 -0.20603458905E+02 -0.53872062071E+01  0.23731766007E+02  0.31886066351E+02  0.00000000000E+00 0.  1.
         11    1    3    3    0    0  0.14027904153E+02  0.99436747952E+01 -0.25980938984E+01  0.17389906714E+02  0.51100000000E-03 0. -1.
        -11    1    3    3    0    0 -0.80646862050E+01 -0.29948998317E+01  0.63774323954E+01  0.10708885694E+02  0.51100000000E-03 0.  1.
        -12    1    3    3    0    0  0.14640240956E+02 -0.15615687563E+01 -0.27511104504E+02  0.31203141240E+02  0.00000000000E+00 0.  1.
</event>
<event>
 7    1  0.1139627E-011  0.5930196E+02  0.7816164E-02  0.1266605E+00
        -11   -1    0    0    0    0  0.00000000000E+00  0.00000000000E+00  0.45593999997E+02  0.45594000000E+02  0.51100000000E-03 0.  1.
         11   -1    0    0    0    0 -0.00000000000E+00 -0.00000000000E+00 -0.45593999997E+02  0.45594000000E+02  0.51100000000E-03 0. -1.
    9900012    2    1    2    0    0 -0.28013584995E+02  0.90265744589E+01 -0.12267012603E+02  0.59301959341E+02  0.50000027927E+02 0.  0.
        -12    1    1    2    0    0  0.28013584995E+02 -0.90265744589E+01  0.12267012603E+02  0.31886040659E+02  0.00000000000E+00 0.  1.
         11    1    3    3    0    0 -0.15922389908E+02 -0.17398182053E+02 -0.18022115634E+01  0.23653059124E+02  0.51100000000E-03 0. -1.
        -11    1    3    3    0    0 -0.15861591309E+02  0.25744452672E+02 -0.90337167603E+01  0.31559070978E+02  0.51100000000E-03 0.  1.
         12    1    3    3    0    0  0.37703962221E+01  0.68030383992E+00 -0.14310842794E+01  0.40898292386E+01  0.00000000000E+00 0. -1.
</event>
<event>
 7    1  0.1139627E-011  0.5930193E+02  0.7816164E-02  0.1266605E+00
        -11   -1    0    0    0    0  0.00000000000E+00  0.00000000000E+00  0.45593999997E+02  0.45594000000E+02  0.51100000000E-03 0. -1.
         11   -1    0    0    0    0 -0.00000000000E+00 -0.00000000000E+00 -0.45593999997E+02  0.45594000000E+02  0.51100000000E-03 0.  1.
    9900012    2    1    2    0    0 -0.83087127899E+00 -0.14098208421E+02  0.28587960736E+02  0.59301932089E+02  0.49999978226E+02 0.  0.
        -12    1    1    2    0    0  0.83087127899E+00  0.14098208421E+02 -0.28587960736E+02  0.31886067911E+02  0.00000000000E+00 0.  1.
         11    1    3    3    0    0 -0.23420879972E+01 -0.22996982572E+02 -0.50722789258E+01  0.23665895237E+02  0.51100000000E-03 0. -1.
        -11    1    3    3    0    0 -0.27681978081E+01  0.27784629756E+01  0.15753953660E+02  0.16234833901E+02  0.51100000000E-03 0.  1.
        -12    1    3    3    0    0  0.42794145263E+01  0.61203111746E+01  0.17906286002E+02  0.19401202951E+02  0.00000000000E+00 0.  1.
</event>
<event>
 7    1  0.1139627E-011  0.5930194E+02  0.7816164E-02  0.1266605E+00
        -11   -1    0    0    0    0  0.00000000000E+00  0.00000000000E+00  0.45593999997E+02  0.45594000000E+02  0.51100000000E-03 0.  1.
         11   -1    0    0    0    0 -0.00000000000E+00 -0.00000000000E+00 -0.45593999997E+02  0.45594000000E+02  0.51100000000E-03 0. -1.
    9900012    2    1    2    0    0  0.40618221039E+01 -0.19663915747E+02  0.24769994837E+02  0.59301943086E+02  0.49999998282E+02 0.  0.
        -12    1    1    2    0    0 -0.40618221039E+01  0.19663915747E+02 -0.24769994837E+02  0.31886056914E+02  0.00000000000E+00 0.  1.
         11    1    3    3    0    0  0.13951917854E+02 -0.26834295962E+02  0.26067654814E+02  0.39928161482E+02  0.51100000000E-03 0. -1.
        -11    1    3    3    0    0  0.34070872083E+01  0.45518307402E+01 -0.12482665061E+01  0.58211318370E+01  0.51100000000E-03 0.  1.
         12    1    3    3    0    0 -0.13297182958E+02  0.26185494744E+01 -0.49393471125E-01  0.13552649766E+02  0.00000000000E+00 0. -1.
</event>
<event>
 7    1  0.1139627E-011  0.5930194E+02  0.7816164E-02  0.1266605E+00
        -11   -1    0    0    0    0  0.00000000000E+00  0.00000000000E+00  0.45593999997E+02  0.45594000000E+02  0.51100000000E-03 0.  1.
         11   -1    0    0    0    0 -0.00000000000E+00 -0.00000000000E+00 -0.45593999997E+02  0.45594000000E+02  0.51100000000E-03 0. -1.
    9900012    2    1    2    0    0  0.16145291939E+02 -0.86018660964E+01  0.26116243503E+02  0.59301941497E+02  0.49999995385E+02 0.  0.
        -12    1    1    2    0    0 -0.16145291939E+02  0.86018660964E+01 -0.26116243503E+02  0.31886058503E+02  0.00000000000E+00 0.  1.
         11    1    3    3    0    0 -0.63909161180E+01 -0.61290251103E+01 -0.10792654257E+02  0.13960306006E+02  0.51100000000E-03 0. -1.
        -11    1    3    3    0    0  0.23293742203E+02 -0.23255463350E+01  0.28429558044E+02  0.36827250270E+02  0.51100000000E-03 0.  1.
         12    1    3    3    0    0 -0.75753414555E+00 -0.14729465119E+00  0.84793397150E+01  0.85143852213E+01  0.00000000000E+00 0. -1.
</event>
<event>
 7    1  0.1139627E-011  0.5930194E+02  0.7816164E-02  0.1266605E+00
        -11   -1    0    0    0    0  0.00000000000E+00  0.00000000000E+00  0.45593999997E+02  0.45594000000E+02  0.51100000000E-03 0. -1.
         11   -1    0    0    0    0 -0.00000000000E+00 -0.00000000000E+00 -0.45593999997E+02  0.45594000000E+02  0.51100000000E-03 0.  1.
    9900012    2    1    2    0    0 -0.19244152428E+02  0.14511346704E+02  0.20875918923E+02  0.59301943851E+02  0.49999999678E+02 0.  0.
        -12    1    1    2    0    0  0.19244152428E+02 -0.14511346704E+02 -0.20875918923E+02  0.31886056149E+02  0.00000000000E+00 0.  1.
         11    1    3    3    0    0  0.83702978128E+01  0.15769907460E+02  0.21714132268E+02  0.28111481768E+02  0.51100000000E-03 0. -1.
        -11    1    3    3    0    0 -0.18538403783E+02  0.36915736869E+01 -0.57321490337E+01  0.19752409066E+02  0.51100000000E-03 0.  1.
        -12    1    3    3    0    0 -0.90760464576E+01 -0.49501344431E+01  0.48939356890E+01  0.11438053018E+02  0.00000000000E+00 0.  1.
</event>
<event>
 7    1  0.1139627E-011  0.5930196E+02  0.7816164E-02  0.1266605E+00
        -11   -1    0    0    0    0  0.00000000000E+00  0.00000000000E+00  0.45593999997E+02  0.45594000000E+02  0.51100000000E-03 0.  1.
         11   -1    0    0    0    0 -0.00000000000E+00 -0.00000000000E+00 -0.45593999997E+02  0.45594000000E+02  0.51100000000E-03 0. -1.
    9900012    2    1    2    0    0 -0.16903876469E+01  0.31701912328E+02  0.29750616775E+01  0.59301958420E+02  0.50000026248E+02 0.  0.
        -12    1    1    2    0    0  0.16903876469E+01 -0.31701912328E+02 -0.29750616775E+01  0.31886041580E+02  0.00000000000E+00 0.  1.
         11    1    3    3    0    0  0.94579936194E+00  0.12968493056E+02 -0.53301074817E+00  0.13013856050E+02  0.51100000000E-03 0. -1.
        -11    1    3    3    0    0  0.64252131581E+01 -0.12209318789E+02  0.25577968486E+01  0.14031862115E+02  0.51100000000E-03 0.  1.
        -12    1    3    3    0    0 -0.90614001669E+01  0.30942738062E+02  0.95027557702E+00  0.32256240256E+02  0.00000000000E+00 0.  1.
</event>
<event>
 7    1  0.1139627E-011  0.5930182E+02  0.7816164E-02  0.1266605E+00
        -11   -1    0    0    0    0  0.00000000000E+00  0.00000000000E+00  0.45593999997E+02  0.45594000000E+02  0.51100000000E-03 0. -1.
         11   -1    0    0    0    0 -0.00000000000E+00 -0.00000000000E+00 -0.45593999997E+02  0.45594000000E+02  0.51100000000E-03 0.  1.
    9900012    2    1    2    0    0 -0.67705059033E+01  0.28792419213E+02  0.11911561912E+02  0.59301820211E+02  0.49999774188E+02 0.  0.
        -12    1    1    2    0    0  0.67705059033E+01 -0.28792419213E+02 -0.11911561912E+02  0.31886179789E+02  0.00000000000E+00 0.  1.
         11    1    3    3    0    0 -0.21575623108E+02  0.35285588979E+02  0.77609094767E+01  0.42081017315E+02  0.51100000000E-03 0. -1.
        -11    1    3    3    0    0  0.95566762750E+01 -0.63214061794E+01  0.30133496215E+01  0.11847806283E+02  0.51100000000E-03 0.  1.
         12    1    3    3    0    0  0.52484409295E+01 -0.17176358620E+00  0.11373028141E+01  0.53729966137E+01  0.00000000000E+00 0. -1.
</event>
<event>
 7    1  0.1139627E-011  0.5930196E+02  0.7816164E-02  0.1266605E+00
        -11   -1    0    0    0    0  0.00000000000E+00  0.00000000000E+00  0.45593999997E+02  0.45594000000E+02  0.51100000000E-03 0. -1.
         11   -1    0    0    0    0 -0.00000000000E+00 -0.00000000000E+00 -0.45593999997E+02  0.45594000000E+02  0.51100000000E-03 0.  1.
    9900012    2    1    2    0    0 -0.20091188291E+02 -0.72337710754E+01  0.23679864334E+02  0.59301964408E+02  0.50000037168E+02 0.  0.
        -12    1    1    2    0    0  0.20091188291E+02  0.72337710754E+01 -0.23679864334E+02  0.31886035592E+02  0.00000000000E+00 0.  1.
         11    1    3    3    0    0  0.37637235243E+00 -0.14994907874E+02 -0.16812240108E+01  0.15093556000E+02  0.51100000000E-03 0. -1.
        -11    1    3    3    0    0 -0.24891827542E+02  0.93054867534E+01  0.28184841693E+02  0.38737326490E+02  0.51100000000E-03 0.  1.
        -12    1    3    3    0    0  0.44242668991E+01 -0.15443499553E+01 -0.28237533478E+01  0.54710819175E+01  0.00000000000E+00 0.  1.
</event>
<event>
 7    1  0.1139627E-011  0.5930196E+02  0.7816164E-02  0.1266605E+00
        -11   -1    0    0    0    0  0.00000000000E+00  0.00000000000E+00  0.45593999997E+02  0.45594000000E+02  0.51100000000E-03 0. -1.
         11   -1    0    0    0    0 -0.00000000000E+00 -0.00000000000E+00 -0.45593999997E+02  0.45594000000E+02  0.51100000000E-03 0.  1.
    9900012    2    1    2    0    0 -0.36499085499E+01  0.31523203869E+02 -0.31121012477E+01  0.59301962479E+02  0.50000033651E+02 0.  0.
        -12    1    1    2    0    0  0.36499085499E+01 -0.31523203869E+02  0.31121012477E+01  0.31886037521E+02  0.00000000000E+00 0.  1.
         11    1    3    3    0    0  0.14917991750E+02  0.19127002926E+02  0.11620339840E+02  0.26896487076E+02  0.51100000000E-03 0. -1.
        -11    1    3    3    0    0 -0.44772536650E+01  0.21196574999E+01 -0.14110085281E+02  0.14954372444E+02  0.51100000000E-03 0.  1.
         12    1    3    3    0    0 -0.14090646635E+02  0.10276543443E+02 -0.62235580688E+00  0.17451102959E+02  0.00000000000E+00 0. -1.
</event>
<event>
 7    1  0.1139627E-011  0.5930199E+02  0.7816164E-02  0.1266605E+00
        -11   -1    0    0    0    0  0.00000000000E+00  0.00000000000E+00  0.45593999997E+02  0.45594000000E+02  0.51100000000E-03 0.  1.
         11   -1    0    0    0    0 -0.00000000000E+00 -0.00000000000E+00 -0.45593999997E+02  0.45594000000E+02  0.51100000000E-03 0. -1.
    9900012    2    1    2    0    0  0.24516461730E+02 -0.10954597646E+02 -0.17194692689E+02  0.59301991125E+02  0.50000085894E+02 0.  0.
        -12    1    1    2    0    0 -0.24516461730E+02  0.10954597646E+02  0.17194692689E+02  0.31886008875E+02  0.00000000000E+00 0.  1.
         11    1    3    3    0    0 -0.45301437774E+01 -0.19238602351E+01 -0.18847231149E+02  0.19479259819E+02  0.51100000000E-03 0. -1.
        -11    1    3    3    0    0  0.21560548302E+02 -0.58753300731E+01 -0.10905725383E+02  0.24865872053E+02  0.51100000000E-03 0.  1.
        -12    1    3    3    0    0  0.74860572052E+01 -0.31554073375E+01  0.12558263844E+02  0.14956859253E+02  0.00000000000E+00 0.  1.
</event>
<event>
 7    1  0.1139627E-011  0.5930198E+02  0.7816164E-02  0.1266605E+00
        -11   -1    0    0    0    0  0.00000000000E+00  0.00000000000E+00  0.45593999997E+02  0.45594000000E+02  0.51100000000E-03 0.  1.
         11   -1    0    0    0    0 -0.00000000000E+00 -0.00000000000E+00 -0.45593999997E+02  0.45594000000E+02  0.51100000000E-03 0. -1.
    9900012    2    1    2    0    0 -0.11537951554E+02 -0.58741006363E+01 -0.29139126951E+02  0.59301982628E+02  0.50000070398E+02 0.  0.
        -12    1    1    2    0    0  0.11537951554E+02  0.58741006363E+01  0.29139126951E+02  0.31886017372E+02  0.00000000000E+00 0.  1.
         11    1    3    3    0    0 -0.16419992783E+02 -0.20399219489E+02 -0.13634829483E+02  0.29523768290E+02  0.51100000000E-03 0. -1.
        -11    1    3    3    0    0 -0.46499182171E+01  0.14248385115E+02 -0.55212268284E+01  0.15972544060E+02  0.51100000000E-03 0.  1.
        -12    1    3    3    0    0  0.95319594454E+01  0.27673373812E+00 -0.99830706398E+01  0.13805670278E+02  0.00000000000E+00 0.  1.
</event>
<event>
 7    1  0.1139627E-011  0.5930194E+02  0.7816164E-02  0.1266605E+00
        -11   -1    0    0    0    0  0.00000000000E+00  0.00000000000E+00  0.45593999997E+02  0.45594000000E+02  0.51100000000E-03 0. -1.
         11   -1    0    0    0    0 -0.00000000000E+00 -0.00000000000E+00 -0.45593999997E+02  0.45594000000E+02  0.51100000000E-03 0.  1.
    9900012    2    1    2    0    0 -0.43926419603E+01  0.29007522706E+02 -0.12489549258E+02  0.59301944778E+02  0.50000001369E+02 0.  0.
        -12    1    1    2    0    0  0.43926419603E+01 -0.29007522706E+02  0.12489549258E+02  0.31886055222E+02  0.00000000000E+00 0.  1.
         11    1    3    3    0    0  0.69354794450E+01  0.28627074289E+02 -0.12511004144E+02  0.32002116843E+02  0.51100000000E-03 0. -1.
        -11    1    3    3    0    0 -0.12277231758E+02  0.26399485853E+00 -0.10849843613E+02  0.16386556063E+02  0.51100000000E-03 0.  1.
         12    1    3    3    0    0  0.94911035282E+00  0.11645355894E+00  0.10871298499E+02  0.10913271872E+02  0.00000000000E+00 0. -1.
</event>
<event>
 7    1  0.1139627E-011  0.5930196E+02  0.7816164E-02  0.1266605E+00
        -11   -1    0    0    0    0  0.00000000000E+00  0.00000000000E+00  0.45593999997E+02  0.45594000000E+02  0.51100000000E-03 0.  1.
         11   -1    0    0    0    0 -0.00000000000E+00 -0.00000000000E+00 -0.45593999997E+02  0.45594000000E+02  0.51100000000E-03 0. -1.
    9900012    2    1    2    0    0  0.15323284015E+02 -0.27956324516E+02 -0.60061601040E+00  0.59301955199E+02  0.50000020374E+02 0.  0.
        -12    1    1    2    0    0 -0.15323284015E+02  0.27956324516E+02  0.60061601040E+00  0.31886044801E+02  0.00000000000E+00 0.  1.
         11    1    3    3    0    0 -0.12851087530E+02 -0.19128016984E+02 -0.36736572620E+01  0.23335107507E+02  0.51100000000E-03 0. -1.
        -11    1    3    3    0    0  0.20655169248E+02 -0.10259230321E+00  0.95454714586E+01  0.22754396662E+02  0.51100000000E-03 0.  1.
         12    1    3    3    0    0  0.75192022970E+01 -0.87257152282E+01 -0.64724302069E+01  0.13212451030E+02  0.00000000000E+00 0. -1.
</event>
<event>
 7    1  0.1139627E-011  0.5930193E+02  0.7816164E-02  0.1266605E+00
        -11   -1    0    0    0    0  0.00000000000E+00  0.00000000000E+00  0.45593999997E+02  0.45594000000E+02  0.51100000000E-03 0.  1.
         11   -1    0    0    0    0 -0.00000000000E+00 -0.00000000000E+00 -0.45593999997E+02  0.45594000000E+02  0.51100000000E-03 0. -1.
    9900012    2    1    2    0    0  0.65213623117E+01  0.47373749691E+01 -0.30850449846E+02  0.59301934960E+02  0.49999983463E+02 0.  0.
        -12    1    1    2    0    0 -0.65213623117E+01 -0.47373749691E+01  0.30850449846E+02  0.31886065040E+02  0.00000000000E+00 0.  1.
         11    1    3    3    0    0 -0.11263042010E+02  0.15665811186E+02 -0.30098258195E+02  0.35751627964E+02  0.51100000000E-03 0. -1.
        -11    1    3    3    0    0  0.15585464804E+02 -0.44483876422E+01 -0.27097828132E+01  0.16432826565E+02  0.51100000000E-03 0.  1.
         12    1    3    3    0    0  0.21989395181E+01 -0.64800485742E+01  0.19575911620E+01  0.71174804310E+01  0.00000000000E+00 0. -1.
</event>
<event>
 7    1  0.1139627E-011  0.5930197E+02  0.7816164E-02  0.1266605E+00
        -11   -1    0    0    0    0  0.00000000000E+00  0.00000000000E+00  0.45593999997E+02  0.45594000000E+02  0.51100000000E-03 0. -1.
         11   -1    0    0    0    0 -0.00000000000E+00 -0.00000000000E+00 -0.45593999997E+02  0.45594000000E+02  0.51100000000E-03 0.  1.
    9900012    2    1    2    0    0  0.22369802847E+01 -0.29161221354E+02  0.12701891643E+02  0.59301969156E+02  0.50000045828E+02 0.  0.
        -12    1    1    2    0    0 -0.22369802847E+01  0.29161221354E+02 -0.12701891643E+02  0.31886030844E+02  0.00000000000E+00 0.  1.
         11    1    3    3    0    0  0.20131236585E+02 -0.13151864208E+02  0.99586271350E+01  0.26027148773E+02  0.51100000000E-03 0. -1.
        -11    1    3    3    0    0 -0.11531717058E+02 -0.61899352179E+01 -0.96272198920E+01  0.16247435472E+02  0.51100000000E-03 0.  1.
         12    1    3    3    0    0 -0.63625392422E+01 -0.98194219279E+01  0.12370484400E+02  0.17027384911E+02  0.00000000000E+00 0. -1.
</event>
<event>
 7    1  0.1139627E-011  0.5930187E+02  0.7816164E-02  0.1266605E+00
        -11   -1    0    0    0    0  0.00000000000E+00  0.00000000000E+00  0.45593999997E+02  0.45594000000E+02  0.51100000000E-03 0.  1.
         11   -1    0    0    0    0 -0.00000000000E+00 -0.00000000000E+00 -0.45593999997E+02  0.45594000000E+02  0.51100000000E-03 0. -1.
    9900012    2    1    2    0    0 -0.36629313881E+00  0.11035773553E+02 -0.29913254622E+02  0.59301870247E+02  0.49999865441E+02 0.  0.
        -12    1    1    2    0    0  0.36629313881E+00 -0.11035773553E+02  0.29913254622E+02  0.31886129753E+02  0.00000000000E+00 0.  1.
         11    1    3    3    0    0 -0.15630575006E+02  0.77347805760E+01 -0.24693089662E+02  0.30230619955E+02  0.51100000000E-03 0. -1.
        -11    1    3    3    0    0  0.93618676648E+01 -0.99660126681E+01 -0.99013080667E-01  0.13673908678E+02  0.51100000000E-03 0.  1.
         12    1    3    3    0    0  0.59024142026E+01  0.13267005645E+02 -0.51211518791E+01  0.15397341614E+02  0.00000000000E+00 0. -1.
</event>
<event>
 7    1  0.1139627E-011  0.5930195E+02  0.7816164E-02  0.1266605E+00
        -11   -1    0    0    0    0  0.00000000000E+00  0.00000000000E+00  0.45593999997E+02  0.45594000000E+02  0.51100000000E-03 0. -1.
         11   -1    0    0    0    0 -0.00000000000E+00 -0.00000000000E+00 -0.45593999997E+02  0.45594000000E+02  0.51100000000E-03 0.  1.
    9900012    2    1    2    0    0 -0.14948656284E+02 -0.18663741863E+02  0.21093188166E+02  0.59301950197E+02  0.50000011251E+02 0.  0.
        -12    1    1    2    0    0  0.14948656284E+02  0.18663741863E+02 -0.21093188166E+02  0.31886049803E+02  0.00000000000E+00 0.  1.
         11    1    3    3    0    0  0.15890619451E+02 -0.45764836401E+01  0.13254748126E+02  0.21193025673E+02  0.51100000000E-03 0. -1.
        -11    1    3    3    0    0 -0.10966687535E+02 -0.13440255664E+02  0.25377239507E+01  0.17531364777E+02  0.51100000000E-03 0.  1.
         12    1    3    3    0    0 -0.19872588200E+02 -0.64700255868E+00  0.53007160890E+01  0.20577559747E+02  0.00000000000E+00 0. -1.
</event>
<event>
 7    1  0.1139627E-011  0.5930197E+02  0.7816164E-02  0.1266605E+00
        -11   -1    0    0    0    0  0.00000000000E+00  0.00000000000E+00  0.45593999997E+02  0.45594000000E+02  0.51100000000E-03 0.  1.
         11   -1    0    0    0    0 -0.00000000000E+00 -0.00000000000E+00 -0.45593999997E+02  0.45594000000E+02  0.51100000000E-03 0. -1.
    9900012    2    1    2    0    0 -0.29318671674E+02 -0.12290438735E+02  0.24656146713E+01  0.59301974084E+02  0.50000054815E+02 0.  0.
        -12    1    1    2    0    0  0.29318671674E+02  0.12290438735E+02 -0.24656146713E+01  0.31886025916E+02  0.00000000000E+00 0.  1.
         11    1    3    3    0    0 -0.91824995827E+01 -0.17754432903E+02 -0.17348566485E+02  0.26467167314E+02  0.51100000000E-03 0. -1.
        -11    1    3    3    0    0 -0.62314441525E+01 -0.40088715273E+01  0.12407957337E+02  0.14451967087E+02  0.51100000000E-03 0.  1.
         12    1    3    3    0    0 -0.13904727939E+02  0.94728656954E+01  0.74062238194E+01  0.18382839683E+02  0.00000000000E+00 0. -1.
</event>
<event>
 7    1  0.1139627E-011  0.5930196E+02  0.7816164E-02  0.1266605E+00
        -11   -1    0    0    0    0  0.00000000000E+00  0.00000000000E+00  0.45593999997E+02  0.45594000000E+02  0.51100000000E-03 0.  1.
         11   -1    0    0    0    0 -0.00000000000E+00 -0.00000000000E+00 -0.45593999997E+02  0.45594000000E+02  0.51100000000E-03 0. -1.
    9900012    2    1    2    0    0 -0.20161001041E+02  0.23820264282E+02 -0.65458914537E+01  0.59301958409E+02  0.50000026228E+02 0.  0.
        -12    1    1    2    0    0  0.20161001041E+02 -0.23820264282E+02  0.65458914537E+01  0.31886041591E+02  0.00000000000E+00 0.  1.
         11    1    3    3    0    0 -0.20202793364E+02  0.16019366684E+02 -0.19194634938E+02  0.32143537132E+02  0.51100000000E-03 0. -1.
        -11    1    3    3    0    0  0.40929064621E+01  0.11888404132E+02  0.16115440911E+02  0.20439996872E+02  0.51100000000E-03 0.  1.
        -12    1    3    3    0    0 -0.40511141394E+01 -0.40875065344E+01 -0.34666974265E+01  0.67184244051E+01  0.00000000000E+00 0.  1.
</event>
<event>
 7    1  0.1139627E-011  0.5930195E+02  0.7816164E-02  0.1266605E+00
        -11   -1    0    0    0    0  0.00000000000E+00  0.00000000000E+00  0.45593999997E+02  0.45594000000E+02  0.51100000000E-03 0. -1.
         11   -1    0    0    0    0 -0.00000000000E+00 -0.00000000000E+00 -0.45593999997E+02  0.45594000000E+02  0.51100000000E-03 0.  1.
    9900012    2    1    2    0    0  0.29328438644E+02  0.11781881798E+02 -0.42131224286E+01  0.59301945798E+02  0.50000003229E+02 0.  0.
        -12    1    1    2    0    0 -0.29328438644E+02 -0.11781881798E+02  0.42131224286E+01  0.31886054202E+02  0.00000000000E+00 0.  1.
         11    1    3    3    0    0  0.34826038247E+02  0.12831761294E+02  0.13615114804E+02  0.39533256750E+02  0.51100000000E-03 0. -1.
        -11    1    3    3    0    0 -0.54364772584E+01 -0.26476781530E+01 -0.16830844309E+02  0.17884149547E+02  0.51100000000E-03 0.  1.
         12    1    3    3    0    0 -0.61122345185E-01  0.15977986566E+01 -0.99739292267E+00  0.18845395009E+01  0.00000000000E+00 0. -1.
</event>
<event>
 7    1  0.1139627E-011  0.5930193E+02  0.7816164E-02  0.1266605E+00
        -11   -1    0    0    0    0  0.00000000000E+00  0.00000000000E+00  0.45593999997E+02  0.45594000000E+02  0.51100000000E-03 0. -1.
         11   -1    0    0    0    0 -0.00000000000E+00 -0.00000000000E+00 -0.45593999997E+02  0.45594000000E+02  0.51100000000E-03 0.  1.
    9900012    2    1    2    0    0 -0.75143053098E+01  0.30876090565E+02 -0.26313201267E+01  0.59301927830E+02  0.49999970459E+02 0.  0.
        -12    1    1    2    0    0  0.75143053098E+01 -0.30876090565E+02  0.26313201267E+01  0.31886072170E+02  0.00000000000E+00 0.  1.
         11    1    3    3    0    0  0.44899977174E+01  0.40215465708E+02  0.58433359611E+01  0.40885062517E+02  0.51100000000E-03 0. -1.
        -11    1    3    3    0    0 -0.72297697625E+01 -0.88368269534E+01 -0.70090415773E+01  0.13397229024E+02  0.51100000000E-03 0.  1.
         12    1    3    3    0    0 -0.47745332646E+01 -0.50254818999E+00 -0.14656145105E+01  0.50196362887E+01  0.00000000000E+00 0. -1.
</event>
<event>
 7    1  0.1324165E-011  0.5930192E+02  0.7816164E-02  0.1266605E+00
        -11   -1    0    0    0    0  0.00000000000E+00  0.00000000000E+00  0.45593999997E+02  0.45594000000E+02  0.51100000000E-03 0.  1.
         11   -1    0    0    0    0 -0.00000000000E+00 -0.00000000000E+00 -0.45593999997E+02  0.45594000000E+02  0.51100000000E-03 0. -1.
    9900012    2    1    2    0    0  0.54166667917E+01  0.30611886764E+02 -0.70918591505E+01  0.59301915941E+02  0.49999948777E+02 0.  0.
        -12    1    1    2    0    0 -0.54166667917E+01 -0.30611886764E+02  0.70918591505E+01  0.31886084059E+02  0.00000000000E+00 0.  1.
         11    1    3    3    0    0  0.23282208933E+02  0.15092423839E+02 -0.55052832158E+01  0.28286934328E+02  0.51100000000E-03 0. -1.
        -11    1    3    3    0    0 -0.44285429139E+01  0.95135868902E+01  0.82191882759E+01  0.13329493015E+02  0.51100000000E-03 0.  1.
         12    1    3    3    0    0 -0.13436999228E+02  0.60058760355E+01 -0.98057642106E+01  0.17685488598E+02  0.00000000000E+00 0. -1.
</event>
<event>
 7    1  0.1139627E-011  0.5930188E+02  0.7816164E-02  0.1266605E+00
        -11   -1    0    0    0    0  0.00000000000E+00  0.00000000000E+00  0.45593999997E+02  0.45594000000E+02  0.51100000000E-03 0.  1.
         11   -1    0    0    0    0 -0.00000000000E+00 -0.00000000000E+00 -0.45593999997E+02  0.45594000000E+02  0.51100000000E-03 0. -1.
    9900012    2    1    2    0    0 -0.15529710309E+02  0.42767154625E+01 -0.27518406992E+02  0.59301875733E+02  0.49999875447E+02 0.  0.
        -12    1    1    2    0    0  0.15529710309E+02 -0.42767154625E+01  0.27518406992E+02  0.31886124267E+02  0.00000000000E+00 0.  1.
         11    1    3    3    0    0 -0.90112619776E+01  0.19593025934E+02 -0.29521214631E+02  0.36559425887E+02  0.51100000000E-03 0. -1.
        -11    1    3    3    0    0 -0.10833779312E+02 -0.76320705292E+01 -0.13334538442E+01  0.13319060559E+02  0.51100000000E-03 0.  1.
         12    1    3    3    0    0  0.43153309812E+01 -0.76842399420E+01  0.33362614837E+01  0.94233892868E+01  0.00000000000E+00 0. -1.
</event>
<event>
 7    1  0.1139627E-011  0.5930196E+02  0.7816164E-02  0.1266605E+00
        -11   -1    0    0    0    0  0.00000000000E+00  0.00000000000E+00  0.45593999997E+02  0.45594000000E+02  0.51100000000E-03 0. -1.
         11   -1    0    0    0    0 -0.00000000000E+00 -0.00000000000E+00 -0.45593999997E+02  0.45594000000E+02  0.51100000000E-03 0.  1.
    9900012    2    1    2    0    0  0.12347935911E+02 -0.22304115756E+02  0.19151348886E+02  0.59301964419E+02  0.50000037188E+02 0.  0.
        -12    1    1    2    0    0 -0.12347935911E+02  0.22304115756E+02 -0.19151348886E+02  0.31886035581E+02  0.00000000000E+00 0.  1.
         11    1    3    3    0    0  0.21562105987E+01 -0.17986832098E+02 -0.76137646697E+01  0.19650567060E+02  0.51100000000E-03 0. -1.
        -11    1    3    3    0    0 -0.12640362210E+01  0.10444456532E+02  0.10756134366E+02  0.15045892681E+02  0.51100000000E-03 0.  1.
         12    1    3    3    0    0  0.11455761533E+02 -0.14761740190E+02  0.16008979190E+02  0.24605504678E+02  0.00000000000E+00 0. -1.
</event>
<event>
 7    1  0.1139627E-011  0.5930193E+02  0.7816164E-02  0.1266605E+00
        -11   -1    0    0    0    0  0.00000000000E+00  0.00000000000E+00  0.45593999997E+02  0.45594000000E+02  0.51100000000E-03 0. -1.
         11   -1    0    0    0    0 -0.00000000000E+00 -0.00000000000E+00 -0.45593999997E+02  0.45594000000E+02  0.51100000000E-03 0.  1.
    9900012    2    1    2    0    0 -0.20266039440E+02 -0.15766539059E+02  0.18905698610E+02  0.59301928614E+02  0.49999971889E+02 0.  0.
        -12    1    1    2    0    0  0.20266039440E+02  0.15766539059E+02 -0.18905698610E+02  0.31886071386E+02  0.00000000000E+00 0.  1.
         11    1    3    3    0    0 -0.19420924519E+01 -0.16889602718E+02  0.40097568328E+01  0.17467356789E+02  0.51100000000E-03 0. -1.
        -11    1    3    3    0    0 -0.27115518912E+02  0.58181176581E+01  0.15642285357E+02  0.31839958392E+02  0.51100000000E-03 0.  1.
        -12    1    3    3    0    0  0.87915719233E+01 -0.46950539990E+01 -0.74634357976E+00  0.99946134330E+01  0.00000000000E+00 0.  1.
</event>
<event>
 7    1  0.1139627E-011  0.5930198E+02  0.7816164E-02  0.1266605E+00
        -11   -1    0    0    0    0  0.00000000000E+00  0.00000000000E+00  0.45593999997E+02  0.45594000000E+02  0.51100000000E-03 0.  1.
         11   -1    0    0    0    0 -0.00000000000E+00 -0.00000000000E+00 -0.45593999997E+02  0.45594000000E+02  0.51100000000E-03 0. -1.
    9900012    2    1    2    0    0  0.83666374988E+01  0.26300215889E+02 -0.15969227450E+02  0.59301981054E+02  0.50000067527E+02 0.  0.
        -12    1    1    2    0    0 -0.83666374988E+01 -0.26300215889E+02  0.15969227450E+02  0.31886018946E+02  0.00000000000E+00 0.  1.
         11    1    3    3    0    0  0.15313029055E+02  0.12303659184E+02 -0.22704471083E+02  0.30022689680E+02  0.51100000000E-03 0. -1.
        -11    1    3    3    0    0  0.37543423365E+01  0.16605437405E+02  0.66147491034E+01  0.18264461223E+02  0.51100000000E-03 0.  1.
         12    1    3    3    0    0 -0.10700733893E+02 -0.26088806995E+01  0.12049453017E+00  0.11014830152E+02  0.00000000000E+00 0. -1.
</event>
<event>
 7    1  0.1139627E-011  0.5930191E+02  0.7816164E-02  0.1266605E+00
        -11   -1    0    0    0    0  0.00000000000E+00  0.00000000000E+00  0.45593999997E+02  0.45594000000E+02  0.51100000000E-03 0. -1.
         11   -1    0    0    0    0 -0.00000000000E+00 -0.00000000000E+00 -0.45593999997E+02  0.45594000000E+02  0.51100000000E-03 0.  1.
    9900012    2    1    2    0    0  0.64569897806E+01  0.30414971259E+02  0.70682012513E+01  0.59301911142E+02  0.49999940025E+02 0.  0.
        -12    1    1    2    0    0 -0.64569897806E+01 -0.30414971259E+02 -0.70682012513E+01  0.31886088858E+02  0.00000000000E+00 0.  1.
         11    1    3    3    0    0 -0.90292480140E+01  0.26348711045E+02 -0.10669174812E+02  0.29826384039E+02  0.51100000000E-03 0. -1.
        -11    1    3    3    0    0  0.18138885949E+02  0.68762350046E+01  0.12953265047E+02  0.23325712572E+02  0.51100000000E-03 0.  1.
        -12    1    3    3    0    0 -0.26526481549E+01 -0.28099747904E+01  0.47841110163E+01  0.61498145315E+01  0.00000000000E+00 0.  1.
</event>
<event>
 7    1  0.1139627E-011  0.5930192E+02  0.7816164E-02  0.1266605E+00
        -11   -1    0    0    0    0  0.00000000000E+00  0.00000000000E+00  0.45593999997E+02  0.45594000000E+02  0.51100000000E-03 0.  1.
         11   -1    0    0    0    0 -0.00000000000E+00 -0.00000000000E+00 -0.45593999997E+02  0.45594000000E+02  0.51100000000E-03 0. -1.
    9900012    2    1    2    0    0 -0.19230475029E+02  0.69400037225E+01 -0.24469315072E+02  0.59301918372E+02  0.49999953211E+02 0.  0.
        -12    1    1    2    0    0  0.19230475029E+02 -0.69400037225E+01  0.24469315072E+02  0.31886081628E+02  0.00000000000E+00 0.  1.
         11    1    3    3    0    0 -0.76449133256E+01  0.26085227429E+02 -0.11181144466E+02  0.29392206138E+02  0.51100000000E-03 0. -1.
        -11    1    3    3    0    0 -0.92994435438E+01 -0.21552866091E+02 -0.11514553529E+02  0.26145566167E+02  0.51100000000E-03 0.  1.
        -12    1    3    3    0    0 -0.22861181591E+01  0.24076423838E+01 -0.17736170766E+01  0.37641460678E+01  0.00000000000E+00 0.  1.
</event>
<event>
 7    1  0.1139627E-011  0.5930197E+02  0.7816164E-02  0.1266605E+00
        -11   -1    0    0    0    0  0.00000000000E+00  0.00000000000E+00  0.45593999997E+02  0.45594000000E+02  0.51100000000E-03 0.  1.
         11   -1    0    0    0    0 -0.00000000000E+00 -0.00000000000E+00 -0.45593999997E+02  0.45594000000E+02  0.51100000000E-03 0. -1.
    9900012    2    1    2    0    0 -0.21385084255E+01 -0.34434967235E+01 -0.31627329584E+02  0.59301970699E+02  0.50000048641E+02 0.  0.
        -12    1    1    2    0    0  0.21385084255E+01  0.34434967235E+01  0.31627329584E+02  0.31886029301E+02  0.00000000000E+00 0.  1.
         11    1    3    3    0    0  0.14882859664E+02 -0.47848579058E+01  0.26062749174E+01  0.15848881543E+02  0.51100000000E-03 0.  1.
        -11    1    3    3    0    0 -0.17035103384E+02  0.51796393491E+01 -0.35242071295E+02  0.39484515959E+02  0.51100000000E-03 0. -1.
         12    1    3    3    0    0  0.13735294290E-01 -0.38382781668E+01  0.10084667931E+01  0.39685731966E+01  0.00000000000E+00 0. -1.
</event>
<event>
 7    1  0.1139627E-011  0.5930191E+02  0.7816164E-02  0.1266605E+00
        -11   -1    0    0    0    0  0.00000000000E+00  0.00000000000E+00  0.45593999997E+02  0.45594000000E+02  0.51100000000E-03 0. -1.
         11   -1    0    0    0    0 -0.00000000000E+00 -0.00000000000E+00 -0.45593999997E+02  0.45594000000E+02  0.51100000000E-03 0.  1.
    9900012    2    1    2    0    0 -0.13597569724E+02 -0.95431197909E+01  0.27216863173E+02  0.59301910890E+02  0.49999939565E+02 0.  0.
        -12    1    1    2    0    0  0.13597569724E+02  0.95431197909E+01 -0.27216863173E+02  0.31886089110E+02  0.00000000000E+00 0.  1.
         11    1    3    3    0    0 -0.15678928947E+02 -0.27504826571E+02  0.11800698837E+02  0.33787583384E+02  0.51100000000E-03 0. -1.
        -11    1    3    3    0    0  0.28903663678E+01  0.99909897378E+00  0.93917320666E+00  0.31991347382E+01  0.51100000000E-03 0.  1.
         12    1    3    3    0    0 -0.80900714548E+00  0.16962607806E+02  0.14476991129E+02  0.22315192768E+02  0.00000000000E+00 0. -1.
</event>
<event>
 7    1  0.1139627E-011  0.5930204E+02  0.7816164E-02  0.1266604E+00
        -11   -1    0    0    0    0  0.00000000000E+00  0.00000000000E+00  0.45593999997E+02  0.45594000000E+02  0.51100000000E-03 0.  1.
         11   -1    0    0    0    0 -0.00000000000E+00 -0.00000000000E+00 -0.45593999997E+02  0.45594000000E+02  0.51100000000E-03 0. -1.
    9900012    2    1    2    0    0 -0.15575624963E+02 -0.16419102693E+02 -0.22461686776E+02  0.59302040722E+02  0.50000176347E+02 0.  0.
        -12    1    1    2    0    0  0.15575624963E+02  0.16419102693E+02  0.22461686776E+02  0.31885959278E+02  0.00000000000E+00 0.  1.
         11    1    3    3    0    0 -0.18788794052E+02  0.14918998281E+01 -0.14058764336E+02  0.23513685419E+02  0.51100000000E-03 0. -1.
        -11    1    3    3    0    0  0.79697114493E+01 -0.24105683235E+02 -0.10840751372E+02  0.27606560007E+02  0.51100000000E-03 0.  1.
        -12    1    3    3    0    0 -0.47565423604E+01  0.61946807144E+01  0.24378289316E+01  0.81817952968E+01  0.00000000000E+00 0.  1.
</event>
<event>
 7    1  0.1139627E-011  0.5930197E+02  0.7816164E-02  0.1266605E+00
        -11   -1    0    0    0    0  0.00000000000E+00  0.00000000000E+00  0.45593999997E+02  0.45594000000E+02  0.51100000000E-03 0.  1.
         11   -1    0    0    0    0 -0.00000000000E+00 -0.00000000000E+00 -0.45593999997E+02  0.45594000000E+02  0.51100000000E-03 0. -1.
    9900012    2    1    2    0    0 -0.38740078995E+01  0.31563775192E+02 -0.23321570449E+01  0.59301971742E+02  0.50000050544E+02 0.  0.
        -12    1    1    2    0    0  0.38740078995E+01 -0.31563775192E+02  0.23321570449E+01  0.31886028258E+02  0.00000000000E+00 0.  1.
         11    1    3    3    0    0  0.20779318063E+02  0.21916688903E+02 -0.24788298253E+01  0.30302902653E+02  0.51100000000E-03 0. -1.
        -11    1    3    3    0    0 -0.15594319253E+02  0.17570360665E+00 -0.19832895172E+01  0.15720912896E+02  0.51100000000E-03 0.  1.
         12    1    3    3    0    0 -0.90590067096E+01  0.94713826827E+01  0.21299622976E+01  0.13278156193E+02  0.00000000000E+00 0. -1.
</event>
<event>
 7    1  0.1139627E-011  0.5930197E+02  0.7816164E-02  0.1266605E+00
        -11   -1    0    0    0    0  0.00000000000E+00  0.00000000000E+00  0.45593999997E+02  0.45594000000E+02  0.51100000000E-03 0.  1.
         11   -1    0    0    0    0 -0.00000000000E+00 -0.00000000000E+00 -0.45593999997E+02  0.45594000000E+02  0.51100000000E-03 0. -1.
    9900012    2    1    2    0    0 -0.22459449226E+02  0.16130915470E+02 -0.15877198395E+02  0.59301972930E+02  0.50000052711E+02 0.  0.
        -12    1    1    2    0    0  0.22459449226E+02 -0.16130915470E+02  0.15877198395E+02  0.31886027070E+02  0.00000000000E+00 0.  1.
         11    1    3    3    0    0 -0.32358532582E+02  0.26103012523E+02 -0.11085049471E+02  0.43026970794E+02  0.51100000000E-03 0. -1.
        -11    1    3    3    0    0  0.92793089084E+01 -0.69570471482E+01 -0.13797685522E+01  0.11679462332E+02  0.51100000000E-03 0.  1.
         12    1    3    3    0    0  0.61977444733E+00 -0.30150499049E+01 -0.34123803713E+01  0.45955398043E+01  0.00000000000E+00 0. -1.
</event>
<event>
 7    1  0.1139627E-011  0.5930194E+02  0.7816164E-02  0.1266605E+00
        -11   -1    0    0    0    0  0.00000000000E+00  0.00000000000E+00  0.45593999997E+02  0.45594000000E+02  0.51100000000E-03 0.  1.
         11   -1    0    0    0    0 -0.00000000000E+00 -0.00000000000E+00 -0.45593999997E+02  0.45594000000E+02  0.51100000000E-03 0. -1.
    9900012    2    1    2    0    0  0.29642703821E+02 -0.83473033787E+01 -0.82676294019E+01  0.59301936282E+02  0.49999985874E+02 0.  0.
        -12    1    1    2    0    0 -0.29642703821E+02  0.83473033787E+01  0.82676294019E+01  0.31886063718E+02  0.00000000000E+00 0.  1.
         11    1    3    3    0    0  0.72682018844E+01 -0.88437492356E+01 -0.88250874432E+01  0.14454093808E+02  0.51100000000E-03 0. -1.
        -11    1    3    3    0    0 -0.95461147956E+01  0.22289286340E+01  0.72432761192E+01  0.12188579891E+02  0.51100000000E-03 0.  1.
        -12    1    3    3    0    0  0.31920616732E+02 -0.17324827771E+01 -0.66858180780E+01  0.32659262583E+02  0.00000000000E+00 0.  1.
</event>
<event>
 7    1  0.1139627E-011  0.5930212E+02  0.7816164E-02  0.1266604E+00
        -11   -1    0    0    0    0  0.00000000000E+00  0.00000000000E+00  0.45593999997E+02  0.45594000000E+02  0.51100000000E-03 0.  1.
         11   -1    0    0    0    0 -0.00000000000E+00 -0.00000000000E+00 -0.45593999997E+02  0.45594000000E+02  0.51100000000E-03 0. -1.
    9900012    2    1    2    0    0 -0.92922305459E+01  0.30223873127E+02  0.41086614503E+01  0.59302122966E+02  0.50000326340E+02 0.  0.
        -12    1    1    2    0    0  0.92922305459E+01 -0.30223873127E+02 -0.41086614503E+01  0.31885877034E+02  0.00000000000E+00 0.  1.
         11    1    3    3    0    0 -0.78389929904E+01  0.24389816696E+02 -0.50591233777E+01  0.26113362464E+02  0.51100000000E-03 0. -1.
        -11    1    3    3    0    0 -0.11201967106E+02  0.39492987665E+01  0.16863293141E+02  0.20626480156E+02  0.51100000000E-03 0.  1.
         12    1    3    3    0    0  0.97487295506E+01  0.18847576640E+01 -0.76955083132E+01  0.12562280346E+02  0.00000000000E+00 0. -1.
</event>
<event>
 7    1  0.1139627E-011  0.5930195E+02  0.7816164E-02  0.1266605E+00
        -11   -1    0    0    0    0  0.00000000000E+00  0.00000000000E+00  0.45593999997E+02  0.45594000000E+02  0.51100000000E-03 0.  1.
         11   -1    0    0    0    0 -0.00000000000E+00 -0.00000000000E+00 -0.45593999997E+02  0.45594000000E+02  0.51100000000E-03 0. -1.
    9900012    2    1    2    0    0 -0.17121586207E+02 -0.40980784483E+01 -0.26585283242E+02  0.59301949033E+02  0.50000009129E+02 0.  0.
        -12    1    1    2    0    0  0.17121586207E+02  0.40980784483E+01  0.26585283242E+02  0.31886050967E+02  0.00000000000E+00 0.  1.
         11    1    3    3    0    0 -0.11748663998E+02 -0.12280695322E+02 -0.32044253312E+02  0.36272313876E+02  0.51100000000E-03 0. -1.
        -11    1    3    3    0    0 -0.27510604880E+00  0.11655450631E+02 -0.34818094712E+01  0.12167506327E+02  0.51100000000E-03 0.  1.
         12    1    3    3    0    0 -0.50978161604E+01 -0.34728337578E+01  0.89407795419E+01  0.10862128831E+02  0.00000000000E+00 0. -1.
</event>
<event>
 7    1  0.1139627E-011  0.5930173E+02  0.7816164E-02  0.1266605E+00
        -11   -1    0    0    0    0  0.00000000000E+00  0.00000000000E+00  0.45593999997E+02  0.45594000000E+02  0.51100000000E-03 0.  1.
         11   -1    0    0    0    0 -0.00000000000E+00 -0.00000000000E+00 -0.45593999997E+02  0.45594000000E+02  0.51100000000E-03 0. -1.
    9900012    2    1    2    0    0 -0.15367037902E+02  0.14049136565E+02 -0.24149739059E+02  0.59301733540E+02  0.49999616120E+02 0.  0.
        -12    1    1    2    0    0  0.15367037902E+02 -0.14049136565E+02  0.24149739059E+02  0.31886266460E+02  0.00000000000E+00 0.  1.
         11    1    3    3    0    0 -0.44079043235E+01  0.14872305417E+02  0.75623216561E+01  0.17256992729E+02  0.51100000000E-03 0. -1.
        -11    1    3    3    0    0  0.65076071282E+01 -0.37253154730E+01 -0.25349096595E+01  0.79153454221E+01  0.51100000000E-03 0.  1.
         12    1    3    3    0    0 -0.17466740707E+02  0.29021466212E+01 -0.29177151055E+02  0.34129395389E+02  0.00000000000E+00 0. -1.
</event>
<event>
 7    1  0.1139627E-011  0.5930195E+02  0.7816164E-02  0.1266605E+00
        -11   -1    0    0    0    0  0.00000000000E+00  0.00000000000E+00  0.45593999997E+02  0.45594000000E+02  0.51100000000E-03 0. -1.
         11   -1    0    0    0    0 -0.00000000000E+00 -0.00000000000E+00 -0.45593999997E+02  0.45594000000E+02  0.51100000000E-03 0.  1.
    9900012    2    1    2    0    0 -0.26290062736E+02  0.42243920474E+01  0.17541589399E+02  0.59301949046E+02  0.50000009151E+02 0.  0.
        -12    1    1    2    0    0  0.26290062736E+02 -0.42243920474E+01 -0.17541589399E+02  0.31886050954E+02  0.00000000000E+00 0.  1.
         11    1    3    3    0    0 -0.10709166628E+02 -0.19844597823E+02 -0.15832901987E+01  0.22605333900E+02  0.51100000000E-03 0. -1.
        -11    1    3    3    0    0 -0.12937496291E+02  0.24638798519E+02  0.19479841138E+02  0.33969301049E+02  0.51100000000E-03 0.  1.
        -12    1    3    3    0    0 -0.26433998167E+01 -0.56980864828E+00 -0.35496154044E+00  0.27273140966E+01  0.00000000000E+00 0.  1.
</event>
<event>
 7    1  0.1139627E-011  0.5930197E+02  0.7816164E-02  0.1266605E+00
        -11   -1    0    0    0    0  0.00000000000E+00  0.00000000000E+00  0.45593999997E+02  0.45594000000E+02  0.51100000000E-03 0. -1.
         11   -1    0    0    0    0 -0.00000000000E+00 -0.00000000000E+00 -0.45593999997E+02  0.45594000000E+02  0.51100000000E-03 0.  1.
    9900012    2    1    2    0    0 -0.16806629695E+02 -0.20594564179E+02 -0.17610229565E+02  0.59301967623E+02  0.50000043031E+02 0.  0.
        -12    1    1    2    0    0  0.16806629695E+02  0.20594564179E+02  0.17610229565E+02  0.31886032377E+02  0.00000000000E+00 0.  1.
         11    1    3    3    0    0  0.17362673135E+01 -0.28003214817E+02 -0.14990134554E+02  0.31810356780E+02  0.51100000000E-03 0. -1.
        -11    1    3    3    0    0 -0.45965989998E+01  0.95517605917E+01 -0.70170973143E+01  0.12712376164E+02  0.51100000000E-03 0.  1.
         12    1    3    3    0    0 -0.13946298009E+02 -0.21431099535E+01  0.43970023025E+01  0.14779234678E+02  0.00000000000E+00 0. -1.
</event>
<event>
 7    1  0.1139627E-011  0.5930198E+02  0.7816164E-02  0.1266605E+00
        -11   -1    0    0    0    0  0.00000000000E+00  0.00000000000E+00  0.45593999997E+02  0.45594000000E+02  0.51100000000E-03 0. -1.
         11   -1    0    0    0    0 -0.00000000000E+00 -0.00000000000E+00 -0.45593999997E+02  0.45594000000E+02  0.51100000000E-03 0.  1.
    9900012    2    1    2    0    0 -0.16195801683E+02 -0.14746112236E+02  0.23172542183E+02  0.59301975954E+02  0.50000058227E+02 0.  0.
        -12    1    1    2    0    0  0.16195801683E+02  0.14746112236E+02 -0.23172542183E+02  0.31886024046E+02  0.00000000000E+00 0.  1.
         11    1    3    3    0    0 -0.71512039024E+01 -0.28031755437E+02  0.25845156999E+02  0.38792926813E+02  0.51100000000E-03 0. -1.
        -11    1    3    3    0    0 -0.12130151599E+02  0.10438356837E+02 -0.11553513358E+01  0.16044771992E+02  0.51100000000E-03 0.  1.
         12    1    3    3    0    0  0.30855538186E+01  0.28472863637E+01 -0.15172634806E+01  0.44642771502E+01  0.00000000000E+00 0. -1.
</event>
<event>
 7    1  0.1139627E-011  0.5930189E+02  0.7816164E-02  0.1266605E+00
        -11   -1    0    0    0    0  0.00000000000E+00  0.00000000000E+00  0.45593999997E+02  0.45594000000E+02  0.51100000000E-03 0.  1.
         11   -1    0    0    0    0 -0.00000000000E+00 -0.00000000000E+00 -0.45593999997E+02  0.45594000000E+02  0.51100000000E-03 0. -1.
    9900012    2    1    2    0    0  0.19482313596E+02  0.21702559924E+02 -0.12890406837E+02  0.59301886428E+02  0.49999894952E+02 0.  0.
        -12    1    1    2    0    0 -0.19482313596E+02 -0.21702559924E+02  0.12890406837E+02  0.31886113572E+02  0.00000000000E+00 0.  1.
         11    1    3    3    0    0  0.29670656096E+01  0.39903893911E+01 -0.23746890904E+02  0.24261935490E+02  0.51100000000E-03 0. -1.
        -11    1    3    3    0    0  0.10707030663E+02 -0.35124164153E+01  0.28457403922E+01  0.11622212067E+02  0.51100000000E-03 0.  1.
         12    1    3    3    0    0  0.58082173230E+01  0.21224586948E+02  0.80107436749E+01  0.23417738871E+02  0.00000000000E+00 0. -1.
</event>
<event>
 7    1  0.1139627E-011  0.5930197E+02  0.7816164E-02  0.1266605E+00
        -11   -1    0    0    0    0  0.00000000000E+00  0.00000000000E+00  0.45593999997E+02  0.45594000000E+02  0.51100000000E-03 0. -1.
         11   -1    0    0    0    0 -0.00000000000E+00 -0.00000000000E+00 -0.45593999997E+02  0.45594000000E+02  0.51100000000E-03 0.  1.
    9900012    2    1    2    0    0  0.66254244529E+01 -0.30618398618E+02 -0.59444364760E+01  0.59301970016E+02  0.50000047396E+02 0.  0.
        -12    1    1    2    0    0 -0.66254244529E+01  0.30618398618E+02  0.59444364760E+01  0.31886029984E+02  0.00000000000E+00 0.  1.
         11    1    3    3    0    0  0.15030929890E+02 -0.29987130440E+02 -0.18021866098E+02  0.38078136815E+02  0.51100000000E-03 0. -1.
        -11    1    3    3    0    0 -0.11266917881E+00  0.22633989246E+01  0.12230797318E+02  0.12438973926E+02  0.51100000000E-03 0.  1.
         12    1    3    3    0    0 -0.82928362579E+01 -0.28946671025E+01 -0.15336769643E+00  0.87848592752E+01  0.00000000000E+00 0. -1.
</event>
<event>
 7    1  0.1139627E-011  0.5930198E+02  0.7816164E-02  0.1266605E+00
        -11   -1    0    0    0    0  0.00000000000E+00  0.00000000000E+00  0.45593999997E+02  0.45594000000E+02  0.51100000000E-03 0.  1.
         11   -1    0    0    0    0 -0.00000000000E+00 -0.00000000000E+00 -0.45593999997E+02  0.45594000000E+02  0.51100000000E-03 0. -1.
    9900012    2    1    2    0    0 -0.24373975680E+02  0.21484625343E+01 -0.20445335644E+02  0.59301979061E+02  0.50000063892E+02 0.  0.
        -12    1    1    2    0    0  0.24373975680E+02 -0.21484625343E+01  0.20445335644E+02  0.31886020939E+02  0.00000000000E+00 0.  1.
         11    1    3    3    0    0 -0.15709613530E+02  0.14698959818E+02 -0.22005613524E+02  0.30774963913E+02  0.51100000000E-03 0. -1.
        -11    1    3    3    0    0  0.29838461764E+01 -0.13145794872E+02  0.75129054848E+01  0.15432401300E+02  0.51100000000E-03 0.  1.
        -12    1    3    3    0    0 -0.11648208326E+02  0.59529758753E+00 -0.59526276049E+01  0.13094613848E+02  0.00000000000E+00 0.  1.
</event>
<event>
 7    1  0.1139627E-011  0.5930187E+02  0.7816164E-02  0.1266605E+00
        -11   -1    0    0    0    0  0.00000000000E+00  0.00000000000E+00  0.45593999997E+02  0.45594000000E+02  0.51100000000E-03 0. -1.
         11   -1    0    0    0    0 -0.00000000000E+00 -0.00000000000E+00 -0.45593999997E+02  0.45594000000E+02  0.51100000000E-03 0.  1.
    9900012    2    1    2    0    0  0.79839832902E+00  0.31853293255E+02 -0.12064823521E+01  0.59301869304E+02  0.49999863722E+02 0.  0.
        -12    1    1    2    0    0 -0.79839832902E+00 -0.31853293255E+02  0.12064823521E+01  0.31886130696E+02  0.00000000000E+00 0.  1.
         11    1    3    3    0    0  0.23215931616E+02  0.60803093323E+01 -0.40209665031E+01  0.24333471069E+02  0.51100000000E-03 0. -1.
        -11    1    3    3    0    0 -0.30131856660E+01  0.54637697844E+01 -0.18201030162E+01  0.64996033237E+01  0.51100000000E-03 0.  1.
         12    1    3    3    0    0 -0.19404347621E+02  0.20309214138E+02  0.46345871671E+01  0.28468794912E+02  0.00000000000E+00 0. -1.
</event>
<event>
 7    1  0.1139627E-011  0.5930194E+02  0.7816164E-02  0.1266605E+00
        -11   -1    0    0    0    0  0.00000000000E+00  0.00000000000E+00  0.45593999997E+02  0.45594000000E+02  0.51100000000E-03 0.  1.
         11   -1    0    0    0    0 -0.00000000000E+00 -0.00000000000E+00 -0.45593999997E+02  0.45594000000E+02  0.51100000000E-03 0. -1.
    9900012    2    1    2    0    0 -0.44603001866E+00  0.37401639883E+01 -0.31662806063E+02  0.59301936317E+02  0.49999985937E+02 0.  0.
        -12    1    1    2    0    0  0.44603001866E+00 -0.37401639883E+01  0.31662806063E+02  0.31886063683E+02  0.00000000000E+00 0.  1.
         11    1    3    3    0    0 -0.79627493126E+01  0.20553672803E+02 -0.14843750551E+02  0.26574344263E+02  0.51100000000E-03 0. -1.
        -11    1    3    3    0    0  0.10017703307E+02 -0.19205117114E+01 -0.10360300007E+00  0.10200660695E+02  0.51100000000E-03 0.  1.
         12    1    3    3    0    0 -0.25009840127E+01 -0.14892997104E+02 -0.16715452512E+02  0.22526931359E+02  0.00000000000E+00 0. -1.
</event>
<event>
 7    1  0.1139627E-011  0.5930196E+02  0.7816164E-02  0.1266605E+00
        -11   -1    0    0    0    0  0.00000000000E+00  0.00000000000E+00  0.45593999997E+02  0.45594000000E+02  0.51100000000E-03 0. -1.
         11   -1    0    0    0    0 -0.00000000000E+00 -0.00000000000E+00 -0.45593999997E+02  0.45594000000E+02  0.51100000000E-03 0.  1.
    9900012    2    1    2    0    0  0.35243801798E+01  0.30434048336E+02 -0.88355562119E+01  0.59301959052E+02  0.50000027400E+02 0.  0.
        -12    1    1    2    0    0 -0.35243801798E+01 -0.30434048336E+02  0.88355562119E+01  0.31886040948E+02  0.00000000000E+00 0.  1.
         11    1    3    3    0    0 -0.21311498277E+02  0.21459105409E+02  0.25099735778E+01  0.30347539132E+02  0.51100000000E-03 0. -1.
        -11    1    3    3    0    0  0.10971335202E+02  0.22465690041E+01 -0.41086977370E+01  0.11928900442E+02  0.51100000000E-03 0.  1.
         12    1    3    3    0    0  0.13864543255E+02  0.67283739231E+01 -0.72368320526E+01  0.17025519477E+02  0.00000000000E+00 0. -1.
</event>
<event>
 7    1  0.1139627E-011  0.5930184E+02  0.7816164E-02  0.1266605E+00
        -11   -1    0    0    0    0  0.00000000000E+00  0.00000000000E+00  0.45593999997E+02  0.45594000000E+02  0.51100000000E-03 0.  1.
         11   -1    0    0    0    0 -0.00000000000E+00 -0.00000000000E+00 -0.45593999997E+02  0.45594000000E+02  0.51100000000E-03 0. -1.
    9900012    2    1    2    0    0 -0.25245271555E+02 -0.19325650459E+02  0.24336293126E+01  0.59301842295E+02  0.49999814463E+02 0.  0.
        -12    1    1    2    0    0  0.25245271555E+02  0.19325650459E+02 -0.24336293126E+01  0.31886157705E+02  0.00000000000E+00 0.  1.
         11    1    3    3    0    0  0.42582578122E+01 -0.14031259832E+02 -0.15105633835E+02  0.21052058947E+02  0.51100000000E-03 0. -1.
        -11    1    3    3    0    0 -0.14870500673E+02  0.50469887783E+01  0.11010434651E+02  0.19178987394E+02  0.51100000000E-03 0.  1.
         12    1    3    3    0    0 -0.14633028694E+02 -0.10341379406E+02  0.65288284966E+01  0.19070795954E+02  0.00000000000E+00 0. -1.
</event>
<event>
 7    1  0.1139627E-011  0.5930194E+02  0.7816164E-02  0.1266605E+00
        -11   -1    0    0    0    0  0.00000000000E+00  0.00000000000E+00  0.45593999997E+02  0.45594000000E+02  0.51100000000E-03 0.  1.
         11   -1    0    0    0    0 -0.00000000000E+00 -0.00000000000E+00 -0.45593999997E+02  0.45594000000E+02  0.51100000000E-03 0. -1.
    9900012    2    1    2    0    0 -0.11870564540E+02  0.11149243523E+00 -0.29593884749E+02  0.59301941172E+02  0.49999994792E+02 0.  0.
        -12    1    1    2    0    0  0.11870564540E+02 -0.11149243523E+00  0.29593884749E+02  0.31886058828E+02  0.00000000000E+00 0.  1.
         11    1    3    3    0    0 -0.10488883872E+02 -0.54173538853E+01  0.97312568314E+01  0.15299077350E+02  0.51100000000E-03 0. -1.
        -11    1    3    3    0    0  0.39041704323E+01  0.67014002143E+01 -0.49429256385E+01  0.91969465436E+01  0.51100000000E-03 0.  1.
         12    1    3    3    0    0 -0.52858511002E+01 -0.11725538938E+01 -0.34382215942E+02  0.34805917278E+02  0.00000000000E+00 0. -1.
</event>
<event>
 7    1  0.1139627E-011  0.5930197E+02  0.7816164E-02  0.1266605E+00
        -11   -1    0    0    0    0  0.00000000000E+00  0.00000000000E+00  0.45593999997E+02  0.45594000000E+02  0.51100000000E-03 0.  1.
         11   -1    0    0    0    0 -0.00000000000E+00 -0.00000000000E+00 -0.45593999997E+02  0.45594000000E+02  0.51100000000E-03 0. -1.
    9900012    2    1    2    0    0  0.17289337662E+02 -0.17224338273E+02 -0.20521211682E+02  0.59301966151E+02  0.50000040348E+02 0.  0.
        -12    1    1    2    0    0 -0.17289337662E+02  0.17224338273E+02  0.20521211682E+02  0.31886033849E+02  0.00000000000E+00 0.  1.
         11    1    3    3    0    0 -0.62785229667E+01 -0.12368216056E+02 -0.27872130964E+02  0.31132752911E+02  0.51100000000E-03 0. -1.
        -11    1    3    3    0    0  0.10955172094E+02 -0.87121286191E+01  0.41080427785E+01  0.14587425969E+02  0.51100000000E-03 0.  1.
        -12    1    3    3    0    0  0.12612688535E+02  0.38560064023E+01  0.32428765042E+01  0.13581787271E+02  0.00000000000E+00 0.  1.
</event>
<event>
 7    1  0.1139627E-011  0.5930198E+02  0.7816164E-02  0.1266605E+00
        -11   -1    0    0    0    0  0.00000000000E+00  0.00000000000E+00  0.45593999997E+02  0.45594000000E+02  0.51100000000E-03 0. -1.
         11   -1    0    0    0    0 -0.00000000000E+00 -0.00000000000E+00 -0.45593999997E+02  0.45594000000E+02  0.51100000000E-03 0.  1.
    9900012    2    1    2    0    0  0.30705053903E+02 -0.85837742688E+01 -0.48656281572E+00  0.59301980191E+02  0.50000065954E+02 0.  0.
        -12    1    1    2    0    0 -0.30705053903E+02  0.85837742688E+01  0.48656281572E+00  0.31886019809E+02  0.00000000000E+00 0.  1.
         11    1    3    3    0    0  0.10023402155E+02 -0.28751725756E+01  0.39375752211E+01  0.11146286690E+02  0.51100000000E-03 0. -1.
        -11    1    3    3    0    0  0.12734482752E+02 -0.98510215857E+01 -0.22683017066E+02  0.27815983547E+02  0.51100000000E-03 0.  1.
        -12    1    3    3    0    0  0.79471689960E+01  0.41424198925E+01  0.18258879029E+02  0.20339709954E+02  0.00000000000E+00 0.  1.
</event>
<event>
 7    1  0.1139627E-011  0.5930192E+02  0.7816164E-02  0.1266605E+00
        -11   -1    0    0    0    0  0.00000000000E+00  0.00000000000E+00  0.45593999997E+02  0.45594000000E+02  0.51100000000E-03 0.  1.
         11   -1    0    0    0    0 -0.00000000000E+00 -0.00000000000E+00 -0.45593999997E+02  0.45594000000E+02  0.51100000000E-03 0. -1.
    9900012    2    1    2    0    0  0.69855847470E+01 -0.21567553212E+02 -0.22422404702E+02  0.59301921871E+02  0.49999959592E+02 0.  0.
        -12    1    1    2    0    0 -0.69855847470E+01  0.21567553212E+02  0.22422404702E+02  0.31886078129E+02  0.00000000000E+00 0.  1.
         11    1    3    3    0    0 -0.78830234375E+01  0.94027507565E+01 -0.13331980222E+02  0.18118925940E+02  0.51100000000E-03 0.  1.
        -11    1    3    3    0    0  0.13150054563E+02 -0.28426890431E+02 -0.14844923854E+02  0.34660983816E+02  0.51100000000E-03 0. -1.
        -12    1    3    3    0    0  0.17185536214E+01 -0.25434135375E+01  0.57544993748E+01  0.65220121149E+01  0.00000000000E+00 0.  1.
</event>
<event>
 7    1  0.1139627E-011  0.5930196E+02  0.7816164E-02  0.1266605E+00
        -11   -1    0    0    0    0  0.00000000000E+00  0.00000000000E+00  0.45593999997E+02  0.45594000000E+02  0.51100000000E-03 0.  1.
         11   -1    0    0    0    0 -0.00000000000E+00 -0.00000000000E+00 -0.45593999997E+02  0.45594000000E+02  0.51100000000E-03 0. -1.
    9900012    2    1    2    0    0  0.21861270495E+01 -0.12769479132E+02 -0.29135561616E+02  0.59301957607E+02  0.50000024766E+02 0.  0.
        -12    1    1    2    0    0 -0.21861270495E+01  0.12769479132E+02  0.29135561616E+02  0.31886042393E+02  0.00000000000E+00 0.  1.
         11    1    3    3    0    0 -0.58770330482E+01  0.20270049272E+01  0.33200316953E+01  0.70477568873E+01  0.51100000000E-03 0. -1.
        -11    1    3    3    0    0 -0.94572604897E+01 -0.16943120449E+02 -0.27970256353E+02  0.34041802937E+02  0.51100000000E-03 0.  1.
        -12    1    3    3    0    0  0.17520420587E+02  0.21466363900E+01 -0.44853369590E+01  0.18212397783E+02  0.00000000000E+00 0.  1.
</event>
<event>
 7    1  0.1139627E-011  0.5930193E+02  0.7816164E-02  0.1266605E+00
        -11   -1    0    0    0    0  0.00000000000E+00  0.00000000000E+00  0.45593999997E+02  0.45594000000E+02  0.51100000000E-03 0. -1.
         11   -1    0    0    0    0 -0.00000000000E+00 -0.00000000000E+00 -0.45593999997E+02  0.45594000000E+02  0.51100000000E-03 0.  1.
    9900012    2    1    2    0    0 -0.20287241132E+02  0.31516066275E+01  0.24397062462E+02  0.59301930411E+02  0.49999975166E+02 0.  0.
        -12    1    1    2    0    0  0.20287241132E+02 -0.31516066275E+01 -0.24397062462E+02  0.31886069589E+02  0.00000000000E+00 0.  1.
         11    1    3    3    0    0  0.79188067619E+01  0.14479992318E+01 -0.17600930402E+01  0.82402748789E+01  0.51100000000E-03 0.  1.
        -11    1    3    3    0    0 -0.10327532324E+02  0.55903782948E+01  0.30131272945E+02  0.32338890874E+02  0.51100000000E-03 0. -1.
        -12    1    3    3    0    0 -0.17878515570E+02 -0.38867708991E+01 -0.39741174430E+01  0.18722764658E+02  0.00000000000E+00 0.  1.
</event>
<event>
 7    1  0.1139627E-011  0.5930193E+02  0.7816164E-02  0.1266605E+00
        -11   -1    0    0    0    0  0.00000000000E+00  0.00000000000E+00  0.45593999997E+02  0.45594000000E+02  0.51100000000E-03 0. -1.
         11   -1    0    0    0    0 -0.00000000000E+00 -0.00000000000E+00 -0.45593999997E+02  0.45594000000E+02  0.51100000000E-03 0.  1.
    9900012    2    1    2    0    0 -0.11583719157E+00  0.31832517822E+02  0.18435706542E+01  0.59301931539E+02  0.49999977224E+02 0.  0.
        -12    1    1    2    0    0  0.11583719157E+00 -0.31832517822E+02 -0.18435706542E+01  0.31886068461E+02  0.00000000000E+00 0.  1.
         11    1    3    3    0    0  0.18250032983E+02  0.73824526347E+01 -0.12170510976E+02  0.23144883851E+02  0.51100000000E-03 0.  1.
        -11    1    3    3    0    0 -0.13019983758E+02  0.13782661089E+02  0.15011875124E+02  0.24183426530E+02  0.51100000000E-03 0. -1.
         12    1    3    3    0    0 -0.53458864173E+01  0.10667404098E+02 -0.99779349339E+00  0.11973621158E+02  0.00000000000E+00 0. -1.
</event>
<event>
 7    1  0.1139627E-011  0.5930193E+02  0.7816164E-02  0.1266605E+00
        -11   -1    0    0    0    0  0.00000000000E+00  0.00000000000E+00  0.45593999997E+02  0.45594000000E+02  0.51100000000E-03 0.  1.
         11   -1    0    0    0    0 -0.00000000000E+00 -0.00000000000E+00 -0.45593999997E+02  0.45594000000E+02  0.51100000000E-03 0. -1.
    9900012    2    1    2    0    0  0.11085624787E+02 -0.84041127548E+01 -0.28691484065E+02  0.59301930220E+02  0.49999974819E+02 0.  0.
        -12    1    1    2    0    0 -0.11085624787E+02  0.84041127548E+01  0.28691484065E+02  0.31886069780E+02  0.00000000000E+00 0.  1.
         11    1    3    3    0    0  0.14351177074E+02  0.40325429996E+01  0.50153169966E+01  0.15728035201E+02  0.51100000000E-03 0. -1.
        -11    1    3    3    0    0 -0.64952846510E+01 -0.23623204626E+00 -0.29594985506E+02  0.30300292006E+02  0.51100000000E-03 0.  1.
        -12    1    3    3    0    0  0.32297323643E+01 -0.12200423708E+02 -0.41118155563E+01  0.13273603014E+02  0.00000000000E+00 0.  1.
</event>
<event>
 7    1  0.1139627E-011  0.5930195E+02  0.7816164E-02  0.1266605E+00
        -11   -1    0    0    0    0  0.00000000000E+00  0.00000000000E+00  0.45593999997E+02  0.45594000000E+02  0.51100000000E-03 0. -1.
         11   -1    0    0    0    0 -0.00000000000E+00 -0.00000000000E+00 -0.45593999997E+02  0.45594000000E+02  0.51100000000E-03 0.  1.
    9900012    2    1    2    0    0  0.11555250562E+02 -0.29152797354E+02 -0.57715659651E+01  0.59301946892E+02  0.50000005224E+02 0.  0.
        -12    1    1    2    0    0 -0.11555250562E+02  0.29152797354E+02  0.57715659651E+01  0.31886053108E+02  0.00000000000E+00 0.  1.
         11    1    3    3    0    0  0.23085092956E+02 -0.22807621712E+02  0.39801318849E+01  0.32694809604E+02  0.51100000000E-03 0. -1.
        -11    1    3    3    0    0 -0.11787715096E+02 -0.88226889967E+01 -0.14862961581E+02  0.20921225957E+02  0.51100000000E-03 0.  1.
        -12    1    3    3    0    0  0.25787270191E+00  0.24775133546E+01  0.51112637306E+01  0.56859113321E+01  0.00000000000E+00 0.  1.
</event>
<event>
 7    1  0.1139627E-011  0.5930193E+02  0.7816164E-02  0.1266605E+00
        -11   -1    0    0    0    0  0.00000000000E+00  0.00000000000E+00  0.45593999997E+02  0.45594000000E+02  0.51100000000E-03 0. -1.
         11   -1    0    0    0    0 -0.00000000000E+00 -0.00000000000E+00 -0.45593999997E+02  0.45594000000E+02  0.51100000000E-03 0.  1.
    9900012    2    1    2    0    0 -0.44846368708E+01 -0.30107757432E+02 -0.94937947478E+01  0.59301934640E+02  0.49999982878E+02 0.  0.
        -12    1    1    2    0    0  0.44846368708E+01  0.30107757432E+02  0.94937947478E+01  0.31886065360E+02  0.00000000000E+00 0.  1.
         11    1    3    3    0    0  0.16144224389E+02 -0.26059405305E+02  0.77132006170E+01  0.31610473738E+02  0.51100000000E-03 0. -1.
        -11    1    3    3    0    0 -0.11026681990E+02 -0.45765072051E+01 -0.79509239615E+01  0.14343964794E+02  0.51100000000E-03 0.  1.
         12    1    3    3    0    0 -0.96021792699E+01  0.52815507752E+00 -0.92560714033E+01  0.13347496108E+02  0.00000000000E+00 0. -1.
</event>
<event>
 7    1  0.1139627E-011  0.5930194E+02  0.7816164E-02  0.1266605E+00
        -11   -1    0    0    0    0  0.00000000000E+00  0.00000000000E+00  0.45593999997E+02  0.45594000000E+02  0.51100000000E-03 0. -1.
         11   -1    0    0    0    0 -0.00000000000E+00 -0.00000000000E+00 -0.45593999997E+02  0.45594000000E+02  0.51100000000E-03 0.  1.
    9900012    2    1    2    0    0  0.67663305896E+01  0.18801320576E+02  0.24848500195E+02  0.59301939613E+02  0.49999991949E+02 0.  0.
        -12    1    1    2    0    0 -0.67663305896E+01 -0.18801320576E+02 -0.24848500195E+02  0.31886060387E+02  0.00000000000E+00 0.  1.
         11    1    3    3    0    0  0.12290253596E+02  0.34241762500E+02  0.14596346685E+02  0.39199514912E+02  0.51100000000E-03 0. -1.
        -11    1    3    3    0    0 -0.73863854059E+00 -0.96914128360E+01  0.68138896162E+01  0.11870053143E+02  0.51100000000E-03 0.  1.
         12    1    3    3    0    0 -0.47852844656E+01 -0.57490290880E+01  0.34382638935E+01  0.82323715582E+01  0.00000000000E+00 0. -1.
</event>
<event>
 7    1  0.1139627E-011  0.5930195E+02  0.7816164E-02  0.1266605E+00
        -11   -1    0    0    0    0  0.00000000000E+00  0.00000000000E+00  0.45593999997E+02  0.45594000000E+02  0.51100000000E-03 0. -1.
         11   -1    0    0    0    0 -0.00000000000E+00 -0.00000000000E+00 -0.45593999997E+02  0.45594000000E+02  0.51100000000E-03 0.  1.
    9900012    2    1    2    0    0  0.22680030028E+02  0.13648549501E+02  0.17777901618E+02  0.59301945815E+02  0.50000003260E+02 0.  0.
        -12    1    1    2    0    0 -0.22680030028E+02 -0.13648549501E+02 -0.17777901618E+02  0.31886054185E+02  0.00000000000E+00 0.  1.
         11    1    3    3    0    0  0.12199782481E+02 -0.73290899164E+00  0.65702510378E+01  0.13875880049E+02  0.51100000000E-03 0. -1.
        -11    1    3    3    0    0 -0.13504841468E+02  0.14463395114E+02  0.26741000242E+01  0.19968008226E+02  0.51100000000E-03 0.  1.
        -12    1    3    3    0    0  0.23985089015E+02 -0.81936621244E-01  0.85335505557E+01  0.25458057541E+02  0.00000000000E+00 0.  1.
</event>
<event>
 7    1  0.1139627E-011  0.5930196E+02  0.7816164E-02  0.1266605E+00
        -11   -1    0    0    0    0  0.00000000000E+00  0.00000000000E+00  0.45593999997E+02  0.45594000000E+02  0.51100000000E-03 0. -1.
         11   -1    0    0    0    0 -0.00000000000E+00 -0.00000000000E+00 -0.45593999997E+02  0.45594000000E+02  0.51100000000E-03 0.  1.
    9900012    2    1    2    0    0  0.97750946657E+01  0.26514425046E+02 -0.14769981875E+02  0.59301959546E+02  0.50000028301E+02 0.  0.
        -12    1    1    2    0    0 -0.97750946657E+01 -0.26514425046E+02  0.14769981875E+02  0.31886040454E+02  0.00000000000E+00 0.  1.
         11    1    3    3    0    0 -0.74166134788E+01 -0.40443154811E+00  0.48387314222E+01  0.88647076889E+01  0.51100000000E-03 0. -1.
        -11    1    3    3    0    0  0.27447971732E+02  0.17584224375E+02 -0.14052380351E+02  0.35497401213E+02  0.51100000000E-03 0.  1.
        -12    1    3    3    0    0 -0.10256263588E+02  0.93346322199E+01 -0.55563329460E+01  0.14939850644E+02  0.00000000000E+00 0.  1.
</event>
<event>
 7    1  0.1139627E-011  0.5930195E+02  0.7816164E-02  0.1266605E+00
        -11   -1    0    0    0    0  0.00000000000E+00  0.00000000000E+00  0.45593999997E+02  0.45594000000E+02  0.51100000000E-03 0.  1.
         11   -1    0    0    0    0 -0.00000000000E+00 -0.00000000000E+00 -0.45593999997E+02  0.45594000000E+02  0.51100000000E-03 0. -1.
    9900012    2    1    2    0    0 -0.13078772503E+02  0.28219640548E+02  0.70226480957E+01  0.59301953065E+02  0.50000016483E+02 0.  0.
        -12    1    1    2    0    0  0.13078772503E+02 -0.28219640548E+02 -0.70226480957E+01  0.31886046935E+02  0.00000000000E+00 0.  1.
         11    1    3    3    0    0 -0.90589752383E+01  0.18546645784E+02 -0.22775637945E+00  0.20642068099E+02  0.51100000000E-03 0. -1.
        -11    1    3    3    0    0  0.12480806556E+02 -0.30145112328E+01  0.11704780945E+02  0.17374110265E+02  0.51100000000E-03 0.  1.
        -12    1    3    3    0    0 -0.16500603821E+02  0.12687505997E+02 -0.44543764699E+01  0.21285774701E+02  0.00000000000E+00 0.  1.
</event>
<event>
 7    1  0.1139627E-011  0.5930194E+02  0.7816164E-02  0.1266605E+00
        -11   -1    0    0    0    0  0.00000000000E+00  0.00000000000E+00  0.45593999997E+02  0.45594000000E+02  0.51100000000E-03 0.  1.
         11   -1    0    0    0    0 -0.00000000000E+00 -0.00000000000E+00 -0.45593999997E+02  0.45594000000E+02  0.51100000000E-03 0. -1.
    9900012    2    1    2    0    0 -0.31540192252E+02 -0.46569271321E+01 -0.49997648632E+00  0.59301942324E+02  0.49999996894E+02 0.  0.
        -12    1    1    2    0    0  0.31540192252E+02  0.46569271321E+01  0.49997648632E+00  0.31886057676E+02  0.00000000000E+00 0.  1.
         11    1    3    3    0    0 -0.80307721107E+01 -0.22012863972E+01 -0.17165739895E+02  0.19078825669E+02  0.51100000000E-03 0. -1.
        -11    1    3    3    0    0 -0.23696007525E+02  0.42618214114E+01  0.21230103610E+02  0.32099551305E+02  0.51100000000E-03 0.  1.
         12    1    3    3    0    0  0.18658738418E+00 -0.67174621463E+01 -0.45643402018E+01  0.81235653513E+01  0.00000000000E+00 0. -1.
</event>
<event>
 7    1  0.1139627E-011  0.5930190E+02  0.7816164E-02  0.1266605E+00
        -11   -1    0    0    0    0  0.00000000000E+00  0.00000000000E+00  0.45593999997E+02  0.45594000000E+02  0.51100000000E-03 0. -1.
         11   -1    0    0    0    0 -0.00000000000E+00 -0.00000000000E+00 -0.45593999997E+02  0.45594000000E+02  0.51100000000E-03 0.  1.
    9900012    2    1    2    0    0  0.24494424434E+02 -0.58137696313E+01  0.19569021547E+02  0.59301900364E+02  0.49999920368E+02 0.  0.
        -12    1    1    2    0    0 -0.24494424434E+02  0.58137696313E+01 -0.19569021547E+02  0.31886099636E+02  0.00000000000E+00 0.  1.
         11    1    3    3    0    0 -0.20878630885E+01 -0.10305534397E+02  0.15148873640E+02  0.18440487637E+02  0.51100000000E-03 0. -1.
        -11    1    3    3    0    0  0.16782606791E+02  0.13813022376E+02 -0.73367993163E+01  0.22940882771E+02  0.51100000000E-03 0.  1.
        -12    1    3    3    0    0  0.97996807317E+01 -0.93212576098E+01  0.11756947224E+02  0.17920529956E+02  0.00000000000E+00 0.  1.
</event>
<event>
 7    1  0.1139627E-011  0.5930194E+02  0.7816164E-02  0.1266605E+00
        -11   -1    0    0    0    0  0.00000000000E+00  0.00000000000E+00  0.45593999997E+02  0.45594000000E+02  0.51100000000E-03 0.  1.
         11   -1    0    0    0    0 -0.00000000000E+00 -0.00000000000E+00 -0.45593999997E+02  0.45594000000E+02  0.51100000000E-03 0. -1.
    9900012    2    1    2    0    0 -0.14722834812E+02 -0.27901868586E+02  0.46308306727E+01  0.59301941476E+02  0.49999995346E+02 0.  0.
        -12    1    1    2    0    0  0.14722834812E+02  0.27901868586E+02 -0.46308306727E+01  0.31886058524E+02  0.00000000000E+00 0.  1.
         11    1    3    3    0    0  0.98611365887E+00 -0.29250545372E+02  0.72688859171E+01  0.30156318201E+02  0.51100000000E-03 0. -1.
        -11    1    3    3    0    0 -0.14238853548E+02  0.96770124478E+01  0.48111813886E+01  0.17875597525E+02  0.51100000000E-03 0.  1.
        -12    1    3    3    0    0 -0.14700949229E+01 -0.83283356621E+01 -0.74492366329E+01  0.11270025750E+02  0.00000000000E+00 0.  1.
</event>
<event>
 7    1  0.1139627E-011  0.5930192E+02  0.7816164E-02  0.1266605E+00
        -11   -1    0    0    0    0  0.00000000000E+00  0.00000000000E+00  0.45593999997E+02  0.45594000000E+02  0.51100000000E-03 0.  1.
         11   -1    0    0    0    0 -0.00000000000E+00 -0.00000000000E+00 -0.45593999997E+02  0.45594000000E+02  0.51100000000E-03 0. -1.
    9900012    2    1    2    0    0 -0.15959029513E+02  0.22160908244E+02 -0.16459814151E+02  0.59301922175E+02  0.49999960145E+02 0.  0.
        -12    1    1    2    0    0  0.15959029513E+02 -0.22160908244E+02  0.16459814151E+02  0.31886077825E+02  0.00000000000E+00 0.  1.
         11    1    3    3    0    0 -0.57766691041E+01  0.11555410701E+02 -0.12756949065E+02  0.18155912869E+02  0.51100000000E-03 0. -1.
        -11    1    3    3    0    0  0.92280372625E+01  0.15074201048E+02  0.64184018819E+01  0.18803831842E+02  0.51100000000E-03 0.  1.
        -12    1    3    3    0    0 -0.19410397671E+02 -0.44687035051E+01 -0.10121266968E+02  0.22342177463E+02  0.00000000000E+00 0.  1.
</event>
<event>
 7    1  0.1139627E-011  0.5930194E+02  0.7816164E-02  0.1266605E+00
        -11   -1    0    0    0    0  0.00000000000E+00  0.00000000000E+00  0.45593999997E+02  0.45594000000E+02  0.51100000000E-03 0.  1.
         11   -1    0    0    0    0 -0.00000000000E+00 -0.00000000000E+00 -0.45593999997E+02  0.45594000000E+02  0.51100000000E-03 0. -1.
    9900012    2    1    2    0    0  0.16382774527E+02 -0.18186812136E+02 -0.20434424174E+02  0.59301935204E+02  0.49999983907E+02 0.  0.
        -12    1    1    2    0    0 -0.16382774527E+02  0.18186812136E+02  0.20434424174E+02  0.31886064796E+02  0.00000000000E+00 0.  1.
         11    1    3    3    0    0  0.74277352141E+01  0.14595643941E+02 -0.47402637536E+00  0.16383796072E+02  0.51100000000E-03 0. -1.
        -11    1    3    3    0    0 -0.43839691830E+01 -0.30433460357E+01 -0.19672478302E+01  0.56878119850E+01  0.51100000000E-03 0.  1.
         12    1    3    3    0    0  0.13339008496E+02 -0.29739110041E+02 -0.17993149969E+02  0.37230327147E+02  0.00000000000E+00 0. -1.
</event>
<event>
 7    1  0.1139627E-011  0.5930195E+02  0.7816164E-02  0.1266605E+00
        -11   -1    0    0    0    0  0.00000000000E+00  0.00000000000E+00  0.45593999997E+02  0.45594000000E+02  0.51100000000E-03 0. -1.
         11   -1    0    0    0    0 -0.00000000000E+00 -0.00000000000E+00 -0.45593999997E+02  0.45594000000E+02  0.51100000000E-03 0.  1.
    9900012    2    1    2    0    0  0.26245610261E+02  0.58353219049E+01 -0.17141686904E+02  0.59301945530E+02  0.50000002741E+02 0.  0.
        -12    1    1    2    0    0 -0.26245610261E+02 -0.58353219049E+01  0.17141686904E+02  0.31886054470E+02  0.00000000000E+00 0.  1.
         11    1    3    3    0    0  0.21605754439E+02 -0.35065480409E+00 -0.21591368854E+02  0.30546993190E+02  0.51100000000E-03 0. -1.
        -11    1    3    3    0    0 -0.82734283996E+01  0.40981269108E+01 -0.68282863189E+01  0.11483455751E+02  0.51100000000E-03 0.  1.
         12    1    3    3    0    0  0.12913284222E+02  0.20878497982E+01  0.11277968269E+02  0.17271496590E+02  0.00000000000E+00 0. -1.
</event>
<event>
 7    1  0.1139627E-011  0.5930194E+02  0.7816164E-02  0.1266605E+00
        -11   -1    0    0    0    0  0.00000000000E+00  0.00000000000E+00  0.45593999997E+02  0.45594000000E+02  0.51100000000E-03 0.  1.
         11   -1    0    0    0    0 -0.00000000000E+00 -0.00000000000E+00 -0.45593999997E+02  0.45594000000E+02  0.51100000000E-03 0. -1.
    9900012    2    1    2    0    0 -0.12687717847E+02  0.13983602520E+01 -0.29219632889E+02  0.59301944400E+02  0.50000000679E+02 0.  0.
        -12    1    1    2    0    0  0.12687717847E+02 -0.13983602520E+01  0.29219632889E+02  0.31886055600E+02  0.00000000000E+00 0.  1.
         11    1    3    3    0    0 -0.19563768091E+02 -0.14285044590E+01 -0.21321257981E+00  0.19617010649E+02  0.51100000000E-03 0. -1.
        -11    1    3    3    0    0  0.16113207737E+02  0.45269039163E+01 -0.13272597090E+02  0.21360949333E+02  0.51100000000E-03 0.  1.
         12    1    3    3    0    0 -0.92371574933E+01 -0.17000392053E+01 -0.15733823219E+02  0.18323984418E+02  0.00000000000E+00 0. -1.
</event>
<event>
 7    1  0.1139627E-011  0.5930191E+02  0.7816164E-02  0.1266605E+00
        -11   -1    0    0    0    0  0.00000000000E+00  0.00000000000E+00  0.45593999997E+02  0.45594000000E+02  0.51100000000E-03 0.  1.
         11   -1    0    0    0    0 -0.00000000000E+00 -0.00000000000E+00 -0.45593999997E+02  0.45594000000E+02  0.51100000000E-03 0. -1.
    9900012    2    1    2    0    0  0.24929685665E+02  0.14222437422E+02 -0.13890843543E+02  0.59301913882E+02  0.49999945022E+02 0.  0.
        -12    1    1    2    0    0 -0.24929685665E+02 -0.14222437422E+02  0.13890843543E+02  0.31886086118E+02  0.00000000000E+00 0.  1.
         11    1    3    3    0    0 -0.48328826716E+01 -0.52291221760E+01 -0.20014920027E+02  0.21243763734E+02  0.51100000000E-03 0. -1.
        -11    1    3    3    0    0  0.10261645345E+02  0.10373023007E+02  0.76845845765E+01  0.16491022159E+02  0.51100000000E-03 0.  1.
        -12    1    3    3    0    0  0.19500922992E+02  0.90785365908E+01 -0.15605080925E+01  0.21567127988E+02  0.00000000000E+00 0.  1.
</event>
<event>
 7    1  0.1139627E-011  0.5930192E+02  0.7816164E-02  0.1266605E+00
        -11   -1    0    0    0    0  0.00000000000E+00  0.00000000000E+00  0.45593999997E+02  0.45594000000E+02  0.51100000000E-03 0.  1.
         11   -1    0    0    0    0 -0.00000000000E+00 -0.00000000000E+00 -0.45593999997E+02  0.45594000000E+02  0.51100000000E-03 0. -1.
    9900012    2    1    2    0    0 -0.46831331486E+01  0.23541096268E+02 -0.20990641300E+02  0.59301921975E+02  0.49999959782E+02 0.  0.
        -12    1    1    2    0    0  0.46831331486E+01 -0.23541096268E+02  0.20990641300E+02  0.31886078025E+02  0.00000000000E+00 0.  1.
         11    1    3    3    0    0  0.89440861532E+01  0.19837821765E+02  0.15957357460E+01  0.21819308475E+02  0.51100000000E-03 0. -1.
        -11    1    3    3    0    0 -0.10394110816E+02 -0.78087222700E+01 -0.12969974140E+01  0.13065063555E+02  0.51100000000E-03 0.  1.
         12    1    3    3    0    0 -0.32331084853E+01  0.11511996773E+02 -0.21289379632E+02  0.24417549945E+02  0.00000000000E+00 0. -1.
</event>
<event>
 7    1  0.1139627E-011  0.5930194E+02  0.7816164E-02  0.1266605E+00
        -11   -1    0    0    0    0  0.00000000000E+00  0.00000000000E+00  0.45593999997E+02  0.45594000000E+02  0.51100000000E-03 0.  1.
         11   -1    0    0    0    0 -0.00000000000E+00 -0.00000000000E+00 -0.45593999997E+02  0.45594000000E+02  0.51100000000E-03 0. -1.
    9900012    2    1    2    0    0  0.10418473009E+02  0.12910249120E+02  0.27230526642E+02  0.59301942022E+02  0.49999996342E+02 0.  0.
        -12    1    1    2    0    0 -0.10418473009E+02 -0.12910249120E+02 -0.27230526642E+02  0.31886057978E+02  0.00000000000E+00 0.  1.
         11    1    3    3    0    0  0.48836530907E+01  0.29665485079E+01 -0.71386688808E+01  0.91439089677E+01  0.51100000000E-03 0. -1.
        -11    1    3    3    0    0  0.14131491881E+02 -0.21390148245E+01  0.32124227621E+02  0.35160211145E+02  0.51100000000E-03 0.  1.
        -12    1    3    3    0    0 -0.85966719628E+01  0.12082715436E+02  0.22449679011E+01  0.14997821910E+02  0.00000000000E+00 0.  1.
</event>
<event>
 7    1  0.1139627E-011  0.5930193E+02  0.7816164E-02  0.1266605E+00
        -11   -1    0    0    0    0  0.00000000000E+00  0.00000000000E+00  0.45593999997E+02  0.45594000000E+02  0.51100000000E-03 0.  1.
         11   -1    0    0    0    0 -0.00000000000E+00 -0.00000000000E+00 -0.45593999997E+02  0.45594000000E+02  0.51100000000E-03 0. -1.
    9900012    2    1    2    0    0 -0.16826911696E+02  0.11837920401E+02 -0.24360627120E+02  0.59301929839E+02  0.49999974123E+02 0.  0.
        -12    1    1    2    0    0  0.16826911696E+02 -0.11837920401E+02  0.24360627120E+02  0.31886070161E+02  0.00000000000E+00 0.  1.
         11    1    3    3    0    0  0.54815021369E+01 -0.11542939261E+02 -0.78841558112E+01  0.15014866819E+02  0.51100000000E-03 0. -1.
        -11    1    3    3    0    0 -0.45860120215E+01  0.15251904954E+02 -0.18813705477E+02  0.24649698275E+02  0.51100000000E-03 0.  1.
         12    1    3    3    0    0 -0.17722401811E+02  0.81289547083E+01  0.23372341686E+01  0.19637364746E+02  0.00000000000E+00 0. -1.
</event>
<event>
 7    1  0.1139627E-011  0.5930195E+02  0.7816164E-02  0.1266605E+00
        -11   -1    0    0    0    0  0.00000000000E+00  0.00000000000E+00  0.45593999997E+02  0.45594000000E+02  0.51100000000E-03 0.  1.
         11   -1    0    0    0    0 -0.00000000000E+00 -0.00000000000E+00 -0.45593999997E+02  0.45594000000E+02  0.51100000000E-03 0. -1.
    9900012    2    1    2    0    0 -0.25008152646E+02 -0.87473297006E+00 -0.19762263704E+02  0.59301954099E+02  0.50000018367E+02 0.  0.
        -12    1    1    2    0    0  0.25008152646E+02  0.87473297006E+00  0.19762263704E+02  0.31886045901E+02  0.00000000000E+00 0.  1.
         11    1    3    3    0    0 -0.14165867867E+02  0.11244955792E+02 -0.82580122158E+01  0.19882545340E+02  0.51100000000E-03 0. -1.
        -11    1    3    3    0    0 -0.12585930498E+02 -0.43525840146E+01  0.98927086061E+01  0.16589644900E+02  0.51100000000E-03 0.  1.
        -12    1    3    3    0    0  0.17436457189E+01 -0.77671047474E+01 -0.21396960094E+02  0.22829763858E+02  0.00000000000E+00 0.  1.
</event>
<event>
 7    1  0.1139627E-011  0.5930188E+02  0.7816164E-02  0.1266605E+00
        -11   -1    0    0    0    0  0.00000000000E+00  0.00000000000E+00  0.45593999997E+02  0.45594000000E+02  0.51100000000E-03 0. -1.
         11   -1    0    0    0    0 -0.00000000000E+00 -0.00000000000E+00 -0.45593999997E+02  0.45594000000E+02  0.51100000000E-03 0.  1.
    9900012    2    1    2    0    0  0.14024673032E+01  0.31419214440E+02  0.52526549746E+01  0.59301884921E+02  0.49999892203E+02 0.  0.
        -12    1    1    2    0    0 -0.14024673032E+01 -0.31419214440E+02 -0.52526549746E+01  0.31886115079E+02  0.00000000000E+00 0.  1.
         11    1    3    3    0    0  0.50508320155E+01  0.21177168620E+01  0.65629588353E+01  0.85479855926E+01  0.51100000000E-03 0. -1.
        -11    1    3    3    0    0  0.49529758182E+01  0.88329120568E+01 -0.19551923252E+02  0.22018855737E+02  0.51100000000E-03 0.  1.
        -12    1    3    3    0    0 -0.86013405304E+01  0.20468585521E+02  0.18241619391E+02  0.28735043591E+02  0.00000000000E+00 0.  1.
</event>
<event>
 7    1  0.1139627E-011  0.5930192E+02  0.7816164E-02  0.1266605E+00
        -11   -1    0    0    0    0  0.00000000000E+00  0.00000000000E+00  0.45593999997E+02  0.45594000000E+02  0.51100000000E-03 0.  1.
         11   -1    0    0    0    0 -0.00000000000E+00 -0.00000000000E+00 -0.45593999997E+02  0.45594000000E+02  0.51100000000E-03 0. -1.
    9900012    2    1    2    0    0  0.29249628756E+02 -0.10637222094E+02  0.69304144515E+01  0.59301922776E+02  0.49999961242E+02 0.  0.
        -12    1    1    2    0    0 -0.29249628756E+02  0.10637222094E+02 -0.69304144515E+01  0.31886077224E+02  0.00000000000E+00 0.  1.
         11    1    3    3    0    0  0.38035324431E+02 -0.19074157040E+02  0.97842196163E+01  0.43660512195E+02  0.51100000000E-03 0. -1.
        -11    1    3    3    0    0 -0.97568036262E+01  0.35378440647E+01 -0.17210054666E+01  0.10520143426E+02  0.51100000000E-03 0.  1.
         12    1    3    3    0    0  0.97110795081E+00  0.48990908814E+01 -0.11327996982E+01  0.51212671550E+01  0.00000000000E+00 0. -1.
</event>
<event>
 7    1  0.1139627E-011  0.5930189E+02  0.7816164E-02  0.1266605E+00
        -11   -1    0    0    0    0  0.00000000000E+00  0.00000000000E+00  0.45593999997E+02  0.45594000000E+02  0.51100000000E-03 0. -1.
         11   -1    0    0    0    0 -0.00000000000E+00 -0.00000000000E+00 -0.45593999997E+02  0.45594000000E+02  0.51100000000E-03 0.  1.
    9900012    2    1    2    0    0 -0.25380070309E+01  0.43772224694E+01  0.31482092633E+02  0.59301894675E+02  0.49999909993E+02 0.  0.
        -12    1    1    2    0    0  0.25380070309E+01 -0.43772224694E+01 -0.31482092633E+02  0.31886105325E+02  0.00000000000E+00 0.  1.
         11    1    3    3    0    0 -0.28345429074E+01 -0.12850762249E+02 -0.29263860049E+01  0.13481114909E+02  0.51100000000E-03 0. -1.
        -11    1    3    3    0    0  0.64539646741E+01  0.16250214892E+02  0.90130513203E+01  0.19671254114E+02  0.51100000000E-03 0.  1.
        -12    1    3    3    0    0 -0.61574287976E+01  0.97776982726E+00  0.25395427317E+02  0.26149525653E+02  0.00000000000E+00 0.  1.
</event>
<event>
 7    1  0.1139627E-011  0.5930191E+02  0.7816164E-02  0.1266605E+00
        -11   -1    0    0    0    0  0.00000000000E+00  0.00000000000E+00  0.45593999997E+02  0.45594000000E+02  0.51100000000E-03 0.  1.
         11   -1    0    0    0    0 -0.00000000000E+00 -0.00000000000E+00 -0.45593999997E+02  0.45594000000E+02  0.51100000000E-03 0. -1.
    9900012    2    1    2    0    0 -0.86286202675E+01  0.30654809545E+02 -0.15976877751E+01  0.59301905191E+02  0.49999929170E+02 0.  0.
        -12    1    1    2    0    0  0.86286202675E+01 -0.30654809545E+02  0.15976877751E+01  0.31886094809E+02  0.00000000000E+00 0.  1.
         11    1    3    3    0    0 -0.16851802088E+02  0.19507690061E+02 -0.13047073246E+01  0.25811537470E+02  0.51100000000E-03 0. -1.
        -11    1    3    3    0    0  0.84694321217E+01 -0.25976655730E+01  0.12090199256E+02  0.14988397686E+02  0.51100000000E-03 0.  1.
        -12    1    3    3    0    0 -0.24625030128E+00  0.13744785058E+02 -0.12383179707E+02  0.18501970034E+02  0.00000000000E+00 0.  1.
</event>
<event>
 7    1  0.1139627E-011  0.5930192E+02  0.7816164E-02  0.1266605E+00
        -11   -1    0    0    0    0  0.00000000000E+00  0.00000000000E+00  0.45593999997E+02  0.45594000000E+02  0.51100000000E-03 0.  1.
         11   -1    0    0    0    0 -0.00000000000E+00 -0.00000000000E+00 -0.45593999997E+02  0.45594000000E+02  0.51100000000E-03 0. -1.
    9900012    2    1    2    0    0  0.39361208311E+01  0.97590436486E+01 -0.30099665312E+02  0.59301924167E+02  0.49999963779E+02 0.  0.
        -12    1    1    2    0    0 -0.39361208311E+01 -0.97590436486E+01  0.30099665312E+02  0.31886075833E+02  0.00000000000E+00 0.  1.
         11    1    3    3    0    0 -0.12472169078E+02 -0.81495014968E+01 -0.14749062738E+02  0.20964356133E+02  0.51100000000E-03 0. -1.
        -11    1    3    3    0    0  0.26882602418E+00  0.11489816208E+02  0.41536903166E+01  0.12220527297E+02  0.51100000000E-03 0.  1.
         12    1    3    3    0    0  0.16139463885E+02  0.64187289376E+01 -0.19504292891E+02  0.26117040737E+02  0.00000000000E+00 0. -1.
</event>
<event>
 7    1  0.1139627E-011  0.5930195E+02  0.7816164E-02  0.1266605E+00
        -11   -1    0    0    0    0  0.00000000000E+00  0.00000000000E+00  0.45593999997E+02  0.45594000000E+02  0.51100000000E-03 0.  1.
         11   -1    0    0    0    0 -0.00000000000E+00 -0.00000000000E+00 -0.45593999997E+02  0.45594000000E+02  0.51100000000E-03 0. -1.
    9900012    2    1    2    0    0  0.75866748518E+01 -0.10860317092E+02 -0.29003728112E+02  0.59301947139E+02  0.50000005675E+02 0.  0.
        -12    1    1    2    0    0 -0.75866748518E+01  0.10860317092E+02  0.29003728112E+02  0.31886052861E+02  0.00000000000E+00 0.  1.
         11    1    3    3    0    0  0.12395593518E+02 -0.12853543508E+02 -0.30154684004E+02  0.35045246283E+02  0.51100000000E-03 0. -1.
        -11    1    3    3    0    0  0.40685710102E+01 -0.30325088326E+01  0.96997792276E+01  0.10946921814E+02  0.51100000000E-03 0.  1.
         12    1    3    3    0    0 -0.88774896760E+01  0.50257352487E+01 -0.85488233353E+01  0.13309779042E+02  0.00000000000E+00 0. -1.
</event>
<event>
 7    1  0.1139627E-011  0.5930192E+02  0.7816164E-02  0.1266605E+00
        -11   -1    0    0    0    0  0.00000000000E+00  0.00000000000E+00  0.45593999997E+02  0.45594000000E+02  0.51100000000E-03 0. -1.
         11   -1    0    0    0    0 -0.00000000000E+00 -0.00000000000E+00 -0.45593999997E+02  0.45594000000E+02  0.51100000000E-03 0.  1.
    9900012    2    1    2    0    0 -0.21948066130E+02  0.14982803150E+01 -0.23081582655E+02  0.59301922966E+02  0.49999961588E+02 0.  0.
        -12    1    1    2    0    0  0.21948066130E+02 -0.14982803150E+01  0.23081582655E+02  0.31886077034E+02  0.00000000000E+00 0.  1.
         11    1    3    3    0    0 -0.26298051686E+02  0.11870110893E+02  0.37429208046E+01  0.29094613101E+02  0.51100000000E-03 0. -1.
        -11    1    3    3    0    0  0.47158889840E+01 -0.91451735035E+01 -0.27019564386E+02  0.28912465602E+02  0.51100000000E-03 0.  1.
         12    1    3    3    0    0 -0.36590342876E+00 -0.12266570750E+01  0.19506092671E+00  0.12948442624E+01  0.00000000000E+00 0. -1.
</event>
<event>
 7    1  0.1139627E-011  0.5930194E+02  0.7816164E-02  0.1266605E+00
        -11   -1    0    0    0    0  0.00000000000E+00  0.00000000000E+00  0.45593999997E+02  0.45594000000E+02  0.51100000000E-03 0.  1.
         11   -1    0    0    0    0 -0.00000000000E+00 -0.00000000000E+00 -0.45593999997E+02  0.45594000000E+02  0.51100000000E-03 0. -1.
    9900012    2    1    2    0    0 -0.13590274867E+02  0.22093240495E+02 -0.18544911591E+02  0.59301943605E+02  0.49999999229E+02 0.  0.
        -12    1    1    2    0    0  0.13590274867E+02 -0.22093240495E+02  0.18544911591E+02  0.31886056395E+02  0.00000000000E+00 0.  1.
         11    1    3    3    0    0 -0.48626818845E+01 -0.73638299991E+01 -0.80671991443E+01  0.11956227234E+02  0.51100000000E-03 0. -1.
        -11    1    3    3    0    0 -0.83243812197E+01  0.35734220108E+02 -0.19415268331E+01  0.36742337107E+02  0.51100000000E-03 0.  1.
        -12    1    3    3    0    0 -0.40321176279E+00 -0.62771496136E+01 -0.85361856132E+01  0.10603379264E+02  0.00000000000E+00 0.  1.
</event>
<event>
 7    1  0.1139627E-011  0.5930194E+02  0.7816164E-02  0.1266605E+00
        -11   -1    0    0    0    0  0.00000000000E+00  0.00000000000E+00  0.45593999997E+02  0.45594000000E+02  0.51100000000E-03 0. -1.
         11   -1    0    0    0    0 -0.00000000000E+00 -0.00000000000E+00 -0.45593999997E+02  0.45594000000E+02  0.51100000000E-03 0.  1.
    9900012    2    1    2    0    0 -0.17710741975E+02 -0.12261495897E+02  0.23509706546E+02  0.59301937766E+02  0.49999988580E+02 0.  0.
        -12    1    1    2    0    0  0.17710741975E+02  0.12261495897E+02 -0.23509706546E+02  0.31886062234E+02  0.00000000000E+00 0.  1.
         11    1    3    3    0    0 -0.85774989089E+01  0.78882301189E+01  0.14474527022E+02  0.18582507762E+02  0.51100000000E-03 0. -1.
        -11    1    3    3    0    0 -0.30341894786E+01 -0.74546777312E+01 -0.12571824287E+02  0.14927467704E+02  0.51100000000E-03 0.  1.
        -12    1    3    3    0    0 -0.60990535877E+01 -0.12695048285E+02  0.21607003810E+02  0.25791962300E+02  0.00000000000E+00 0.  1.
</event>
<event>
 7    1  0.1139627E-011  0.5930195E+02  0.7816164E-02  0.1266605E+00
        -11   -1    0    0    0    0  0.00000000000E+00  0.00000000000E+00  0.45593999997E+02  0.45594000000E+02  0.51100000000E-03 0.  1.
         11   -1    0    0    0    0 -0.00000000000E+00 -0.00000000000E+00 -0.45593999997E+02  0.45594000000E+02  0.51100000000E-03 0. -1.
    9900012    2    1    2    0    0 -0.96263018304E+01 -0.30360785253E+02 -0.15090632425E+01  0.59301949131E+02  0.50000009308E+02 0.  0.
        -12    1    1    2    0    0  0.96263018304E+01  0.30360785253E+02  0.15090632425E+01  0.31886050869E+02  0.00000000000E+00 0.  1.
         11    1    3    3    0    0 -0.11581970187E+02 -0.21136512196E+02 -0.10080785958E+02  0.26125015349E+02  0.51100000000E-03 0. -1.
        -11    1    3    3    0    0 -0.11343520157E+02 -0.31822282794E+01  0.13352578415E+02  0.17807115909E+02  0.51100000000E-03 0.  1.
        -12    1    3    3    0    0  0.13299188514E+02 -0.60420447783E+01 -0.47808556995E+01  0.15369817873E+02  0.00000000000E+00 0.  1.
</event>
<event>
 7    1  0.1139627E-011  0.5930196E+02  0.7816164E-02  0.1266605E+00
        -11   -1    0    0    0    0  0.00000000000E+00  0.00000000000E+00  0.45593999997E+02  0.45594000000E+02  0.51100000000E-03 0.  1.
         11   -1    0    0    0    0 -0.00000000000E+00 -0.00000000000E+00 -0.45593999997E+02  0.45594000000E+02  0.51100000000E-03 0. -1.
    9900012    2    1    2    0    0 -0.27730064191E+02 -0.12155238459E+02 -0.10000667738E+02  0.59301958583E+02  0.50000026545E+02 0.  0.
        -12    1    1    2    0    0  0.27730064191E+02  0.12155238459E+02  0.10000667738E+02  0.31886041417E+02  0.00000000000E+00 0.  1.
         11    1    3    3    0    0 -0.13784791875E+02  0.10870960820E+02 -0.16114193903E+02  0.23829929114E+02  0.51100000000E-03 0. -1.
        -11    1    3    3    0    0 -0.68444713477E+01  0.26193150969E+01  0.49355388506E+01  0.88355613072E+01  0.51100000000E-03 0.  1.
         12    1    3    3    0    0 -0.71008009684E+01 -0.25645514376E+02  0.11779873140E+01  0.26636468161E+02  0.00000000000E+00 0. -1.
</event>
<event>
 7    1  0.1139627E-011  0.5930196E+02  0.7816164E-02  0.1266605E+00
        -11   -1    0    0    0    0  0.00000000000E+00  0.00000000000E+00  0.45593999997E+02  0.45594000000E+02  0.51100000000E-03 0. -1.
         11   -1    0    0    0    0 -0.00000000000E+00 -0.00000000000E+00 -0.45593999997E+02  0.45594000000E+02  0.51100000000E-03 0.  1.
    9900012    2    1    2    0    0 -0.14007614987E+02 -0.97693535518E+01  0.26927054913E+02  0.59301955518E+02  0.50000020955E+02 0.  0.
        -12    1    1    2    0    0  0.14007614987E+02  0.97693535518E+01 -0.26927054913E+02  0.31886044482E+02  0.00000000000E+00 0.  1.
         11    1    3    3    0    0  0.15029028281E+02 -0.39627065491E+01  0.55286739785E+01  0.16496695744E+02  0.51100000000E-03 0. -1.
        -11    1    3    3    0    0 -0.27941314624E+02 -0.10325253364E+02  0.23263400900E+02  0.37795684167E+02  0.51100000000E-03 0.  1.
         12    1    3    3    0    0 -0.10953286432E+01  0.45186063613E+01 -0.18650199659E+01  0.50095756066E+01  0.00000000000E+00 0. -1.
</event>
<event>
 7    1  0.1139627E-011  0.5930206E+02  0.7816164E-02  0.1266604E+00
        -11   -1    0    0    0    0  0.00000000000E+00  0.00000000000E+00  0.45593999997E+02  0.45594000000E+02  0.51100000000E-03 0. -1.
         11   -1    0    0    0    0 -0.00000000000E+00 -0.00000000000E+00 -0.45593999997E+02  0.45594000000E+02  0.51100000000E-03 0.  1.
    9900012    2    1    2    0    0  0.44705460568E+01 -0.12672166682E+02  0.28916142870E+02  0.59302064089E+02  0.50000218962E+02 0.  0.
        -12    1    1    2    0    0 -0.44705460568E+01  0.12672166682E+02 -0.28916142870E+02  0.31885935911E+02  0.00000000000E+00 0.  1.
         11    1    3    3    0    0 -0.86194290563E+01  0.85960724164E+01  0.14372739851E+02  0.18835144527E+02  0.51100000000E-03 0.  1.
        -11    1    3    3    0    0  0.13788807872E+02 -0.25135336919E+02  0.36673541110E+01  0.28902696605E+02  0.51100000000E-03 0. -1.
         12    1    3    3    0    0 -0.69883275895E+00  0.38670978208E+01  0.10876048907E+02  0.11564222958E+02  0.00000000000E+00 0. -1.
</event>
<event>
 7    1  0.1139627E-011  0.5930194E+02  0.7816164E-02  0.1266605E+00
        -11   -1    0    0    0    0  0.00000000000E+00  0.00000000000E+00  0.45593999997E+02  0.45594000000E+02  0.51100000000E-03 0. -1.
         11   -1    0    0    0    0 -0.00000000000E+00 -0.00000000000E+00 -0.45593999997E+02  0.45594000000E+02  0.51100000000E-03 0.  1.
    9900012    2    1    2    0    0  0.14808185461E+01 -0.29175848497E+02  0.12778814936E+02  0.59301936112E+02  0.49999985564E+02 0.  0.
        -12    1    1    2    0    0 -0.14808185461E+01  0.29175848497E+02 -0.12778814936E+02  0.31886063888E+02  0.00000000000E+00 0.  1.
         11    1    3    3    0    0  0.14542397164E+02 -0.26067815827E+02  0.18805177058E+02  0.35279555294E+02  0.51100000000E-03 0. -1.
        -11    1    3    3    0    0 -0.78345487785E+01 -0.67555221397E+01  0.48426833596E+01  0.11422294705E+02  0.51100000000E-03 0.  1.
         12    1    3    3    0    0 -0.52270298393E+01  0.36474894699E+01 -0.10869045482E+02  0.12600086113E+02  0.00000000000E+00 0. -1.
</event>
<event>
 7    1  0.1139627E-011  0.5930193E+02  0.7816164E-02  0.1266605E+00
        -11   -1    0    0    0    0  0.00000000000E+00  0.00000000000E+00  0.45593999997E+02  0.45594000000E+02  0.51100000000E-03 0.  1.
         11   -1    0    0    0    0 -0.00000000000E+00 -0.00000000000E+00 -0.45593999997E+02  0.45594000000E+02  0.51100000000E-03 0. -1.
    9900012    2    1    2    0    0  0.15582701708E+02  0.26278335195E+02 -0.91296221242E+01  0.59301929478E+02  0.49999973466E+02 0.  0.
        -12    1    1    2    0    0 -0.15582701708E+02 -0.26278335195E+02  0.91296221242E+01  0.31886070522E+02  0.00000000000E+00 0.  1.
         11    1    3    3    0    0  0.14926872531E+02  0.49792247004E+01 -0.24227485785E+02  0.28889016423E+02  0.51100000000E-03 0. -1.
        -11    1    3    3    0    0 -0.32217734795E+01  0.26118401932E+01  0.97454000022E+01  0.10591239541E+02  0.51100000000E-03 0.  1.
        -12    1    3    3    0    0  0.38776026569E+01  0.18687270302E+02  0.53524636585E+01  0.19821673514E+02  0.00000000000E+00 0.  1.
</event>
<event>
 7    1  0.1139627E-011  0.5930186E+02  0.7816164E-02  0.1266605E+00
        -11   -1    0    0    0    0  0.00000000000E+00  0.00000000000E+00  0.45593999997E+02  0.45594000000E+02  0.51100000000E-03 0.  1.
         11   -1    0    0    0    0 -0.00000000000E+00 -0.00000000000E+00 -0.45593999997E+02  0.45594000000E+02  0.51100000000E-03 0. -1.
    9900012    2    1    2    0    0  0.29748261221E+02 -0.65354622576E+01 -0.94368905205E+01  0.59301855434E+02  0.49999838426E+02 0.  0.
        -12    1    1    2    0    0 -0.29748261221E+02  0.65354622576E+01  0.94368905205E+01  0.31886144566E+02  0.00000000000E+00 0.  1.
         11    1    3    3    0    0  0.15994880644E+02  0.64952031758E+00 -0.10075719019E+02  0.18915025706E+02  0.51100000000E-03 0. -1.
        -11    1    3    3    0    0  0.65560756887E+00 -0.20085790643E+02 -0.57849672564E+01  0.20912547752E+02  0.51100000000E-03 0.  1.
        -12    1    3    3    0    0  0.13097773009E+02  0.12900808068E+02  0.64237957547E+01  0.19474281976E+02  0.00000000000E+00 0.  1.
</event>
<event>
 7    1  0.1139627E-011  0.5930188E+02  0.7816164E-02  0.1266605E+00
        -11   -1    0    0    0    0  0.00000000000E+00  0.00000000000E+00  0.45593999997E+02  0.45594000000E+02  0.51100000000E-03 0. -1.
         11   -1    0    0    0    0 -0.00000000000E+00 -0.00000000000E+00 -0.45593999997E+02  0.45594000000E+02  0.51100000000E-03 0.  1.
    9900012    2    1    2    0    0 -0.12551566338E+02  0.25217312278E+02  0.14942216621E+02  0.59301882431E+02  0.49999887663E+02 0.  0.
        -12    1    1    2    0    0  0.12551566338E+02 -0.25217312278E+02 -0.14942216621E+02  0.31886117569E+02  0.00000000000E+00 0.  1.
         11    1    3    3    0    0 -0.17783239372E+02  0.13572784381E+02 -0.10603367339E+02  0.24756725906E+02  0.51100000000E-03 0. -1.
        -11    1    3    3    0    0  0.91942013147E+01  0.82163549215E+01  0.49390761445E+01  0.13282932637E+02  0.51100000000E-03 0.  1.
         12    1    3    3    0    0 -0.39625282813E+01  0.34281729749E+01  0.20606507815E+02  0.21262223888E+02  0.00000000000E+00 0. -1.
</event>
<event>
 7    1  0.1139627E-011  0.5930196E+02  0.7816164E-02  0.1266605E+00
        -11   -1    0    0    0    0  0.00000000000E+00  0.00000000000E+00  0.45593999997E+02  0.45594000000E+02  0.51100000000E-03 0.  1.
         11   -1    0    0    0    0 -0.00000000000E+00 -0.00000000000E+00 -0.45593999997E+02  0.45594000000E+02  0.51100000000E-03 0. -1.
    9900012    2    1    2    0    0 -0.53645493588E+01  0.22007757818E+02 -0.22441031062E+02  0.59301958083E+02  0.50000025634E+02 0.  0.
        -12    1    1    2    0    0  0.53645493588E+01 -0.22007757818E+02  0.22441031062E+02  0.31886041917E+02  0.00000000000E+00 0.  1.
         11    1    3    3    0    0 -0.19000451767E+01 -0.13605557355E+01 -0.30865022849E+01  0.38714054553E+01  0.51100000000E-03 0. -1.
        -11    1    3    3    0    0  0.16816793649E+02  0.19749773740E+02 -0.22808950297E+02  0.34541371214E+02  0.51100000000E-03 0.  1.
        -12    1    3    3    0    0 -0.20281297832E+02  0.36185398133E+01  0.34544215197E+01  0.20889181414E+02  0.00000000000E+00 0.  1.
</event>
<event>
 7    1  0.1139627E-011  0.5930194E+02  0.7816164E-02  0.1266605E+00
        -11   -1    0    0    0    0  0.00000000000E+00  0.00000000000E+00  0.45593999997E+02  0.45594000000E+02  0.51100000000E-03 0. -1.
         11   -1    0    0    0    0 -0.00000000000E+00 -0.00000000000E+00 -0.45593999997E+02  0.45594000000E+02  0.51100000000E-03 0.  1.
    9900012    2    1    2    0    0 -0.64751611515E+01 -0.24255871033E+02  0.19658231647E+02  0.59301936227E+02  0.49999985773E+02 0.  0.
        -12    1    1    2    0    0  0.64751611515E+01  0.24255871033E+02 -0.19658231647E+02  0.31886063773E+02  0.00000000000E+00 0.  1.
         11    1    3    3    0    0  0.96254039598E+01 -0.18169647982E+02  0.29942472317E+02  0.36322667274E+02  0.51100000000E-03 0. -1.
        -11    1    3    3    0    0 -0.95071754485E+01 -0.74813074476E+01 -0.19383822204E+01  0.12252088476E+02  0.51100000000E-03 0.  1.
         12    1    3    3    0    0 -0.65933896628E+01  0.13950843966E+01 -0.83458584498E+01  0.10727180477E+02  0.00000000000E+00 0. -1.
</event>
<event>
 7    1  0.1139627E-011  0.5930199E+02  0.7816164E-02  0.1266605E+00
        -11   -1    0    0    0    0  0.00000000000E+00  0.00000000000E+00  0.45593999997E+02  0.45594000000E+02  0.51100000000E-03 0. -1.
         11   -1    0    0    0    0 -0.00000000000E+00 -0.00000000000E+00 -0.45593999997E+02  0.45594000000E+02  0.51100000000E-03 0.  1.
    9900012    2    1    2    0    0  0.25454823375E+02 -0.21356200511E+01  0.19084252811E+02  0.59301990350E+02  0.50000084481E+02 0.  0.
        -12    1    1    2    0    0 -0.25454823375E+02  0.21356200511E+01 -0.19084252811E+02  0.31886009650E+02  0.00000000000E+00 0.  1.
         11    1    3    3    0    0  0.16085389052E+02 -0.20546732893E+01  0.14974988165E+02  0.22072872357E+02  0.51100000000E-03 0. -1.
        -11    1    3    3    0    0 -0.13422446007E+02  0.33808224733E+01  0.17657177903E+00  0.13842803013E+02  0.51100000000E-03 0.  1.
        -12    1    3    3    0    0  0.22791880329E+02 -0.34617692350E+01  0.39326928665E+01  0.23386314980E+02  0.00000000000E+00 0.  1.
</event>
<event>
 7    1  0.1139627E-011  0.5930196E+02  0.7816164E-02  0.1266605E+00
        -11   -1    0    0    0    0  0.00000000000E+00  0.00000000000E+00  0.45593999997E+02  0.45594000000E+02  0.51100000000E-03 0. -1.
         11   -1    0    0    0    0 -0.00000000000E+00 -0.00000000000E+00 -0.45593999997E+02  0.45594000000E+02  0.51100000000E-03 0.  1.
    9900012    2    1    2    0    0  0.26432619393E+02  0.17750668024E+02 -0.17175387209E+01  0.59301960382E+02  0.50000029826E+02 0.  0.
        -12    1    1    2    0    0 -0.26432619393E+02 -0.17750668024E+02  0.17175387209E+01  0.31886039618E+02  0.00000000000E+00 0.  1.
         11    1    3    3    0    0  0.20986217248E+02  0.25194832529E+02 -0.45806532951E+01  0.33108658768E+02  0.51100000000E-03 0. -1.
        -11    1    3    3    0    0  0.13989862481E+01 -0.14519243913E+02 -0.44419932629E+01  0.15247849381E+02  0.51100000000E-03 0.  1.
        -12    1    3    3    0    0  0.40474158962E+01  0.70750794084E+01  0.73051078370E+01  0.10945452233E+02  0.00000000000E+00 0.  1.
</event>
<event>
 7    1  0.1139627E-011  0.5930196E+02  0.7816164E-02  0.1266605E+00
        -11   -1    0    0    0    0  0.00000000000E+00  0.00000000000E+00  0.45593999997E+02  0.45594000000E+02  0.51100000000E-03 0.  1.
         11   -1    0    0    0    0 -0.00000000000E+00 -0.00000000000E+00 -0.45593999997E+02  0.45594000000E+02  0.51100000000E-03 0. -1.
    9900012    2    1    2    0    0  0.19885290798E+02  0.59895716041E+01 -0.24195454105E+02  0.59301956698E+02  0.50000023108E+02 0.  0.
        -12    1    1    2    0    0 -0.19885290798E+02 -0.59895716041E+01  0.24195454105E+02  0.31886043302E+02  0.00000000000E+00 0.  1.
         11    1    3    3    0    0  0.20281993681E+02 -0.11954638754E+02 -0.30550417834E+02  0.38569426824E+02  0.51100000000E-03 0. -1.
        -11    1    3    3    0    0  0.11777879571E+01  0.10091107090E+01  0.30279399794E+01  0.34020449254E+01  0.51100000000E-03 0.  1.
         12    1    3    3    0    0 -0.15744908404E+01  0.16935099649E+02  0.33270237498E+01  0.17330484949E+02  0.00000000000E+00 0. -1.
</event>
<event>
 7    1  0.1139627E-011  0.5930196E+02  0.7816164E-02  0.1266605E+00
        -11   -1    0    0    0    0  0.00000000000E+00  0.00000000000E+00  0.45593999997E+02  0.45594000000E+02  0.51100000000E-03 0. -1.
         11   -1    0    0    0    0 -0.00000000000E+00 -0.00000000000E+00 -0.45593999997E+02  0.45594000000E+02  0.51100000000E-03 0.  1.
    9900012    2    1    2    0    0  0.22774079293E+02  0.41632869631E+01  0.21925511121E+02  0.59301957852E+02  0.50000025212E+02 0.  0.
        -12    1    1    2    0    0 -0.22774079293E+02 -0.41632869631E+01 -0.21925511121E+02  0.31886042148E+02  0.00000000000E+00 0.  1.
         11    1    3    3    0    0 -0.55313069986E+01  0.34016662344E+01  0.13030611133E+02  0.14558966895E+02  0.51100000000E-03 0. -1.
        -11    1    3    3    0    0  0.31475607047E+02  0.70708210254E-01 -0.37409451194E+01  0.31697216112E+02  0.51100000000E-03 0.  1.
        -12    1    3    3    0    0 -0.31702207553E+01  0.69091251840E+00  0.12635845107E+02  0.13045774845E+02  0.00000000000E+00 0.  1.
</event>
<event>
 7    1  0.1139627E-011  0.5930197E+02  0.7816164E-02  0.1266605E+00
        -11   -1    0    0    0    0  0.00000000000E+00  0.00000000000E+00  0.45593999997E+02  0.45594000000E+02  0.51100000000E-03 0.  1.
         11   -1    0    0    0    0 -0.00000000000E+00 -0.00000000000E+00 -0.45593999997E+02  0.45594000000E+02  0.51100000000E-03 0. -1.
    9900012    2    1    2    0    0 -0.34852238238E+00 -0.30797537100E+02 -0.82528251889E+01  0.59301970412E+02  0.50000048119E+02 0.  0.
        -12    1    1    2    0    0  0.34852238238E+00  0.30797537100E+02  0.82528251889E+01  0.31886029588E+02  0.00000000000E+00 0.  1.
         11    1    3    3    0    0  0.14769921560E+02 -0.37956170975E+02 -0.59649522648E+01  0.41163116424E+02  0.51100000000E-03 0. -1.
        -11    1    3    3    0    0 -0.20832385803E+01  0.19557770424E+01 -0.29251839091E+01  0.40892111690E+01  0.51100000000E-03 0.  1.
         12    1    3    3    0    0 -0.13035205362E+02  0.52028568329E+01  0.63731098505E+00  0.14049642819E+02  0.00000000000E+00 0. -1.
</event>
<event>
 7    1  0.1139627E-011  0.5930190E+02  0.7816164E-02  0.1266605E+00
        -11   -1    0    0    0    0  0.00000000000E+00  0.00000000000E+00  0.45593999997E+02  0.45594000000E+02  0.51100000000E-03 0.  1.
         11   -1    0    0    0    0 -0.00000000000E+00 -0.00000000000E+00 -0.45593999997E+02  0.45594000000E+02  0.51100000000E-03 0. -1.
    9900012    2    1    2    0    0 -0.47359136470E+01 -0.28058582086E+02 -0.14387860117E+02  0.59301899180E+02  0.49999918208E+02 0.  0.
        -12    1    1    2    0    0  0.47359136470E+01  0.28058582086E+02  0.14387860117E+02  0.31886100820E+02  0.00000000000E+00 0.  1.
         11    1    3    3    0    0 -0.54479846400E+01 -0.23430073530E+02 -0.29319837729E+01  0.24233146956E+02  0.51100000000E-03 0. -1.
        -11    1    3    3    0    0 -0.14222062903E+00  0.40607021768E+01 -0.21430686067E+02  0.21812469701E+02  0.51100000000E-03 0.  1.
        -12    1    3    3    0    0  0.85429162207E+00 -0.86892107329E+01  0.99748097227E+01  0.13256282523E+02  0.00000000000E+00 0.  1.
</event>
<event>
 7    1  0.1139627E-011  0.5930194E+02  0.7816164E-02  0.1266605E+00
        -11   -1    0    0    0    0  0.00000000000E+00  0.00000000000E+00  0.45593999997E+02  0.45594000000E+02  0.51100000000E-03 0.  1.
         11   -1    0    0    0    0 -0.00000000000E+00 -0.00000000000E+00 -0.45593999997E+02  0.45594000000E+02  0.51100000000E-03 0. -1.
    9900012    2    1    2    0    0  0.74276598641E+01  0.65951607839E+01 -0.30299416822E+02  0.59301938209E+02  0.49999989388E+02 0.  0.
        -12    1    1    2    0    0 -0.74276598641E+01 -0.65951607839E+01  0.30299416822E+02  0.31886061791E+02  0.00000000000E+00 0.  1.
         11    1    3    3    0    0  0.13174889401E+02  0.23586577432E+02 -0.19626377337E+02  0.33393098588E+02  0.51100000000E-03 0. -1.
        -11    1    3    3    0    0  0.35183801414E+01 -0.90384431499E+01 -0.96071009455E+01  0.13651697412E+02  0.51100000000E-03 0.  1.
         12    1    3    3    0    0 -0.92656096780E+01 -0.79529734980E+01 -0.10659385395E+01  0.12257142209E+02  0.00000000000E+00 0. -1.
</event>
<event>
 7    1  0.1139627E-011  0.5930195E+02  0.7816164E-02  0.1266605E+00
        -11   -1    0    0    0    0  0.00000000000E+00  0.00000000000E+00  0.45593999997E+02  0.45594000000E+02  0.51100000000E-03 0.  1.
         11   -1    0    0    0    0 -0.00000000000E+00 -0.00000000000E+00 -0.45593999997E+02  0.45594000000E+02  0.51100000000E-03 0. -1.
    9900012    2    1    2    0    0  0.12502157953E+02 -0.80104725585E+01 -0.28217874076E+02  0.59301952244E+02  0.50000014985E+02 0.  0.
        -12    1    1    2    0    0 -0.12502157953E+02  0.80104725585E+01  0.28217874076E+02  0.31886047756E+02  0.00000000000E+00 0.  1.
         11    1    3    3    0    0  0.59388492364E+01 -0.16142272713E-01 -0.34337994292E+02  0.34847783905E+02  0.51100000000E-03 0. -1.
        -11    1    3    3    0    0  0.15605665238E+01 -0.14980901913E+02  0.43905117022E+01  0.15688829888E+02  0.51100000000E-03 0.  1.
         12    1    3    3    0    0  0.50027421931E+01  0.69865716269E+01  0.17296085139E+01  0.87653384510E+01  0.00000000000E+00 0. -1.
</event>
<event>
 7    1  0.1139627E-011  0.5930195E+02  0.7816164E-02  0.1266605E+00
        -11   -1    0    0    0    0  0.00000000000E+00  0.00000000000E+00  0.45593999997E+02  0.45594000000E+02  0.51100000000E-03 0.  1.
         11   -1    0    0    0    0 -0.00000000000E+00 -0.00000000000E+00 -0.45593999997E+02  0.45594000000E+02  0.51100000000E-03 0. -1.
    9900012    2    1    2    0    0  0.20354801261E+01 -0.24642066580E+02 -0.20133189853E+02  0.59301953548E+02  0.50000017362E+02 0.  0.
        -12    1    1    2    0    0 -0.20354801261E+01  0.24642066580E+02  0.20133189853E+02  0.31886046452E+02  0.00000000000E+00 0.  1.
         11    1    3    3    0    0 -0.78773330336E+01  0.12347521285E+02 -0.99914209109E+01  0.17729696830E+02  0.51100000000E-03 0. -1.
        -11    1    3    3    0    0  0.95474426377E+01 -0.12074867646E+02 -0.42048046971E+01  0.15957332872E+02  0.51100000000E-03 0.  1.
         12    1    3    3    0    0  0.36537052196E+00 -0.24914720218E+02 -0.59369642451E+01  0.25614923846E+02  0.00000000000E+00 0. -1.
</event>
<event>
 7    1  0.1139627E-011  0.5930195E+02  0.7816164E-02  0.1266605E+00
        -11   -1    0    0    0    0  0.00000000000E+00  0.00000000000E+00  0.45593999997E+02  0.45594000000E+02  0.51100000000E-03 0.  1.
         11   -1    0    0    0    0 -0.00000000000E+00 -0.00000000000E+00 -0.45593999997E+02  0.45594000000E+02  0.51100000000E-03 0. -1.
    9900012    2    1    2    0    0  0.22573361976E+02 -0.17943977515E+02  0.13607989279E+02  0.59301947059E+02  0.50000005529E+02 0.  0.
        -12    1    1    2    0    0 -0.22573361976E+02  0.17943977515E+02 -0.13607989279E+02  0.31886052941E+02  0.00000000000E+00 0.  1.
         11    1    3    3    0    0  0.16189334680E+02 -0.20192876148E+02  0.25474474469E+02  0.36315226204E+02  0.51100000000E-03 0. -1.
        -11    1    3    3    0    0 -0.24446955430E+01  0.67682209244E+01 -0.10845971050E+02  0.13016160688E+02  0.51100000000E-03 0.  1.
        -12    1    3    3    0    0  0.88287228385E+01 -0.45193222915E+01 -0.10205141404E+01  0.99705601670E+01  0.00000000000E+00 0.  1.
</event>
<event>
 7    1  0.1139627E-011  0.5930192E+02  0.7816164E-02  0.1266605E+00
        -11   -1    0    0    0    0  0.00000000000E+00  0.00000000000E+00  0.45593999997E+02  0.45594000000E+02  0.51100000000E-03 0.  1.
         11   -1    0    0    0    0 -0.00000000000E+00 -0.00000000000E+00 -0.45593999997E+02  0.45594000000E+02  0.51100000000E-03 0. -1.
    9900012    2    1    2    0    0 -0.26820304672E+01  0.92131564653E+01 -0.30407996785E+02  0.59301924544E+02  0.49999964467E+02 0.  0.
        -12    1    1    2    0    0  0.26820304672E+01 -0.92131564653E+01  0.30407996785E+02  0.31886075456E+02  0.00000000000E+00 0.  1.
         11    1    3    3    0    0 -0.29934038387E+01  0.19426634631E+02 -0.27730090239E+02  0.33989888269E+02  0.51100000000E-03 0. -1.
        -11    1    3    3    0    0 -0.65716222784E+01  0.99175176748E+00  0.64837822034E+01  0.92848921835E+01  0.51100000000E-03 0.  1.
        -12    1    3    3    0    0  0.68829956499E+01 -0.11205229933E+02 -0.91616887499E+01  0.16027144091E+02  0.00000000000E+00 0.  1.
</event>
<event>
 7    1  0.1139627E-011  0.5930193E+02  0.7816164E-02  0.1266605E+00
        -11   -1    0    0    0    0  0.00000000000E+00  0.00000000000E+00  0.45593999997E+02  0.45594000000E+02  0.51100000000E-03 0. -1.
         11   -1    0    0    0    0 -0.00000000000E+00 -0.00000000000E+00 -0.45593999997E+02  0.45594000000E+02  0.51100000000E-03 0.  1.
    9900012    2    1    2    0    0 -0.23607009468E+02  0.72866998208E+01  0.20157734360E+02  0.59301934943E+02  0.49999983431E+02 0.  0.
        -12    1    1    2    0    0  0.23607009468E+02 -0.72866998208E+01 -0.20157734360E+02  0.31886065057E+02  0.00000000000E+00 0.  1.
         11    1    3    3    0    0 -0.61556137041E+01  0.27677049461E+01  0.73377372893E+01  0.99696619567E+01  0.51100000000E-03 0. -1.
        -11    1    3    3    0    0 -0.12554977832E+02 -0.17253873588E+02 -0.35814489062E+01  0.21636783465E+02  0.51100000000E-03 0.  1.
        -12    1    3    3    0    0 -0.48964179322E+01  0.21772868463E+02  0.16401445977E+02  0.27695489521E+02  0.00000000000E+00 0.  1.
</event>
<event>
 7    1  0.1139627E-011  0.5930192E+02  0.7816164E-02  0.1266605E+00
        -11   -1    0    0    0    0  0.00000000000E+00  0.00000000000E+00  0.45593999997E+02  0.45594000000E+02  0.51100000000E-03 0. -1.
         11   -1    0    0    0    0 -0.00000000000E+00 -0.00000000000E+00 -0.45593999997E+02  0.45594000000E+02  0.51100000000E-03 0.  1.
    9900012    2    1    2    0    0 -0.15951725930E+02  0.26665680285E+02 -0.71558574646E+01  0.59301915868E+02  0.49999948643E+02 0.  0.
        -12    1    1    2    0    0  0.15951725930E+02 -0.26665680285E+02  0.71558574646E+01  0.31886084132E+02  0.00000000000E+00 0.  1.
         11    1    3    3    0    0 -0.65164932701E+01  0.15182222556E+02  0.65246947546E+01  0.17763338880E+02  0.51100000000E-03 0. -1.
        -11    1    3    3    0    0 -0.19917073048E+02  0.25928809788E+01 -0.18165006956E+02  0.27080995338E+02  0.51100000000E-03 0.  1.
        -12    1    3    3    0    0  0.10481840387E+02  0.88905767507E+01  0.44844547366E+01  0.14457581649E+02  0.00000000000E+00 0.  1.
</event>
<event>
 7    1  0.1139627E-011  0.5930195E+02  0.7816164E-02  0.1266605E+00
        -11   -1    0    0    0    0  0.00000000000E+00  0.00000000000E+00  0.45593999997E+02  0.45594000000E+02  0.51100000000E-03 0. -1.
         11   -1    0    0    0    0 -0.00000000000E+00 -0.00000000000E+00 -0.45593999997E+02  0.45594000000E+02  0.51100000000E-03 0.  1.
    9900012    2    1    2    0    0 -0.95985646384E+01 -0.11645072699E+02  0.28088787061E+02  0.59301951015E+02  0.50000012744E+02 0.  0.
        -12    1    1    2    0    0  0.95985646384E+01  0.11645072699E+02 -0.28088787061E+02  0.31886048985E+02  0.00000000000E+00 0.  1.
         11    1    3    3    0    0 -0.12348646547E+02  0.46783314462E+01  0.29506872729E+02  0.32326945343E+02  0.51100000000E-03 0. -1.
        -11    1    3    3    0    0 -0.35838236154E+01 -0.19417043934E+02  0.18543933693E+00  0.19745879946E+02  0.51100000000E-03 0.  1.
        -12    1    3    3    0    0  0.63339055241E+01  0.30936397883E+01 -0.16035250050E+01  0.72291257265E+01  0.00000000000E+00 0.  1.
</event>
<event>
 7    1  0.1139627E-011  0.5930196E+02  0.7816164E-02  0.1266605E+00
        -11   -1    0    0    0    0  0.00000000000E+00  0.00000000000E+00  0.45593999997E+02  0.45594000000E+02  0.51100000000E-03 0. -1.
         11   -1    0    0    0    0 -0.00000000000E+00 -0.00000000000E+00 -0.45593999997E+02  0.45594000000E+02  0.51100000000E-03 0.  1.
    9900012    2    1    2    0    0 -0.10284903768E+02  0.29567456925E+02 -0.60585565925E+01  0.59301955051E+02  0.50000020103E+02 0.  0.
        -12    1    1    2    0    0  0.10284903768E+02 -0.29567456925E+02  0.60585565925E+01  0.31886044949E+02  0.00000000000E+00 0.  1.
         11    1    3    3    0    0  0.12498382421E+02  0.24974112917E+02  0.20300374789E+01  0.28000659484E+02  0.51100000000E-03 0. -1.
        -11    1    3    3    0    0 -0.62995553323E+01 -0.42726496032E+01 -0.99101607822E+01  0.12496048136E+02  0.51100000000E-03 0.  1.
         12    1    3    3    0    0 -0.16483730856E+02  0.88659936114E+01  0.18215667107E+01  0.18805247431E+02  0.00000000000E+00 0. -1.
</event>
<event>
 7    1  0.1139627E-011  0.5930198E+02  0.7816164E-02  0.1266605E+00
        -11   -1    0    0    0    0  0.00000000000E+00  0.00000000000E+00  0.45593999997E+02  0.45594000000E+02  0.51100000000E-03 0.  1.
         11   -1    0    0    0    0 -0.00000000000E+00 -0.00000000000E+00 -0.45593999997E+02  0.45594000000E+02  0.51100000000E-03 0. -1.
    9900012    2    1    2    0    0  0.11458053136E+02  0.29739464289E+02 -0.99787530992E+00  0.59301976839E+02  0.50000059841E+02 0.  0.
        -12    1    1    2    0    0 -0.11458053136E+02 -0.29739464289E+02  0.99787530992E+00  0.31886023161E+02  0.00000000000E+00 0.  1.
         11    1    3    3    0    0  0.55008127314E+01 -0.12184868312E+02 -0.45320221307E+01  0.14116273635E+02  0.51100000000E-03 0. -1.
        -11    1    3    3    0    0 -0.33939923798E+01  0.12360175480E+02  0.58540105072E+01  0.14091222852E+02  0.51100000000E-03 0.  1.
         12    1    3    3    0    0  0.93512327845E+01  0.29564157121E+02 -0.23198636864E+01  0.31094480352E+02  0.00000000000E+00 0. -1.
</event>
<event>
 7    1  0.1139627E-011  0.5930192E+02  0.7816164E-02  0.1266605E+00
        -11   -1    0    0    0    0  0.00000000000E+00  0.00000000000E+00  0.45593999997E+02  0.45594000000E+02  0.51100000000E-03 0.  1.
         11   -1    0    0    0    0 -0.00000000000E+00 -0.00000000000E+00 -0.45593999997E+02  0.45594000000E+02  0.51100000000E-03 0. -1.
    9900012    2    1    2    0    0  0.25143681382E+02 -0.89260359117E+01 -0.17459753361E+02  0.59301924388E+02  0.49999964181E+02 0.  0.
        -12    1    1    2    0    0 -0.25143681382E+02  0.89260359117E+01  0.17459753361E+02  0.31886075612E+02  0.00000000000E+00 0.  1.
         11    1    3    3    0    0  0.75464134977E+01  0.10646075238E+02 -0.17402167718E+02  0.21751384236E+02  0.51100000000E-03 0. -1.
        -11    1    3    3    0    0  0.23064019426E+02 -0.17640362128E+02  0.54612973092E+01  0.29545848044E+02  0.51100000000E-03 0.  1.
         12    1    3    3    0    0 -0.54667515414E+01 -0.19317490215E+01 -0.55188829517E+01  0.80046921073E+01  0.00000000000E+00 0. -1.
</event>
<event>
 7    1  0.1139627E-011  0.5930186E+02  0.7816164E-02  0.1266605E+00
        -11   -1    0    0    0    0  0.00000000000E+00  0.00000000000E+00  0.45593999997E+02  0.45594000000E+02  0.51100000000E-03 0.  1.
         11   -1    0    0    0    0 -0.00000000000E+00 -0.00000000000E+00 -0.45593999997E+02  0.45594000000E+02  0.51100000000E-03 0. -1.
    9900012    2    1    2    0    0  0.19404981499E+02 -0.64453691241E+01  0.24466913282E+02  0.59301859818E+02  0.49999846422E+02 0.  0.
        -12    1    1    2    0    0 -0.19404981499E+02  0.64453691241E+01 -0.24466913282E+02  0.31886140182E+02  0.00000000000E+00 0.  1.
         11    1    3    3    0    0  0.15046956048E+02 -0.19680288121E+02  0.17714835590E+02  0.30455541812E+02  0.51100000000E-03 0.  1.
        -11    1    3    3    0    0 -0.75775005090E+01  0.13776184642E+02  0.61522378253E+01  0.16883477361E+02  0.51100000000E-03 0. -1.
        -12    1    3    3    0    0  0.11935525961E+02 -0.54126564556E+00  0.59983986734E+00  0.11962840646E+02  0.00000000000E+00 0.  1.
</event>
<event>
 7    1  0.1139627E-011  0.5930194E+02  0.7816164E-02  0.1266605E+00
        -11   -1    0    0    0    0  0.00000000000E+00  0.00000000000E+00  0.45593999997E+02  0.45594000000E+02  0.51100000000E-03 0.  1.
         11   -1    0    0    0    0 -0.00000000000E+00 -0.00000000000E+00 -0.45593999997E+02  0.45594000000E+02  0.51100000000E-03 0. -1.
    9900012    2    1    2    0    0 -0.25412715118E+02  0.15015645911E+02 -0.12060066546E+02  0.59301938517E+02  0.49999989950E+02 0.  0.
        -12    1    1    2    0    0  0.25412715118E+02 -0.15015645911E+02  0.12060066546E+02  0.31886061483E+02  0.00000000000E+00 0.  1.
         11    1    3    3    0    0 -0.23814352981E+02 -0.35596217948E+01 -0.49751295116E+01  0.24587521818E+02  0.51100000000E-03 0. -1.
        -11    1    3    3    0    0  0.13259932651E+02  0.73763101690E+01 -0.12968317425E+01  0.15228839038E+02  0.51100000000E-03 0.  1.
         12    1    3    3    0    0 -0.14858294788E+02  0.11198957537E+02 -0.57881052920E+01  0.19485577661E+02  0.00000000000E+00 0. -1.
</event>
<event>
 7    1  0.1139627E-011  0.5930196E+02  0.7816164E-02  0.1266605E+00
        -11   -1    0    0    0    0  0.00000000000E+00  0.00000000000E+00  0.45593999997E+02  0.45594000000E+02  0.51100000000E-03 0.  1.
         11   -1    0    0    0    0 -0.00000000000E+00 -0.00000000000E+00 -0.45593999997E+02  0.45594000000E+02  0.51100000000E-03 0. -1.
    9900012    2    1    2    0    0 -0.88144490209E+01 -0.61409504314E+01 -0.30021893101E+02  0.59301955261E+02  0.50000020486E+02 0.  0.
        -12    1    1    2    0    0  0.88144490209E+01  0.61409504314E+01  0.30021893101E+02  0.31886044739E+02  0.00000000000E+00 0.  1.
         11    1    3    3    0    0 -0.19311159914E+02 -0.83143854745E+01 -0.75905717872E+01  0.22353225346E+02  0.51100000000E-03 0. -1.
        -11    1    3    3    0    0  0.12537844839E+02  0.13146425380E+02 -0.13041462150E+02  0.22363045158E+02  0.51100000000E-03 0.  1.
        -12    1    3    3    0    0 -0.20411339455E+01 -0.10972990336E+02 -0.93898591636E+01  0.14585684757E+02  0.00000000000E+00 0.  1.
</event>
<event>
 7    1  0.1139627E-011  0.5930195E+02  0.7816164E-02  0.1266605E+00
        -11   -1    0    0    0    0  0.00000000000E+00  0.00000000000E+00  0.45593999997E+02  0.45594000000E+02  0.51100000000E-03 0. -1.
         11   -1    0    0    0    0 -0.00000000000E+00 -0.00000000000E+00 -0.45593999997E+02  0.45594000000E+02  0.51100000000E-03 0.  1.
    9900012    2    1    2    0    0 -0.31825439897E+02  0.98780060320E+00 -0.16988568807E+01  0.59301945221E+02  0.50000002177E+02 0.  0.
        -12    1    1    2    0    0  0.31825439897E+02 -0.98780060320E+00  0.16988568807E+01  0.31886054779E+02  0.00000000000E+00 0.  1.
         11    1    3    3    0    0 -0.30132832666E+02 -0.18297971956E+01  0.94346520082E+01  0.31628285142E+02  0.51100000000E-03 0. -1.
        -11    1    3    3    0    0  0.48760305803E+01 -0.97141070483E+01 -0.70194954723E+01  0.12938812423E+02  0.51100000000E-03 0.  1.
         12    1    3    3    0    0 -0.65686378112E+01  0.12531704847E+02 -0.41140134166E+01  0.14734847657E+02  0.00000000000E+00 0. -1.
</event>
<event>
 7    1  0.1139627E-011  0.5930193E+02  0.7816164E-02  0.1266605E+00
        -11   -1    0    0    0    0  0.00000000000E+00  0.00000000000E+00  0.45593999997E+02  0.45594000000E+02  0.51100000000E-03 0.  1.
         11   -1    0    0    0    0 -0.00000000000E+00 -0.00000000000E+00 -0.45593999997E+02  0.45594000000E+02  0.51100000000E-03 0. -1.
    9900012    2    1    2    0    0 -0.19769636373E+02 -0.20673567568E+02 -0.14088519697E+02  0.59301932423E+02  0.49999978835E+02 0.  0.
        -12    1    1    2    0    0  0.19769636373E+02  0.20673567568E+02  0.14088519697E+02  0.31886067577E+02  0.00000000000E+00 0.  1.
         11    1    3    3    0    0 -0.21047981132E+02  0.50333862070E+01  0.52441789555E+01  0.22267777160E+02  0.51100000000E-03 0. -1.
        -11    1    3    3    0    0  0.96994949307E+01 -0.11261112618E+02 -0.93892532061E+01  0.17579844577E+02  0.51100000000E-03 0.  1.
         12    1    3    3    0    0 -0.84211501710E+01 -0.14445841157E+02 -0.99434454469E+01  0.19454310686E+02  0.00000000000E+00 0. -1.
</event>
<event>
 7    1  0.1139627E-011  0.5930193E+02  0.7816164E-02  0.1266605E+00
        -11   -1    0    0    0    0  0.00000000000E+00  0.00000000000E+00  0.45593999997E+02  0.45594000000E+02  0.51100000000E-03 0. -1.
         11   -1    0    0    0    0 -0.00000000000E+00 -0.00000000000E+00 -0.45593999997E+02  0.45594000000E+02  0.51100000000E-03 0.  1.
    9900012    2    1    2    0    0  0.15105122689E+02  0.27217604346E+02 -0.69107769006E+01  0.59301928509E+02  0.49999971697E+02 0.  0.
        -12    1    1    2    0    0 -0.15105122689E+02 -0.27217604346E+02  0.69107769006E+01  0.31886071491E+02  0.00000000000E+00 0.  1.
         11    1    3    3    0    0  0.17180243891E+02  0.13488834358E+02  0.39229160367E+01  0.22192311799E+02  0.51100000000E-03 0. -1.
        -11    1    3    3    0    0 -0.81197153408E+01  0.22622679963E+02 -0.10813232989E+02  0.26356051181E+02  0.51100000000E-03 0.  1.
        -12    1    3    3    0    0  0.60445941387E+01 -0.88939099759E+01 -0.20459948519E-01  0.10753565528E+02  0.00000000000E+00 0.  1.
</event>
<event>
 7    1  0.1139627E-011  0.5930195E+02  0.7816164E-02  0.1266605E+00
        -11   -1    0    0    0    0  0.00000000000E+00  0.00000000000E+00  0.45593999997E+02  0.45594000000E+02  0.51100000000E-03 0. -1.
         11   -1    0    0    0    0 -0.00000000000E+00 -0.00000000000E+00 -0.45593999997E+02  0.45594000000E+02  0.51100000000E-03 0.  1.
    9900012    2    1    2    0    0 -0.15087190470E+02  0.66269738120E+01  0.27297987259E+02  0.59301949655E+02  0.50000010263E+02 0.  0.
        -12    1    1    2    0    0  0.15087190470E+02 -0.66269738120E+01 -0.27297987259E+02  0.31886050345E+02  0.00000000000E+00 0.  1.
         11    1    3    3    0    0 -0.14230236844E+02 -0.76508847830E+01  0.18527437649E+02  0.24582547157E+02  0.51100000000E-03 0. -1.
        -11    1    3    3    0    0 -0.12252184105E+02  0.11840678936E+02 -0.39267628486E+01  0.17485341282E+02  0.51100000000E-03 0.  1.
        -12    1    3    3    0    0  0.11395230479E+02  0.24371796587E+01  0.12697312458E+02  0.17234061217E+02  0.00000000000E+00 0.  1.
</event>
<event>
 7    1  0.1139627E-011  0.5930198E+02  0.7816164E-02  0.1266605E+00
        -11   -1    0    0    0    0  0.00000000000E+00  0.00000000000E+00  0.45593999997E+02  0.45594000000E+02  0.51100000000E-03 0. -1.
         11   -1    0    0    0    0 -0.00000000000E+00 -0.00000000000E+00 -0.45593999997E+02  0.45594000000E+02  0.51100000000E-03 0.  1.
    9900012    2    1    2    0    0  0.25429164853E+02  0.18053197048E+02  0.66451412553E+01  0.59301980319E+02  0.50000066187E+02 0.  0.
        -12    1    1    2    0    0 -0.25429164853E+02 -0.18053197048E+02 -0.66451412553E+01  0.31886019681E+02  0.00000000000E+00 0.  1.
         11    1    3    3    0    0  0.62869229564E+01 -0.19759265809E+01 -0.96480216167E+01  0.11683920895E+02  0.51100000000E-03 0. -1.
        -11    1    3    3    0    0  0.16502454165E+02  0.30076838118E+02  0.11560090252E+02  0.36201973310E+02  0.51100000000E-03 0.  1.
         12    1    3    3    0    0  0.26397877321E+01 -0.10047714489E+02  0.47330726200E+01  0.11416086114E+02  0.00000000000E+00 0. -1.
</event>
<event>
 7    1  0.1139627E-011  0.5930187E+02  0.7816164E-02  0.1266605E+00
        -11   -1    0    0    0    0  0.00000000000E+00  0.00000000000E+00  0.45593999997E+02  0.45594000000E+02  0.51100000000E-03 0. -1.
         11   -1    0    0    0    0 -0.00000000000E+00 -0.00000000000E+00 -0.45593999997E+02  0.45594000000E+02  0.51100000000E-03 0.  1.
    9900012    2    1    2    0    0 -0.30355617817E+02  0.47711337570E+01 -0.85145698365E+01  0.59301872140E+02  0.49999868895E+02 0.  0.
        -12    1    1    2    0    0  0.30355617817E+02 -0.47711337570E+01  0.85145698365E+01  0.31886127860E+02  0.00000000000E+00 0.  1.
         11    1    3    3    0    0  0.12923023555E+01  0.98153380625E+01 -0.11608981759E+02  0.15257108651E+02  0.51100000000E-03 0. -1.
        -11    1    3    3    0    0 -0.15379799825E+02 -0.17536176038E+02  0.16467918361E+00  0.23325583212E+02  0.51100000000E-03 0.  1.
         12    1    3    3    0    0 -0.16268120348E+02  0.12491971733E+02  0.29297327387E+01  0.20719180277E+02  0.00000000000E+00 0. -1.
</event>
<event>
 7    1  0.1139627E-011  0.5930193E+02  0.7816164E-02  0.1266605E+00
        -11   -1    0    0    0    0  0.00000000000E+00  0.00000000000E+00  0.45593999997E+02  0.45594000000E+02  0.51100000000E-03 0.  1.
         11   -1    0    0    0    0 -0.00000000000E+00 -0.00000000000E+00 -0.45593999997E+02  0.45594000000E+02  0.51100000000E-03 0. -1.
    9900012    2    1    2    0    0 -0.96507621713E+01 -0.26691855145E+02 -0.14530285420E+02  0.59301928810E+02  0.49999972246E+02 0.  0.
        -12    1    1    2    0    0  0.96507621713E+01  0.26691855145E+02  0.14530285420E+02  0.31886071190E+02  0.00000000000E+00 0.  1.
         11    1    3    3    0    0 -0.24540385774E+00  0.93229938308E+01 -0.75449490587E+01  0.11996028242E+02  0.51100000000E-03 0. -1.
        -11    1    3    3    0    0 -0.39818502303E+01 -0.16663941866E+02 -0.17613604205E+02  0.24571958471E+02  0.51100000000E-03 0.  1.
        -12    1    3    3    0    0 -0.54235080832E+01 -0.19350907110E+02  0.10628267843E+02  0.22733942096E+02  0.00000000000E+00 0.  1.
</event>
<event>
 7    1  0.1139627E-011  0.5930195E+02  0.7816164E-02  0.1266605E+00
        -11   -1    0    0    0    0  0.00000000000E+00  0.00000000000E+00  0.45593999997E+02  0.45594000000E+02  0.51100000000E-03 0. -1.
         11   -1    0    0    0    0 -0.00000000000E+00 -0.00000000000E+00 -0.45593999997E+02  0.45594000000E+02  0.51100000000E-03 0.  1.
    9900012    2    1    2    0    0 -0.13293098539E+02  0.23442549418E+02 -0.17042906977E+02  0.59301948657E+02  0.50000008443E+02 0.  0.
        -12    1    1    2    0    0  0.13293098539E+02 -0.23442549418E+02  0.17042906977E+02  0.31886051343E+02  0.00000000000E+00 0.  1.
         11    1    3    3    0    0  0.41875376828E+01  0.17845421839E+02  0.47356104036E+01  0.18931998273E+02  0.51100000000E-03 0. -1.
        -11    1    3    3    0    0 -0.35902417672E+01 -0.11433575608E+02 -0.68723274714E+01  0.13814679593E+02  0.51100000000E-03 0.  1.
        -12    1    3    3    0    0 -0.13890394455E+02  0.17030703187E+02 -0.14906189909E+02  0.26555270791E+02  0.00000000000E+00 0.  1.
</event>
<event>
 7    1  0.1139627E-011  0.5930194E+02  0.7816164E-02  0.1266605E+00
        -11   -1    0    0    0    0  0.00000000000E+00  0.00000000000E+00  0.45593999997E+02  0.45594000000E+02  0.51100000000E-03 0.  1.
         11   -1    0    0    0    0 -0.00000000000E+00 -0.00000000000E+00 -0.45593999997E+02  0.45594000000E+02  0.51100000000E-03 0. -1.
    9900012    2    1    2    0    0  0.18101413165E+02 -0.16751667941E+02 -0.20209932694E+02  0.59301938517E+02  0.49999989950E+02 0.  0.
        -12    1    1    2    0    0 -0.18101413165E+02  0.16751667941E+02  0.20209932694E+02  0.31886061483E+02  0.00000000000E+00 0.  1.
         11    1    3    3    0    0  0.14030211136E+02 -0.10364554854E+02 -0.28120890770E+02  0.33091620084E+02  0.51100000000E-03 0. -1.
        -11    1    3    3    0    0 -0.33017537997E+01 -0.30484137455E+01  0.14871277563E+02  0.15535420855E+02  0.51100000000E-03 0.  1.
        -12    1    3    3    0    0  0.73729558288E+01 -0.33386993410E+01 -0.69603194870E+01  0.10674897578E+02  0.00000000000E+00 0.  1.
</event>
<event>
 7    1  0.1139627E-011  0.5930200E+02  0.7816164E-02  0.1266605E+00
        -11   -1    0    0    0    0  0.00000000000E+00  0.00000000000E+00  0.45593999997E+02  0.45594000000E+02  0.51100000000E-03 0. -1.
         11   -1    0    0    0    0 -0.00000000000E+00 -0.00000000000E+00 -0.45593999997E+02  0.45594000000E+02  0.51100000000E-03 0.  1.
    9900012    2    1    2    0    0  0.91337014814E+01  0.30283528207E+02  0.40249714514E+01  0.59302000273E+02  0.50000102577E+02 0.  0.
        -12    1    1    2    0    0 -0.91337014814E+01 -0.30283528207E+02 -0.40249714514E+01  0.31885999727E+02  0.00000000000E+00 0.  1.
         11    1    3    3    0    0 -0.10565267156E+02  0.21850630896E+02 -0.12257572854E+02  0.27190495273E+02  0.51100000000E-03 0. -1.
        -11    1    3    3    0    0  0.22883522044E+02  0.75975465165E+01  0.15687469947E+02  0.28765865324E+02  0.51100000000E-03 0.  1.
        -12    1    3    3    0    0 -0.31845534067E+01  0.83535079468E+00  0.59507435873E+00  0.33456396762E+01  0.00000000000E+00 0.  1.
</event>
<event>
 7    1  0.1139627E-011  0.5930198E+02  0.7816164E-02  0.1266605E+00
        -11   -1    0    0    0    0  0.00000000000E+00  0.00000000000E+00  0.45593999997E+02  0.45594000000E+02  0.51100000000E-03 0.  1.
         11   -1    0    0    0    0 -0.00000000000E+00 -0.00000000000E+00 -0.45593999997E+02  0.45594000000E+02  0.51100000000E-03 0. -1.
    9900012    2    1    2    0    0  0.12445065152E+02 -0.19424092546E+02 -0.22012343931E+02  0.59301979501E+02  0.50000064695E+02 0.  0.
        -12    1    1    2    0    0 -0.12445065152E+02  0.19424092546E+02  0.22012343931E+02  0.31886020499E+02  0.00000000000E+00 0.  1.
         11    1    3    3    0    0 -0.40762721381E+01  0.81011440188E+00  0.87391586783E+01  0.96770436887E+01  0.51100000000E-03 0.  1.
        -11    1    3    3    0    0  0.24568062465E+02 -0.17622282697E+02 -0.26260253606E+02  0.40046666034E+02  0.51100000000E-03 0. -1.
         12    1    3    3    0    0 -0.80467251749E+01 -0.26119242511E+01 -0.44912490040E+01  0.95782697786E+01  0.00000000000E+00 0. -1.
</event>
<event>
 7    1  0.1139627E-011  0.5930192E+02  0.7816164E-02  0.1266605E+00
        -11   -1    0    0    0    0  0.00000000000E+00  0.00000000000E+00  0.45593999997E+02  0.45594000000E+02  0.51100000000E-03 0.  1.
         11   -1    0    0    0    0 -0.00000000000E+00 -0.00000000000E+00 -0.45593999997E+02  0.45594000000E+02  0.51100000000E-03 0. -1.
    9900012    2    1    2    0    0 -0.76483166697E+00  0.31470642902E+02 -0.50730566730E+01  0.59301917830E+02  0.49999952221E+02 0.  0.
        -12    1    1    2    0    0  0.76483166697E+00 -0.31470642902E+02  0.50730566730E+01  0.31886082170E+02  0.00000000000E+00 0.  1.
         11    1    3    3    0    0 -0.13256545166E+02 -0.56133707539E+01  0.67631800940E+01  0.15905550170E+02  0.51100000000E-03 0. -1.
        -11    1    3    3    0    0  0.48471658175E+01  0.16129799345E+02  0.22854723071E+01  0.16996729900E+02  0.51100000000E-03 0.  1.
         12    1    3    3    0    0  0.76445476816E+01  0.20954214312E+02 -0.14121709074E+02  0.26399637760E+02  0.00000000000E+00 0. -1.
</event>
<event>
 7    1  0.1139627E-011  0.5930197E+02  0.7816164E-02  0.1266605E+00
        -11   -1    0    0    0    0  0.00000000000E+00  0.00000000000E+00  0.45593999997E+02  0.45594000000E+02  0.51100000000E-03 0.  1.
         11   -1    0    0    0    0 -0.00000000000E+00 -0.00000000000E+00 -0.45593999997E+02  0.45594000000E+02  0.51100000000E-03 0. -1.
    9900012    2    1    2    0    0 -0.12976767439E+02 -0.28953319148E+02 -0.31667076169E+01  0.59301965126E+02  0.50000038478E+02 0.  0.
        -12    1    1    2    0    0  0.12976767439E+02  0.28953319148E+02  0.31667076169E+01  0.31886034874E+02  0.00000000000E+00 0.  1.
         11    1    3    3    0    0  0.10213792402E+02 -0.32423095117E+01  0.74753962317E+01  0.13065820880E+02  0.51100000000E-03 0. -1.
        -11    1    3    3    0    0 -0.14624580664E+02 -0.11952884226E+02  0.88735534470E+01  0.20868391216E+02  0.51100000000E-03 0.  1.
         12    1    3    3    0    0 -0.85659791772E+01 -0.13758125410E+02 -0.19515657296E+02  0.25367753029E+02  0.00000000000E+00 0. -1.
</event>
<event>
 7    1  0.1139627E-011  0.5930195E+02  0.7816164E-02  0.1266605E+00
        -11   -1    0    0    0    0  0.00000000000E+00  0.00000000000E+00  0.45593999997E+02  0.45594000000E+02  0.51100000000E-03 0.  1.
         11   -1    0    0    0    0 -0.00000000000E+00 -0.00000000000E+00 -0.45593999997E+02  0.45594000000E+02  0.51100000000E-03 0. -1.
    9900012    2    1    2    0    0  0.13040069329E+02 -0.50968016592E+01 -0.28647856127E+02  0.59301945745E+02  0.50000003133E+02 0.  0.
        -12    1    1    2    0    0 -0.13040069329E+02  0.50968016592E+01  0.28647856127E+02  0.31886054255E+02  0.00000000000E+00 0.  1.
         11    1    3    3    0    0  0.13157986610E+02 -0.19756830365E+02 -0.23821645017E+02  0.33629387882E+02  0.51100000000E-03 0. -1.
        -11    1    3    3    0    0 -0.93218245722E+01  0.86455995074E+01  0.17920047737E+01  0.12839551611E+02  0.51100000000E-03 0.  1.
         12    1    3    3    0    0  0.92039072913E+01  0.60144291983E+01 -0.66182158832E+01  0.12833006253E+02  0.00000000000E+00 0. -1.
</event>
<event>
 7    1  0.1139627E-011  0.5930193E+02  0.7816164E-02  0.1266605E+00
        -11   -1    0    0    0    0  0.00000000000E+00  0.00000000000E+00  0.45593999997E+02  0.45594000000E+02  0.51100000000E-03 0. -1.
         11   -1    0    0    0    0 -0.00000000000E+00 -0.00000000000E+00 -0.45593999997E+02  0.45594000000E+02  0.51100000000E-03 0.  1.
    9900012    2    1    2    0    0  0.19401035618E+02  0.13354862331E+02  0.21493462247E+02  0.59301930153E+02  0.49999974695E+02 0.  0.
        -12    1    1    2    0    0 -0.19401035618E+02 -0.13354862331E+02 -0.21493462247E+02  0.31886069847E+02  0.00000000000E+00 0.  1.
         11    1    3    3    0    0  0.29567576267E+01  0.27289039844E+02 -0.77505330032E+00  0.27459694447E+02  0.51100000000E-03 0. -1.
        -11    1    3    3    0    0  0.21767933405E+01 -0.58799137628E+01  0.75892237129E+01  0.98441928024E+01  0.51100000000E-03 0.  1.
         12    1    3    3    0    0  0.14267484651E+02 -0.80542637495E+01  0.14679291835E+02  0.21998042903E+02  0.00000000000E+00 0. -1.
</event>
<event>
 7    1  0.1139627E-011  0.5930191E+02  0.7816164E-02  0.1266605E+00
        -11   -1    0    0    0    0  0.00000000000E+00  0.00000000000E+00  0.45593999997E+02  0.45594000000E+02  0.51100000000E-03 0.  1.
         11   -1    0    0    0    0 -0.00000000000E+00 -0.00000000000E+00 -0.45593999997E+02  0.45594000000E+02  0.51100000000E-03 0. -1.
    9900012    2    1    2    0    0  0.58359367676E+01 -0.18301106721E+02 -0.25450623667E+02  0.59301907260E+02  0.49999932944E+02 0.  0.
        -12    1    1    2    0    0 -0.58359367676E+01  0.18301106721E+02  0.25450623667E+02  0.31886092740E+02  0.00000000000E+00 0.  1.
         11    1    3    3    0    0  0.12975175691E+01 -0.16926225340E+02  0.29159605347E+01  0.17224502379E+02  0.51100000000E-03 0.  1.
        -11    1    3    3    0    0 -0.31632163565E+01  0.46871260634E+01 -0.31331426355E+02  0.31837609303E+02  0.51100000000E-03 0. -1.
         12    1    3    3    0    0  0.77016355549E+01 -0.60620074445E+01  0.29648421530E+01  0.10239795578E+02  0.00000000000E+00 0. -1.
</event>
<event>
 7    1  0.1139627E-011  0.5930194E+02  0.7816164E-02  0.1266605E+00
        -11   -1    0    0    0    0  0.00000000000E+00  0.00000000000E+00  0.45593999997E+02  0.45594000000E+02  0.51100000000E-03 0. -1.
         11   -1    0    0    0    0 -0.00000000000E+00 -0.00000000000E+00 -0.45593999997E+02  0.45594000000E+02  0.51100000000E-03 0.  1.
    9900012    2    1    2    0    0  0.15006529826E+02 -0.18640459846E+02  0.21072682857E+02  0.59301942805E+02  0.49999997769E+02 0.  0.
        -12    1    1    2    0    0 -0.15006529826E+02  0.18640459846E+02 -0.21072682857E+02  0.31886057195E+02  0.00000000000E+00 0.  1.
         11    1    3    3    0    0  0.66803267281E+01 -0.10904627807E+02  0.27211204006E+02  0.30066381500E+02  0.51100000000E-03 0. -1.
        -11    1    3    3    0    0  0.17436004319E+02 -0.28405039409E+01 -0.66626122732E+01  0.18880495540E+02  0.51100000000E-03 0.  1.
        -12    1    3    3    0    0 -0.91098012215E+01 -0.48953280982E+01  0.52409112396E+00  0.10355065765E+02  0.00000000000E+00 0.  1.
</event>
<event>
 7    1  0.1139627E-011  0.5930197E+02  0.7816164E-02  0.1266605E+00
        -11   -1    0    0    0    0  0.00000000000E+00  0.00000000000E+00  0.45593999997E+02  0.45594000000E+02  0.51100000000E-03 0. -1.
         11   -1    0    0    0    0 -0.00000000000E+00 -0.00000000000E+00 -0.45593999997E+02  0.45594000000E+02  0.51100000000E-03 0.  1.
    9900012    2    1    2    0    0  0.41339303266E+01 -0.11305045500E+02  0.29526690967E+02  0.59301969937E+02  0.50000047252E+02 0.  0.
        -12    1    1    2    0    0 -0.41339303266E+01  0.11305045500E+02 -0.29526690967E+02  0.31886030063E+02  0.00000000000E+00 0.  1.
         11    1    3    3    0    0  0.61533887352E+01  0.15069158514E+02  0.77627399450E+00  0.16295592435E+02  0.51100000000E-03 0. -1.
        -11    1    3    3    0    0 -0.10612278440E+01 -0.24633784781E+02  0.14471186246E+02  0.28589592316E+02  0.51100000000E-03 0.  1.
         12    1    3    3    0    0 -0.95823056466E+00 -0.17404192327E+01  0.14279230727E+02  0.14416785185E+02  0.00000000000E+00 0. -1.
</event>
<event>
 7    1  0.1139627E-011  0.5930194E+02  0.7816164E-02  0.1266605E+00
        -11   -1    0    0    0    0  0.00000000000E+00  0.00000000000E+00  0.45593999997E+02  0.45594000000E+02  0.51100000000E-03 0.  1.
         11   -1    0    0    0    0 -0.00000000000E+00 -0.00000000000E+00 -0.45593999997E+02  0.45594000000E+02  0.51100000000E-03 0. -1.
    9900012    2    1    2    0    0 -0.15146482553E+02  0.15522834628E+02 -0.23374054772E+02  0.59301940897E+02  0.49999994290E+02 0.  0.
        -12    1    1    2    0    0  0.15146482553E+02 -0.15522834628E+02  0.23374054772E+02  0.31886059103E+02  0.00000000000E+00 0.  1.
         11    1    3    3    0    0 -0.18923189739E+02  0.17266627617E+02 -0.29044611049E+02  0.38727418845E+02  0.51100000000E-03 0. -1.
        -11    1    3    3    0    0  0.10542688714E+02  0.35685144456E+00 -0.13087189345E+01  0.10629598947E+02  0.51100000000E-03 0.  1.
        -12    1    3    3    0    0 -0.67659815285E+01 -0.21006444334E+01  0.69792752115E+01  0.99449231047E+01  0.00000000000E+00 0.  1.
</event>
<event>
 7    1  0.1139627E-011  0.5930191E+02  0.7816164E-02  0.1266605E+00
        -11   -1    0    0    0    0  0.00000000000E+00  0.00000000000E+00  0.45593999997E+02  0.45594000000E+02  0.51100000000E-03 0. -1.
         11   -1    0    0    0    0 -0.00000000000E+00 -0.00000000000E+00 -0.45593999997E+02  0.45594000000E+02  0.51100000000E-03 0.  1.
    9900012    2    1    2    0    0  0.22990155806E+02  0.20677225424E+02 -0.77864048849E+01  0.59301905597E+02  0.49999929912E+02 0.  0.
        -12    1    1    2    0    0 -0.22990155806E+02 -0.20677225424E+02  0.77864048849E+01  0.31886094403E+02  0.00000000000E+00 0.  1.
         11    1    3    3    0    0  0.36535996057E+02  0.12314748879E+02 -0.13655309618E+02  0.40902316913E+02  0.51100000000E-03 0. -1.
        -11    1    3    3    0    0 -0.72404670529E+00  0.32329438515E+01  0.25915606181E+01  0.42062282721E+01  0.51100000000E-03 0.  1.
         12    1    3    3    0    0 -0.12821793545E+02  0.51295326935E+01  0.32773441151E+01  0.14193360413E+02  0.00000000000E+00 0. -1.
</event>
<event>
 7    1  0.1139627E-011  0.5930195E+02  0.7816164E-02  0.1266605E+00
        -11   -1    0    0    0    0  0.00000000000E+00  0.00000000000E+00  0.45593999997E+02  0.45594000000E+02  0.51100000000E-03 0. -1.
         11   -1    0    0    0    0 -0.00000000000E+00 -0.00000000000E+00 -0.45593999997E+02  0.45594000000E+02  0.51100000000E-03 0.  1.
    9900012    2    1    2    0    0 -0.29526037619E+02 -0.20499738873E+01  0.11863007435E+02  0.59301949197E+02  0.50000009428E+02 0.  0.
        -12    1    1    2    0    0  0.29526037619E+02  0.20499738873E+01 -0.11863007435E+02  0.31886050803E+02  0.00000000000E+00 0.  1.
         11    1    3    3    0    0 -0.95819105431E+01 -0.73886508780E+01  0.26205384590E+02  0.28863945559E+02  0.51100000000E-03 0. -1.
        -11    1    3    3    0    0 -0.15759278873E+02 -0.32213322537E+01 -0.13264636712E+02  0.20849039293E+02  0.51100000000E-03 0.  1.
         12    1    3    3    0    0 -0.41848482032E+01  0.85600092444E+01 -0.10777404438E+01  0.95889643451E+01  0.00000000000E+00 0. -1.
</event>
<event>
 7    1  0.1139627E-011  0.5930197E+02  0.7816164E-02  0.1266605E+00
        -11   -1    0    0    0    0  0.00000000000E+00  0.00000000000E+00  0.45593999997E+02  0.45594000000E+02  0.51100000000E-03 0. -1.
         11   -1    0    0    0    0 -0.00000000000E+00 -0.00000000000E+00 -0.45593999997E+02  0.45594000000E+02  0.51100000000E-03 0.  1.
    9900012    2    1    2    0    0  0.62038112687E+01 -0.31047873523E+02 -0.37763772589E+01  0.59301972500E+02  0.50000051926E+02 0.  0.
        -12    1    1    2    0    0 -0.62038112687E+01  0.31047873523E+02  0.37763772589E+01  0.31886027500E+02  0.00000000000E+00 0.  1.
         11    1    3    3    0    0  0.10230696572E+01 -0.22206462501E+02 -0.75853520376E+01  0.23488533674E+02  0.51100000000E-03 0. -1.
        -11    1    3    3    0    0 -0.12010136295E+02  0.54602747092E+01  0.45283774594E+00  0.13200872547E+02  0.51100000000E-03 0.  1.
        -12    1    3    3    0    0  0.17190877906E+02 -0.14301685731E+02  0.33561370327E+01  0.22612566279E+02  0.00000000000E+00 0.  1.
</event>
<event>
 7    1  0.1139627E-011  0.5930195E+02  0.7816164E-02  0.1266605E+00
        -11   -1    0    0    0    0  0.00000000000E+00  0.00000000000E+00  0.45593999997E+02  0.45594000000E+02  0.51100000000E-03 0.  1.
         11   -1    0    0    0    0 -0.00000000000E+00 -0.00000000000E+00 -0.45593999997E+02  0.45594000000E+02  0.51100000000E-03 0. -1.
    9900012    2    1    2    0    0  0.39070130797E+01 -0.32665381728E+00 -0.31644091536E+02  0.59301953160E+02  0.50000016656E+02 0.  0.
        -12    1    1    2    0    0 -0.39070130797E+01  0.32665381728E+00  0.31644091536E+02  0.31886046840E+02  0.00000000000E+00 0.  1.
         11    1    3    3    0    0  0.49687155479E+01 -0.31245399466E+01 -0.42203059621E+02  0.42609261032E+02  0.51100000000E-03 0. -1.
        -11    1    3    3    0    0  0.20155069175E+01 -0.32275306351E+01  0.89688039461E+01  0.97426211370E+01  0.51100000000E-03 0.  1.
         12    1    3    3    0    0 -0.30772093856E+01  0.60254167645E+01  0.15901641390E+01  0.69500709909E+01  0.00000000000E+00 0. -1.
</event>
<event>
 7    1  0.1139627E-011  0.5930190E+02  0.7816164E-02  0.1266605E+00
        -11   -1    0    0    0    0  0.00000000000E+00  0.00000000000E+00  0.45593999997E+02  0.45594000000E+02  0.51100000000E-03 0.  1.
         11   -1    0    0    0    0 -0.00000000000E+00 -0.00000000000E+00 -0.45593999997E+02  0.45594000000E+02  0.51100000000E-03 0. -1.
    9900012    2    1    2    0    0 -0.29994770711E+02  0.10404678274E+02  0.29630182708E+01  0.59301904641E+02  0.49999928167E+02 0.  0.
        -12    1    1    2    0    0  0.29994770711E+02 -0.10404678274E+02 -0.29630182708E+01  0.31886095359E+02  0.00000000000E+00 0.  1.
         11    1    3    3    0    0 -0.78001993722E+01 -0.19992311398E+02  0.27144650796E+01  0.21631087495E+02  0.51100000000E-03 0. -1.
        -11    1    3    3    0    0 -0.10295760554E+02  0.12915054770E+02 -0.23015172680E+00  0.16518301825E+02  0.51100000000E-03 0.  1.
         12    1    3    3    0    0 -0.11898810785E+02  0.17481934901E+02  0.47870491799E+00  0.21152515320E+02  0.00000000000E+00 0. -1.
</event>
<event>
 7    1  0.1139627E-011  0.5930158E+02  0.7816164E-02  0.1266606E+00
        -11   -1    0    0    0    0  0.00000000000E+00  0.00000000000E+00  0.45593999997E+02  0.45594000000E+02  0.51100000000E-03 0. -1.
         11   -1    0    0    0    0 -0.00000000000E+00 -0.00000000000E+00 -0.45593999997E+02  0.45594000000E+02  0.51100000000E-03 0.  1.
    9900012    2    1    2    0    0 -0.26133866387E+02 -0.13072991217E+02  0.12761725373E+02  0.59301581164E+02  0.49999338220E+02 0.  0.
        -12    1    1    2    0    0  0.26133866387E+02  0.13072991217E+02 -0.12761725373E+02  0.31886418836E+02  0.00000000000E+00 0.  1.
         11    1    3    3    0    0 -0.13155013170E+01  0.15278825122E+01  0.29400595461E+01  0.35649570940E+01  0.51100000000E-03 0. -1.
        -11    1    3    3    0    0  0.24441542599E+01 -0.92674621691E+01 -0.15450434667E+02  0.18181740201E+02  0.51100000000E-03 0.  1.
        -12    1    3    3    0    0 -0.27262519329E+02 -0.53334115597E+01  0.25272100494E+02  0.37554883869E+02  0.00000000000E+00 0.  1.
</event>
<event>
 7    1  0.1139627E-011  0.5930190E+02  0.7816164E-02  0.1266605E+00
        -11   -1    0    0    0    0  0.00000000000E+00  0.00000000000E+00  0.45593999997E+02  0.45594000000E+02  0.51100000000E-03 0. -1.
         11   -1    0    0    0    0 -0.00000000000E+00 -0.00000000000E+00 -0.45593999997E+02  0.45594000000E+02  0.51100000000E-03 0.  1.
    9900012    2    1    2    0    0 -0.10551632203E+02 -0.12873616767E+02  0.27196630478E+02  0.59301895500E+02  0.49999911497E+02 0.  0.
        -12    1    1    2    0    0  0.10551632203E+02  0.12873616767E+02 -0.27196630478E+02  0.31886104500E+02  0.00000000000E+00 0.  1.
         11    1    3    3    0    0 -0.21861310103E+02 -0.70806608976E+01 -0.87282042084E-01  0.22979561715E+02  0.51100000000E-03 0. -1.
        -11    1    3    3    0    0  0.11341621990E+02 -0.12613601997E+02  0.17278800324E+02  0.24213473225E+02  0.51100000000E-03 0.  1.
         12    1    3    3    0    0 -0.31944090172E-01  0.68206461279E+01  0.10005112196E+02  0.12108860561E+02  0.00000000000E+00 0. -1.
</event>
<event>
 7    1  0.1139627E-011  0.5930205E+02  0.7816164E-02  0.1266604E+00
        -11   -1    0    0    0    0  0.00000000000E+00  0.00000000000E+00  0.45593999997E+02  0.45594000000E+02  0.51100000000E-03 0.  1.
         11   -1    0    0    0    0 -0.00000000000E+00 -0.00000000000E+00 -0.45593999997E+02  0.45594000000E+02  0.51100000000E-03 0. -1.
    9900012    2    1    2    0    0 -0.87091917213E+01 -0.32769409029E+00 -0.30671753652E+02  0.59302048926E+02  0.50000191308E+02 0.  0.
        -12    1    1    2    0    0  0.87091917213E+01  0.32769409029E+00  0.30671753652E+02  0.31885951074E+02  0.00000000000E+00 0.  1.
         11    1    3    3    0    0  0.69767696540E+01  0.33121782861E+01 -0.25744740938E+02  0.26878197968E+02  0.51100000000E-03 0. -1.
        -11    1    3    3    0    0 -0.14057564366E+02  0.10569608060E+02 -0.43091784677E+01  0.18108029981E+02  0.51100000000E-03 0.  1.
         12    1    3    3    0    0 -0.16283970092E+01 -0.14209480436E+02 -0.61783424626E+00  0.14315820977E+02  0.00000000000E+00 0. -1.
</event>
<event>
 7    1  0.1139627E-011  0.5930196E+02  0.7816164E-02  0.1266605E+00
        -11   -1    0    0    0    0  0.00000000000E+00  0.00000000000E+00  0.45593999997E+02  0.45594000000E+02  0.51100000000E-03 0.  1.
         11   -1    0    0    0    0 -0.00000000000E+00 -0.00000000000E+00 -0.45593999997E+02  0.45594000000E+02  0.51100000000E-03 0. -1.
    9900012    2    1    2    0    0  0.23505932545E+02 -0.14369207613E+02 -0.16053556232E+02  0.59301958227E+02  0.50000025897E+02 0.  0.
        -12    1    1    2    0    0 -0.23505932545E+02  0.14369207613E+02  0.16053556232E+02  0.31886041773E+02  0.00000000000E+00 0.  1.
         11    1    3    3    0    0 -0.12067228226E+02  0.37209472111E+01  0.14008683084E-01  0.12627891420E+02  0.51100000000E-03 0. -1.
        -11    1    3    3    0    0  0.16095222964E+02 -0.18152435980E+02 -0.74834360541E+01  0.25388362486E+02  0.51100000000E-03 0.  1.
        -12    1    3    3    0    0  0.19477937807E+02  0.62281156028E-01 -0.85841288613E+01  0.21285704321E+02  0.00000000000E+00 0.  1.
</event>
<event>
 7    1  0.1139627E-011  0.5930194E+02  0.7816164E-02  0.1266605E+00
        -11   -1    0    0    0    0  0.00000000000E+00  0.00000000000E+00  0.45593999997E+02  0.45594000000E+02  0.51100000000E-03 0.  1.
         11   -1    0    0    0    0 -0.00000000000E+00 -0.00000000000E+00 -0.45593999997E+02  0.45594000000E+02  0.51100000000E-03 0. -1.
    9900012    2    1    2    0    0 -0.27428562768E+02 -0.78868663759E+01 -0.14219434552E+02  0.59301936653E+02  0.49999986551E+02 0.  0.
        -12    1    1    2    0    0  0.27428562768E+02  0.78868663759E+01  0.14219434552E+02  0.31886063347E+02  0.00000000000E+00 0.  1.
         11    1    3    3    0    0 -0.25604904077E+02  0.13760188240E+02 -0.12522379865E+02  0.31650653879E+02  0.51100000000E-03 0. -1.
        -11    1    3    3    0    0 -0.12295582936E+01 -0.15436495012E+02  0.69622621561E+01  0.16978524271E+02  0.51100000000E-03 0.  1.
        -12    1    3    3    0    0 -0.59410039778E+00 -0.62105596043E+01 -0.86593168429E+01  0.10672758503E+02  0.00000000000E+00 0.  1.
</event>
<event>
 7    1  0.1139627E-011  0.5930195E+02  0.7816164E-02  0.1266605E+00
        -11   -1    0    0    0    0  0.00000000000E+00  0.00000000000E+00  0.45593999997E+02  0.45594000000E+02  0.51100000000E-03 0.  1.
         11   -1    0    0    0    0 -0.00000000000E+00 -0.00000000000E+00 -0.45593999997E+02  0.45594000000E+02  0.51100000000E-03 0. -1.
    9900012    2    1    2    0    0  0.31412609820E+02 -0.27175006074E+01 -0.47521648987E+01  0.59301953891E+02  0.50000017988E+02 0.  0.
        -12    1    1    2    0    0 -0.31412609820E+02  0.27175006074E+01  0.47521648987E+01  0.31886046109E+02  0.00000000000E+00 0.  1.
         11    1    3    3    0    0  0.87224933169E+01 -0.19755155941E+02  0.71525214076E+00  0.21606935502E+02  0.51100000000E-03 0.  1.
        -11    1    3    3    0    0  0.78526783188E+01  0.24783508155E+01 -0.13164878223E+02  0.15528064864E+02  0.51100000000E-03 0. -1.
         12    1    3    3    0    0  0.14837438184E+02  0.14559304518E+02  0.76974611831E+01  0.22166953525E+02  0.00000000000E+00 0. -1.
</event>
<event>
 7    1  0.1139627E-011  0.5930194E+02  0.7816164E-02  0.1266605E+00
        -11   -1    0    0    0    0  0.00000000000E+00  0.00000000000E+00  0.45593999997E+02  0.45594000000E+02  0.51100000000E-03 0. -1.
         11   -1    0    0    0    0 -0.00000000000E+00 -0.00000000000E+00 -0.45593999997E+02  0.45594000000E+02  0.51100000000E-03 0.  1.
    9900012    2    1    2    0    0  0.13124455035E+02  0.21345950841E+02  0.19718508916E+02  0.59301944567E+02  0.50000000983E+02 0.  0.
        -12    1    1    2    0    0 -0.13124455035E+02 -0.21345950841E+02 -0.19718508916E+02  0.31886055433E+02  0.00000000000E+00 0.  1.
         11    1    3    3    0    0 -0.13822610019E+02 -0.11604050826E+01  0.11282394460E+02  0.17880254828E+02  0.51100000000E-03 0. -1.
        -11    1    3    3    0    0  0.13067561790E+01  0.11279911429E+02 -0.20361534694E+01  0.11536461102E+02  0.51100000000E-03 0.  1.
         12    1    3    3    0    0  0.25640308874E+02  0.11226444494E+02  0.10472267925E+02  0.29885228636E+02  0.00000000000E+00 0. -1.
</event>
<event>
 7    1  0.1139627E-011  0.5930196E+02  0.7816164E-02  0.1266605E+00
        -11   -1    0    0    0    0  0.00000000000E+00  0.00000000000E+00  0.45593999997E+02  0.45594000000E+02  0.51100000000E-03 0.  1.
         11   -1    0    0    0    0 -0.00000000000E+00 -0.00000000000E+00 -0.45593999997E+02  0.45594000000E+02  0.51100000000E-03 0. -1.
    9900012    2    1    2    0    0  0.15237519627E+02 -0.22487940989E+02 -0.16698212855E+02  0.59301955923E+02  0.50000021694E+02 0.  0.
        -12    1    1    2    0    0 -0.15237519627E+02  0.22487940989E+02  0.16698212855E+02  0.31886044077E+02  0.00000000000E+00 0.  1.
         11    1    3    3    0    0  0.29349725592E+02 -0.71002753855E+01 -0.50956061658E+01  0.30623283713E+02  0.51100000000E-03 0. -1.
        -11    1    3    3    0    0 -0.13630029503E+02 -0.40678518806E+01 -0.32180501387E+01  0.14583585640E+02  0.51100000000E-03 0.  1.
         12    1    3    3    0    0 -0.48217646217E+00 -0.11319813723E+02 -0.83845565509E+01  0.14095086570E+02  0.00000000000E+00 0. -1.
</event>
<event>
 7    1  0.1139627E-011  0.5930188E+02  0.7816164E-02  0.1266605E+00
        -11   -1    0    0    0    0  0.00000000000E+00  0.00000000000E+00  0.45593999997E+02  0.45594000000E+02  0.51100000000E-03 0. -1.
         11   -1    0    0    0    0 -0.00000000000E+00 -0.00000000000E+00 -0.45593999997E+02  0.45594000000E+02  0.51100000000E-03 0.  1.
    9900012    2    1    2    0    0 -0.46793387852E+01  0.28672083914E+02 -0.13143050490E+02  0.59301884156E+02  0.49999890809E+02 0.  0.
        -12    1    1    2    0    0  0.46793387852E+01 -0.28672083914E+02  0.13143050490E+02  0.31886115844E+02  0.00000000000E+00 0.  1.
         11    1    3    3    0    0 -0.10800367233E+02 -0.74050904375E+01  0.69851832225E+01  0.14841700767E+02  0.51100000000E-03 0. -1.
        -11    1    3    3    0    0 -0.48746545545E+01  0.16245286176E+02 -0.89921213857E+01  0.19197130703E+02  0.51100000000E-03 0.  1.
         12    1    3    3    0    0  0.10995683002E+02  0.19831888175E+02 -0.11136112327E+02  0.25263052686E+02  0.00000000000E+00 0. -1.
</event>
<event>
 7    1  0.1139627E-011  0.5930194E+02  0.7816164E-02  0.1266605E+00
        -11   -1    0    0    0    0  0.00000000000E+00  0.00000000000E+00  0.45593999997E+02  0.45594000000E+02  0.51100000000E-03 0. -1.
         11   -1    0    0    0    0 -0.00000000000E+00 -0.00000000000E+00 -0.45593999997E+02  0.45594000000E+02  0.51100000000E-03 0.  1.
    9900012    2    1    2    0    0 -0.13027720765E+02 -0.62361386086E+01  0.28427274717E+02  0.59301939081E+02  0.49999990979E+02 0.  0.
        -12    1    1    2    0    0  0.13027720765E+02  0.62361386086E+01 -0.28427274717E+02  0.31886060919E+02  0.00000000000E+00 0.  1.
         11    1    3    3    0    0 -0.11380617657E+02 -0.44006170707E+00  0.20427512973E+01  0.11570866246E+02  0.51100000000E-03 0. -1.
        -11    1    3    3    0    0  0.90871799517E+01  0.14000024009E+02  0.15255189192E+02  0.22611906360E+02  0.51100000000E-03 0.  1.
        -12    1    3    3    0    0 -0.10734283060E+02 -0.19796100910E+02  0.11129334228E+02  0.25119166475E+02  0.00000000000E+00 0.  1.
</event>
<event>
 7    1  0.1139627E-011  0.5930222E+02  0.7816164E-02  0.1266604E+00
        -11   -1    0    0    0    0  0.00000000000E+00  0.00000000000E+00  0.45593999997E+02  0.45594000000E+02  0.51100000000E-03 0.  1.
         11   -1    0    0    0    0 -0.00000000000E+00 -0.00000000000E+00 -0.45593999997E+02  0.45594000000E+02  0.51100000000E-03 0. -1.
    9900012    2    1    2    0    0  0.11093425242E+02  0.10067830311E+02 -0.28147425932E+02  0.59302221393E+02  0.50000505846E+02 0.  0.
        -12    1    1    2    0    0 -0.11093425242E+02 -0.10067830311E+02  0.28147425932E+02  0.31885778607E+02  0.00000000000E+00 0.  1.
         11    1    3    3    0    0 -0.98149185237E+01  0.68429311197E+01 -0.28399161123E+02  0.30816727352E+02  0.51100000000E-03 0. -1.
        -11    1    3    3    0    0  0.21955669361E+02  0.60355463264E+01 -0.41636476230E+01  0.23147682354E+02  0.51100000000E-03 0.  1.
         12    1    3    3    0    0 -0.10473255961E+01 -0.28106471347E+01  0.44153828140E+01  0.53378116878E+01  0.00000000000E+00 0. -1.
</event>
<event>
 7    1  0.1139627E-011  0.5930195E+02  0.7816164E-02  0.1266605E+00
        -11   -1    0    0    0    0  0.00000000000E+00  0.00000000000E+00  0.45593999997E+02  0.45594000000E+02  0.51100000000E-03 0.  1.
         11   -1    0    0    0    0 -0.00000000000E+00 -0.00000000000E+00 -0.45593999997E+02  0.45594000000E+02  0.51100000000E-03 0. -1.
    9900012    2    1    2    0    0 -0.68701818651E+01  0.22628669786E+02  0.21388409571E+02  0.59301950400E+02  0.50000011621E+02 0.  0.
        -12    1    1    2    0    0  0.68701818651E+01 -0.22628669786E+02 -0.21388409571E+02  0.31886049600E+02  0.00000000000E+00 0.  1.
         11    1    3    3    0    0 -0.16815199661E+02  0.48310273309E+01  0.25352911542E+01  0.17678163542E+02  0.51100000000E-03 0. -1.
        -11    1    3    3    0    0  0.20688568178E+02  0.11000817487E+02  0.75646859082E+01  0.24622333598E+02  0.51100000000E-03 0.  1.
        -12    1    3    3    0    0 -0.10743550382E+02  0.67968249683E+01  0.11288432508E+02  0.17001453260E+02  0.00000000000E+00 0.  1.
</event>
<event>
 7    1  0.1139627E-011  0.5930235E+02  0.7816164E-02  0.1266603E+00
        -11   -1    0    0    0    0  0.00000000000E+00  0.00000000000E+00  0.45593999997E+02  0.45594000000E+02  0.51100000000E-03 0. -1.
         11   -1    0    0    0    0 -0.00000000000E+00 -0.00000000000E+00 -0.45593999997E+02  0.45594000000E+02  0.51100000000E-03 0.  1.
    9900012    2    1    2    0    0  0.96727021133E+01 -0.26964034091E+02  0.14002660280E+02  0.59302348124E+02  0.50000736969E+02 0.  0.
        -12    1    1    2    0    0 -0.96727021133E+01  0.26964034091E+02 -0.14002660280E+02  0.31885651876E+02  0.00000000000E+00 0.  1.
         11    1    3    3    0    0 -0.91875674899E+01  0.67640308639E+01  0.52761458155E+01  0.12569853811E+02  0.51100000000E-03 0. -1.
        -11    1    3    3    0    0  0.21236262046E+02 -0.23460542988E+02 -0.19837120505E+01  0.31706639947E+02  0.51100000000E-03 0.  1.
         12    1    3    3    0    0 -0.23759924424E+01 -0.10267521968E+02  0.10710226515E+02  0.15025854366E+02  0.00000000000E+00 0. -1.
</event>
<event>
 7    1  0.1364450E-011  0.5930196E+02  0.7816164E-02  0.1266605E+00
        -11   -1    0    0    0    0  0.00000000000E+00  0.00000000000E+00  0.45593999997E+02  0.45594000000E+02  0.51100000000E-03 0.  1.
         11   -1    0    0    0    0 -0.00000000000E+00 -0.00000000000E+00 -0.45593999997E+02  0.45594000000E+02  0.51100000000E-03 0. -1.
    9900012    2    1    2    0    0 -0.25439329873E+02 -0.17668151028E+02 -0.75760472768E+01  0.59301959834E+02  0.50000028827E+02 0.  0.
        -12    1    1    2    0    0  0.25439329873E+02  0.17668151028E+02  0.75760472768E+01  0.31886040166E+02  0.00000000000E+00 0.  1.
         11    1    3    3    0    0 -0.24624907345E+02 -0.87947950479E+00  0.90244835962E+01  0.26241205201E+02  0.51100000000E-03 0. -1.
        -11    1    3    3    0    0  0.86912451755E+01  0.66359718252E+00 -0.52016131259E+01  0.10150609996E+02  0.51100000000E-03 0.  1.
         12    1    3    3    0    0 -0.95056677033E+01 -0.17452268706E+02 -0.11398917747E+02  0.22910144637E+02  0.00000000000E+00 0. -1.
</event>
<event>
 7    1  0.1139627E-011  0.5930196E+02  0.7816164E-02  0.1266605E+00
        -11   -1    0    0    0    0  0.00000000000E+00  0.00000000000E+00  0.45593999997E+02  0.45594000000E+02  0.51100000000E-03 0.  1.
         11   -1    0    0    0    0 -0.00000000000E+00 -0.00000000000E+00 -0.45593999997E+02  0.45594000000E+02  0.51100000000E-03 0. -1.
    9900012    2    1    2    0    0 -0.16451740796E+02  0.12573286126E+02 -0.24248144229E+02  0.59301956066E+02  0.50000021955E+02 0.  0.
        -12    1    1    2    0    0  0.16451740796E+02 -0.12573286126E+02  0.24248144229E+02  0.31886043934E+02  0.00000000000E+00 0.  1.
         11    1    3    3    0    0 -0.48325168996E+01  0.54952985265E+00 -0.52371062138E+00  0.48917763358E+01  0.51100000000E-03 0. -1.
        -11    1    3    3    0    0  0.89897862164E+01  0.22095673417E+02 -0.20086538321E+02  0.31184997386E+02  0.51100000000E-03 0.  1.
        -12    1    3    3    0    0 -0.20609010113E+02 -0.10071917144E+02 -0.36378952865E+01  0.23225182344E+02  0.00000000000E+00 0.  1.
</event>
<event>
 7    1  0.1139627E-011  0.5930216E+02  0.7816164E-02  0.1266604E+00
        -11   -1    0    0    0    0  0.00000000000E+00  0.00000000000E+00  0.45593999997E+02  0.45594000000E+02  0.51100000000E-03 0.  1.
         11   -1    0    0    0    0 -0.00000000000E+00 -0.00000000000E+00 -0.45593999997E+02  0.45594000000E+02  0.51100000000E-03 0. -1.
    9900012    2    1    2    0    0 -0.61381680280E+01  0.78569663120E+01 -0.30286927765E+02  0.59302156435E+02  0.50000387379E+02 0.  0.
        -12    1    1    2    0    0  0.61381680280E+01 -0.78569663120E+01  0.30286927765E+02  0.31885843565E+02  0.00000000000E+00 0.  1.
         11    1    3    3    0    0  0.19301809366E+01  0.15642280451E+02 -0.15990851043E+02  0.22452479897E+02  0.51100000000E-03 0. -1.
        -11    1    3    3    0    0 -0.31238180030E+01 -0.98208833300E+01  0.85472114093E+01  0.13388906282E+02  0.51100000000E-03 0.  1.
         12    1    3    3    0    0 -0.49445309616E+01  0.20355691907E+01 -0.22843288132E+02  0.23460770256E+02  0.00000000000E+00 0. -1.
</event>
<event>
 7    1  0.1139627E-011  0.5930195E+02  0.7816164E-02  0.1266605E+00
        -11   -1    0    0    0    0  0.00000000000E+00  0.00000000000E+00  0.45593999997E+02  0.45594000000E+02  0.51100000000E-03 0.  1.
         11   -1    0    0    0    0 -0.00000000000E+00 -0.00000000000E+00 -0.45593999997E+02  0.45594000000E+02  0.51100000000E-03 0. -1.
    9900012    2    1    2    0    0 -0.28068323863E+01 -0.31681618588E+02  0.22620153123E+01  0.59301953245E+02  0.50000016809E+02 0.  0.
        -12    1    1    2    0    0  0.28068323863E+01  0.31681618588E+02 -0.22620153123E+01  0.31886046755E+02  0.00000000000E+00 0.  1.
         11    1    3    3    0    0  0.28771650465E+01 -0.20956974698E+02 -0.90226885853E+01  0.22997429786E+02  0.51100000000E-03 0. -1.
        -11    1    3    3    0    0  0.32434265413E+01  0.49953468968E+01  0.16456564826E+02  0.17501195173E+02  0.51100000000E-03 0.  1.
        -12    1    3    3    0    0 -0.89274239741E+01 -0.15719990787E+02 -0.51718609282E+01  0.18803328286E+02  0.00000000000E+00 0.  1.
</event>
<event>
 7    1  0.1139627E-011  0.5930194E+02  0.7816164E-02  0.1266605E+00
        -11   -1    0    0    0    0  0.00000000000E+00  0.00000000000E+00  0.45593999997E+02  0.45594000000E+02  0.51100000000E-03 0. -1.
         11   -1    0    0    0    0 -0.00000000000E+00 -0.00000000000E+00 -0.45593999997E+02  0.45594000000E+02  0.51100000000E-03 0.  1.
    9900012    2    1    2    0    0  0.23001102279E+02  0.17497602848E+02  0.13472347088E+02  0.59301938036E+02  0.49999989073E+02 0.  0.
        -12    1    1    2    0    0 -0.23001102279E+02 -0.17497602848E+02 -0.13472347088E+02  0.31886061964E+02  0.00000000000E+00 0.  1.
         11    1    3    3    0    0  0.66666059074E+01  0.17950079486E+02 -0.79512264772E+01  0.20733330428E+02  0.51100000000E-03 0. -1.
        -11    1    3    3    0    0 -0.42261657441E+01 -0.87572288139E+01  0.47316637046E+01  0.10813795590E+02  0.51100000000E-03 0.  1.
         12    1    3    3    0    0  0.20560662116E+02  0.83047521756E+01  0.16691909861E+02  0.27754812018E+02  0.00000000000E+00 0. -1.
</event>
<event>
 7    1  0.1139627E-011  0.5930194E+02  0.7816164E-02  0.1266605E+00
        -11   -1    0    0    0    0  0.00000000000E+00  0.00000000000E+00  0.45593999997E+02  0.45594000000E+02  0.51100000000E-03 0. -1.
         11   -1    0    0    0    0 -0.00000000000E+00 -0.00000000000E+00 -0.45593999997E+02  0.45594000000E+02  0.51100000000E-03 0.  1.
    9900012    2    1    2    0    0  0.84550892568E+01  0.40551951929E+01  0.30476020062E+02  0.59301938136E+02  0.49999989255E+02 0.  0.
        -12    1    1    2    0    0 -0.84550892568E+01 -0.40551951929E+01 -0.30476020062E+02  0.31886061864E+02  0.00000000000E+00 0.  1.
         11    1    3    3    0    0  0.63626370019E+01 -0.20319536576E+02  0.37700582407E+01  0.21623599508E+02  0.51100000000E-03 0.  1.
        -11    1    3    3    0    0  0.53530727664E+01  0.10593353162E+02  0.16017159601E+02  0.19935494004E+02  0.51100000000E-03 0. -1.
        -12    1    3    3    0    0 -0.32606205114E+01  0.13781378607E+02  0.10688802220E+02  0.17742844623E+02  0.00000000000E+00 0.  1.
</event>
<event>
 7    1  0.1139627E-011  0.5930233E+02  0.7816164E-02  0.1266603E+00
        -11   -1    0    0    0    0  0.00000000000E+00  0.00000000000E+00  0.45593999997E+02  0.45594000000E+02  0.51100000000E-03 0.  1.
         11   -1    0    0    0    0 -0.00000000000E+00 -0.00000000000E+00 -0.45593999997E+02  0.45594000000E+02  0.51100000000E-03 0. -1.
    9900012    2    1    2    0    0 -0.59934418462E+01 -0.60123895678E+01 -0.30734766096E+02  0.59302328917E+02  0.50000701940E+02 0.  0.
        -12    1    1    2    0    0  0.59934418462E+01  0.60123895678E+01  0.30734766096E+02  0.31885671083E+02  0.00000000000E+00 0.  1.
         11    1    3    3    0    0 -0.17872292973E+02 -0.15457191477E+02 -0.19190906253E+02  0.30440671930E+02  0.51100000000E-03 0. -1.
        -11    1    3    3    0    0  0.66562220058E+01  0.15666901310E+02 -0.33991445867E+01  0.17358319971E+02  0.51100000000E-03 0.  1.
         12    1    3    3    0    0  0.52226291210E+01 -0.62220994011E+01 -0.81447152555E+01  0.11503337015E+02  0.00000000000E+00 0. -1.
</event>
<event>
 7    1  0.1139627E-011  0.5930195E+02  0.7816164E-02  0.1266605E+00
        -11   -1    0    0    0    0  0.00000000000E+00  0.00000000000E+00  0.45593999997E+02  0.45594000000E+02  0.51100000000E-03 0.  1.
         11   -1    0    0    0    0 -0.00000000000E+00 -0.00000000000E+00 -0.45593999997E+02  0.45594000000E+02  0.51100000000E-03 0. -1.
    9900012    2    1    2    0    0 -0.29473601776E+02  0.36412193472E+01 -0.11608988347E+02  0.59301948341E+02  0.50000007866E+02 0.  0.
        -12    1    1    2    0    0  0.29473601776E+02 -0.36412193472E+01  0.11608988347E+02  0.31886051659E+02  0.00000000000E+00 0.  1.
         11    1    3    3    0    0 -0.12624597174E+02  0.14270864231E+02 -0.16525428960E+01  0.19125086091E+02  0.51100000000E-03 0. -1.
        -11    1    3    3    0    0 -0.12819686085E+01 -0.17380037474E+02  0.43735281868E+01  0.17967662485E+02  0.51100000000E-03 0.  1.
        -12    1    3    3    0    0 -0.15567035993E+02  0.67503925897E+01 -0.14329973638E+02  0.22209199765E+02  0.00000000000E+00 0.  1.
</event>
<event>
 7    1  0.1139627E-011  0.5930194E+02  0.7816164E-02  0.1266605E+00
        -11   -1    0    0    0    0  0.00000000000E+00  0.00000000000E+00  0.45593999997E+02  0.45594000000E+02  0.51100000000E-03 0.  1.
         11   -1    0    0    0    0 -0.00000000000E+00 -0.00000000000E+00 -0.45593999997E+02  0.45594000000E+02  0.51100000000E-03 0. -1.
    9900012    2    1    2    0    0  0.11751596321E+02 -0.21964196621E+02 -0.19904639161E+02  0.59301943338E+02  0.49999998742E+02 0.  0.
        -12    1    1    2    0    0 -0.11751596321E+02  0.21964196621E+02  0.19904639161E+02  0.31886056662E+02  0.00000000000E+00 0.  1.
         11    1    3    3    0    0 -0.78342469746E+00  0.54856314570E+01 -0.42542007133E+01  0.69859953270E+01  0.51100000000E-03 0. -1.
        -11    1    3    3    0    0 -0.12073383116E+01 -0.34456006931E+02 -0.10166214620E+02  0.35944763170E+02  0.51100000000E-03 0.  1.
        -12    1    3    3    0    0  0.13742359330E+02  0.70061788524E+01 -0.54842238282E+01  0.16371184840E+02  0.00000000000E+00 0.  1.
</event>
<event>
 7    1  0.1139627E-011  0.5930193E+02  0.7816164E-02  0.1266605E+00
        -11   -1    0    0    0    0  0.00000000000E+00  0.00000000000E+00  0.45593999997E+02  0.45594000000E+02  0.51100000000E-03 0. -1.
         11   -1    0    0    0    0 -0.00000000000E+00 -0.00000000000E+00 -0.45593999997E+02  0.45594000000E+02  0.51100000000E-03 0.  1.
    9900012    2    1    2    0    0 -0.12261429628E+02  0.25430832473E+02  0.14820649973E+02  0.59301928395E+02  0.49999971489E+02 0.  0.
        -12    1    1    2    0    0  0.12261429628E+02 -0.25430832473E+02 -0.14820649973E+02  0.31886071605E+02  0.00000000000E+00 0.  1.
         11    1    3    3    0    0 -0.10092378700E+02 -0.80538590026E+01  0.48626003143E+01  0.13797305343E+02  0.51100000000E-03 0. -1.
        -11    1    3    3    0    0 -0.85141741122E+01  0.30998278916E+02 -0.14909658595E+01  0.32180855117E+02  0.51100000000E-03 0.  1.
        -12    1    3    3    0    0  0.63451231843E+01  0.24864125598E+01  0.11449015518E+02  0.13323767935E+02  0.00000000000E+00 0.  1.
</event>
<event>
 7    1  0.1139627E-011  0.5930196E+02  0.7816164E-02  0.1266605E+00
        -11   -1    0    0    0    0  0.00000000000E+00  0.00000000000E+00  0.45593999997E+02  0.45594000000E+02  0.51100000000E-03 0.  1.
         11   -1    0    0    0    0 -0.00000000000E+00 -0.00000000000E+00 -0.45593999997E+02  0.45594000000E+02  0.51100000000E-03 0. -1.
    9900012    2    1    2    0    0 -0.93871059774E+01 -0.95479375513E+01 -0.28938528290E+02  0.59301964033E+02  0.50000036485E+02 0.  0.
        -12    1    1    2    0    0  0.93871059774E+01  0.95479375513E+01  0.28938528290E+02  0.31886035967E+02  0.00000000000E+00 0.  1.
         11    1    3    3    0    0 -0.15561758747E+02 -0.91522338032E+01 -0.34418679770E+02  0.38866145117E+02  0.51100000000E-03 0. -1.
        -11    1    3    3    0    0  0.71706713384E+01 -0.24040658745E+01  0.11639731856E+02  0.13880973241E+02  0.51100000000E-03 0.  1.
        -12    1    3    3    0    0 -0.99601856903E+00  0.20083621264E+01 -0.61595803756E+01  0.65548456751E+01  0.00000000000E+00 0.  1.
</event>
<event>
 7    1  0.1139627E-011  0.5930195E+02  0.7816164E-02  0.1266605E+00
        -11   -1    0    0    0    0  0.00000000000E+00  0.00000000000E+00  0.45593999997E+02  0.45594000000E+02  0.51100000000E-03 0.  1.
         11   -1    0    0    0    0 -0.00000000000E+00 -0.00000000000E+00 -0.45593999997E+02  0.45594000000E+02  0.51100000000E-03 0. -1.
    9900012    2    1    2    0    0 -0.10600143199E+02 -0.28665602901E+02  0.90906607753E+01  0.59301953854E+02  0.50000017920E+02 0.  0.
        -12    1    1    2    0    0  0.10600143199E+02  0.28665602901E+02 -0.90906607753E+01  0.31886046146E+02  0.00000000000E+00 0.  1.
         11    1    3    3    0    0  0.86480988024E+01 -0.78486062286E+01  0.35751508535E+01  0.12213596379E+02  0.51100000000E-03 0. -1.
        -11    1    3    3    0    0 -0.19329987027E+02 -0.14947570566E+02  0.19925007647E+02  0.31529100752E+02  0.51100000000E-03 0.  1.
        -12    1    3    3    0    0  0.81745025243E-01 -0.58694261067E+01 -0.14409497725E+02  0.15559256722E+02  0.00000000000E+00 0.  1.
</event>
<event>
 7    1  0.1139627E-011  0.5930196E+02  0.7816164E-02  0.1266605E+00
        -11   -1    0    0    0    0  0.00000000000E+00  0.00000000000E+00  0.45593999997E+02  0.45594000000E+02  0.51100000000E-03 0. -1.
         11   -1    0    0    0    0 -0.00000000000E+00 -0.00000000000E+00 -0.45593999997E+02  0.45594000000E+02  0.51100000000E-03 0.  1.
    9900012    2    1    2    0    0 -0.15718122841E+02 -0.27680564606E+02 -0.18564351792E+01  0.59301962395E+02  0.50000033498E+02 0.  0.
        -12    1    1    2    0    0  0.15718122841E+02  0.27680564606E+02  0.18564351792E+01  0.31886037605E+02  0.00000000000E+00 0.  1.
         11    1    3    3    0    0 -0.19972080304E+02 -0.26280782152E+02  0.82468471377E+01  0.34023139040E+02  0.51100000000E-03 0. -1.
        -11    1    3    3    0    0  0.12626005351E+02 -0.27450908568E+01 -0.11886965750E+01  0.12975536010E+02  0.51100000000E-03 0.  1.
        -12    1    3    3    0    0 -0.83720478882E+01  0.13453084026E+01 -0.89145857418E+01  0.12303287345E+02  0.00000000000E+00 0.  1.
</event>
<event>
 7    1  0.1139627E-011  0.5930187E+02  0.7816164E-02  0.1266605E+00
        -11   -1    0    0    0    0  0.00000000000E+00  0.00000000000E+00  0.45593999997E+02  0.45594000000E+02  0.51100000000E-03 0. -1.
         11   -1    0    0    0    0 -0.00000000000E+00 -0.00000000000E+00 -0.45593999997E+02  0.45594000000E+02  0.51100000000E-03 0.  1.
    9900012    2    1    2    0    0  0.15097703590E+02  0.13803291984E+02 -0.24459224394E+02  0.59301871649E+02  0.49999867998E+02 0.  0.
        -12    1    1    2    0    0 -0.15097703590E+02 -0.13803291984E+02  0.24459224394E+02  0.31886128351E+02  0.00000000000E+00 0.  1.
         11    1    3    3    0    0 -0.98523226675E+00  0.18772921112E+02 -0.22799508208E+01  0.18936510389E+02  0.51100000000E-03 0. -1.
        -11    1    3    3    0    0  0.22271224521E+02 -0.67083646441E+01 -0.76627101785E+01  0.24489318599E+02  0.51100000000E-03 0.  1.
        -12    1    3    3    0    0 -0.61882886648E+01  0.17387355160E+01 -0.14516563395E+02  0.15876042661E+02  0.00000000000E+00 0.  1.
</event>
<event>
 7    1  0.1139627E-011  0.5930184E+02  0.7816164E-02  0.1266605E+00
        -11   -1    0    0    0    0  0.00000000000E+00  0.00000000000E+00  0.45593999997E+02  0.45594000000E+02  0.51100000000E-03 0. -1.
         11   -1    0    0    0    0 -0.00000000000E+00 -0.00000000000E+00 -0.45593999997E+02  0.45594000000E+02  0.51100000000E-03 0.  1.
    9900012    2    1    2    0    0  0.17356950154E+02  0.21703552428E+02  0.15633916477E+02  0.59301839192E+02  0.49999808805E+02 0.  0.
        -12    1    1    2    0    0 -0.17356950154E+02 -0.21703552428E+02 -0.15633916477E+02  0.31886160808E+02  0.00000000000E+00 0.  1.
         11    1    3    3    0    0  0.18632470202E+02  0.26024983822E+02  0.73982134445E+01  0.32851214455E+02  0.51100000000E-03 0. -1.
        -11    1    3    3    0    0  0.44748800313E+01 -0.13528437731E+02  0.53264460769E+01  0.15212304454E+02  0.51100000000E-03 0.  1.
         12    1    3    3    0    0 -0.57504000790E+01  0.92070063373E+01  0.29092569553E+01  0.11238320284E+02  0.00000000000E+00 0. -1.
</event>
<event>
 7    1  0.1139627E-011  0.5930192E+02  0.7816164E-02  0.1266605E+00
        -11   -1    0    0    0    0  0.00000000000E+00  0.00000000000E+00  0.45593999997E+02  0.45594000000E+02  0.51100000000E-03 0. -1.
         11   -1    0    0    0    0 -0.00000000000E+00 -0.00000000000E+00 -0.45593999997E+02  0.45594000000E+02  0.51100000000E-03 0.  1.
    9900012    2    1    2    0    0 -0.20384933269E+02  0.76569488519E+01  0.23292654523E+02  0.59301919576E+02  0.49999955405E+02 0.  0.
        -12    1    1    2    0    0  0.20384933269E+02 -0.76569488519E+01 -0.23292654523E+02  0.31886080424E+02  0.00000000000E+00 0.  1.
         11    1    3    3    0    0 -0.12874912330E+02 -0.15125974786E+02  0.20018387836E+02  0.28200963327E+02  0.51100000000E-03 0. -1.
        -11    1    3    3    0    0 -0.26728051472E+01  0.93770458482E+01 -0.82502000985E+01  0.12772575234E+02  0.51100000000E-03 0.  1.
         12    1    3    3    0    0 -0.48372157917E+01  0.13405877789E+02  0.11524466785E+02  0.18328381014E+02  0.00000000000E+00 0. -1.
</event>
