<event>
 7    1  0.2250716E-008  0.4614232E+02  0.7816164E-02  0.1320468E+00
        -11   -1    0    0    0    0  0.00000000000E+00  0.00000000000E+00  0.45593999997E+02  0.45594000000E+02  0.51100000000E-03 0. -1.
         11   -1    0    0    0    0 -0.00000000000E+00 -0.00000000000E+00 -0.45593999997E+02  0.45594000000E+02  0.51100000000E-03 0.  1.
    9900012    2    1    2    0    0  0.67421918396E+01 -0.33636715094E+02 -0.29192939226E+02  0.46142318145E+02  0.10000003504E+02 0.  0.
         12    1    1    2    0    0 -0.67421918396E+01  0.33636715094E+02  0.29192939226E+02  0.45045681855E+02  0.00000000000E+00 0. -1.
         11    1    3    3    0    0  0.25762607466E+01 -0.93276828478E+01 -0.11867159700E+02  0.15312487268E+02  0.51100000000E-03 0. -1.
        -11    1    3    3    0    0  0.41907517634E+01 -0.19619715848E+02 -0.10772409363E+02  0.22771483352E+02  0.51100000000E-03 0.  1.
        -12    1    3    3    0    0 -0.24820670327E-01 -0.46893163985E+01 -0.65533701627E+01  0.80583475254E+01  0.00000000000E+00 0.  1.
</event>
<event>
 7    1  0.2250716E-008  0.4614232E+02  0.7816164E-02  0.1320468E+00
        -11   -1    0    0    0    0  0.00000000000E+00  0.00000000000E+00  0.45593999997E+02  0.45594000000E+02  0.51100000000E-03 0.  1.
         11   -1    0    0    0    0 -0.00000000000E+00 -0.00000000000E+00 -0.45593999997E+02  0.45594000000E+02  0.51100000000E-03 0. -1.
    9900012    2    1    2    0    0  0.10619770880E+02 -0.23423840825E+02  0.36981856022E+02  0.46142317328E+02  0.99999960522E+01 0.  0.
         12    1    1    2    0    0 -0.10619770880E+02  0.23423840825E+02 -0.36981856022E+02  0.45045682672E+02  0.00000000000E+00 0. -1.
         11    1    3    3    0    0  0.73293059978E+01 -0.94630882977E+01  0.14127675113E+02  0.18516478361E+02  0.51100000000E-03 0. -1.
        -11    1    3    3    0    0  0.46889317660E+01 -0.98132287655E+01  0.18447439345E+02  0.21414797654E+02  0.51100000000E-03 0.  1.
         12    1    3    3    0    0 -0.13984668840E+01 -0.41475237620E+01  0.44067415640E+01  0.62110413131E+01  0.00000000000E+00 0. -1.
</event>
<event>
 7    1  0.2250716E-008  0.4614232E+02  0.7816164E-02  0.1320468E+00
        -11   -1    0    0    0    0  0.00000000000E+00  0.00000000000E+00  0.45593999997E+02  0.45594000000E+02  0.51100000000E-03 0.  1.
         11   -1    0    0    0    0 -0.00000000000E+00 -0.00000000000E+00 -0.45593999997E+02  0.45594000000E+02  0.51100000000E-03 0. -1.
    9900012    2    1    2    0    0 -0.18792864845E+02 -0.23207521014E+02  0.33724659476E+02  0.46142318105E+02  0.10000003133E+02 0.  0.
         12    1    1    2    0    0  0.18792864845E+02  0.23207521014E+02 -0.33724659476E+02  0.45045681895E+02  0.00000000000E+00 0. -1.
         11    1    3    3    0    0 -0.35740622207E+01 -0.28581813465E+01  0.15933119803E+01  0.48457986643E+01  0.51100000000E-03 0. -1.
        -11    1    3    3    0    0 -0.10457263959E+02 -0.11223132177E+02  0.16040706226E+02  0.22194984160E+02  0.51100000000E-03 0.  1.
        -12    1    3    3    0    0 -0.47615386653E+01 -0.91262074904E+01  0.16090641270E+02  0.19101535281E+02  0.00000000000E+00 0.  1.
</event>
<event>
 7    1  0.2250716E-008  0.4614232E+02  0.7816164E-02  0.1320468E+00
        -11   -1    0    0    0    0  0.00000000000E+00  0.00000000000E+00  0.45593999997E+02  0.45594000000E+02  0.51100000000E-03 0. -1.
         11   -1    0    0    0    0 -0.00000000000E+00 -0.00000000000E+00 -0.45593999997E+02  0.45594000000E+02  0.51100000000E-03 0.  1.
    9900012    2    1    2    0    0  0.40652420970E+02 -0.64896340851E+01 -0.18286031115E+02  0.46142316353E+02  0.99999871633E+01 0.  0.
         12    1    1    2    0    0 -0.40652420970E+02  0.64896340851E+01  0.18286031115E+02  0.45045683647E+02  0.00000000000E+00 0. -1.
         11    1    3    3    0    0  0.37069210540E+01 -0.22734664830E+01 -0.26152333537E+01  0.50743826526E+01  0.51100000000E-03 0. -1.
        -11    1    3    3    0    0  0.28667757261E+02 -0.37397656040E+01 -0.15435462085E+02  0.32773154306E+02  0.51100000000E-03 0.  1.
        -12    1    3    3    0    0  0.82777426553E+01 -0.47640199804E+00 -0.23533567627E+00  0.82947793949E+01  0.00000000000E+00 0.  1.
</event>
<event>
 7    1  0.2250716E-008  0.4614232E+02  0.7816164E-02  0.1320468E+00
        -11   -1    0    0    0    0  0.00000000000E+00  0.00000000000E+00  0.45593999997E+02  0.45594000000E+02  0.51100000000E-03 0.  1.
         11   -1    0    0    0    0 -0.00000000000E+00 -0.00000000000E+00 -0.45593999997E+02  0.45594000000E+02  0.51100000000E-03 0. -1.
    9900012    2    1    2    0    0 -0.16277131158E+02  0.19076954783E+02  0.37419758348E+02  0.46142317439E+02  0.99999970649E+01 0.  0.
         12    1    1    2    0    0  0.16277131158E+02 -0.19076954783E+02 -0.37419758348E+02  0.45045682561E+02  0.00000000000E+00 0. -1.
         11    1    3    3    0    0 -0.32520403763E+01  0.32026287248E+00  0.18492167556E+01  0.37547220652E+01  0.51100000000E-03 0.  1.
        -11    1    3    3    0    0 -0.13914073539E+01  0.66518336495E+00  0.22547947280E+01  0.27317728420E+01  0.51100000000E-03 0. -1.
        -12    1    3    3    0    0 -0.11633683428E+02  0.18091508545E+02  0.33315746865E+02  0.39655822532E+02  0.00000000000E+00 0.  1.
</event>
<event>
 7    1  0.2250716E-008  0.4614232E+02  0.7816164E-02  0.1320468E+00
        -11   -1    0    0    0    0  0.00000000000E+00  0.00000000000E+00  0.45593999997E+02  0.45594000000E+02  0.51100000000E-03 0.  1.
         11   -1    0    0    0    0 -0.00000000000E+00 -0.00000000000E+00 -0.45593999997E+02  0.45594000000E+02  0.51100000000E-03 0. -1.
    9900012    2    1    2    0    0  0.56833372380E+01 -0.33439875118E+02  0.29640985725E+02  0.46142316469E+02  0.99999882132E+01 0.  0.
         12    1    1    2    0    0 -0.56833372380E+01  0.33439875118E+02 -0.29640985725E+02  0.45045683531E+02  0.00000000000E+00 0. -1.
         11    1    3    3    0    0 -0.10763815797E+01 -0.12927478718E+02  0.87238692992E+01  0.15632792429E+02  0.51100000000E-03 0. -1.
        -11    1    3    3    0    0 -0.40895251274E+00 -0.60964338941E+01  0.56783232244E+01  0.83412890661E+01  0.51100000000E-03 0.  1.
         12    1    3    3    0    0  0.71686713304E+01 -0.14415962506E+02  0.15238793201E+02  0.22168234974E+02  0.00000000000E+00 0. -1.
</event>
<event>
 7    1  0.2250716E-008  0.4614232E+02  0.7816164E-02  0.1320468E+00
        -11   -1    0    0    0    0  0.00000000000E+00  0.00000000000E+00  0.45593999997E+02  0.45594000000E+02  0.51100000000E-03 0.  1.
         11   -1    0    0    0    0 -0.00000000000E+00 -0.00000000000E+00 -0.45593999997E+02  0.45594000000E+02  0.51100000000E-03 0. -1.
    9900012    2    1    2    0    0 -0.36053479129E+02 -0.15994487713E+02  0.21758596506E+02  0.46142317450E+02  0.99999971618E+01 0.  0.
         12    1    1    2    0    0  0.36053479129E+02  0.15994487713E+02 -0.21758596506E+02  0.45045682550E+02  0.00000000000E+00 0. -1.
         11    1    3    3    0    0 -0.50844584815E+01 -0.86328819871E+00  0.17084568978E+01  0.54328454604E+01  0.51100000000E-03 0. -1.
        -11    1    3    3    0    0 -0.21038847167E+02 -0.74241547904E+01  0.16170707912E+02  0.27554363703E+02  0.51100000000E-03 0.  1.
        -12    1    3    3    0    0 -0.99301734809E+01 -0.77070447240E+01  0.38794316957E+01  0.13155108286E+02  0.00000000000E+00 0.  1.
</event>
<event>
 7    1  0.2250716E-008  0.4614232E+02  0.7816164E-02  0.1320468E+00
        -11   -1    0    0    0    0  0.00000000000E+00  0.00000000000E+00  0.45593999997E+02  0.45594000000E+02  0.51100000000E-03 0. -1.
         11   -1    0    0    0    0 -0.00000000000E+00 -0.00000000000E+00 -0.45593999997E+02  0.45594000000E+02  0.51100000000E-03 0.  1.
    9900012    2    1    2    0    0  0.15883273990E+02  0.35713493373E+02  0.22391548967E+02  0.46142318002E+02  0.10000002197E+02 0.  0.
         12    1    1    2    0    0 -0.15883273990E+02 -0.35713493373E+02 -0.22391548967E+02  0.45045681998E+02  0.00000000000E+00 0. -1.
         11    1    3    3    0    0  0.97045582774E+01  0.15323895230E+02  0.10327096967E+02  0.20872209955E+02  0.51100000000E-03 0. -1.
        -11    1    3    3    0    0  0.12361503269E+01  0.46872780662E+00  0.20328172231E+01  0.24248957732E+01  0.51100000000E-03 0.  1.
        -12    1    3    3    0    0  0.49425653856E+01  0.19920870336E+02  0.10031634777E+02  0.22845212274E+02  0.00000000000E+00 0.  1.
</event>
<event>
 7    1  0.2250716E-008  0.4614232E+02  0.7816164E-02  0.1320468E+00
        -11   -1    0    0    0    0  0.00000000000E+00  0.00000000000E+00  0.45593999997E+02  0.45594000000E+02  0.51100000000E-03 0. -1.
         11   -1    0    0    0    0 -0.00000000000E+00 -0.00000000000E+00 -0.45593999997E+02  0.45594000000E+02  0.51100000000E-03 0.  1.
    9900012    2    1    2    0    0  0.25854804530E+02  0.32455308639E+02  0.17529848147E+02  0.46142317053E+02  0.99999935407E+01 0.  0.
         12    1    1    2    0    0 -0.25854804530E+02 -0.32455308639E+02 -0.17529848147E+02  0.45045682947E+02  0.00000000000E+00 0. -1.
         11    1    3    3    0    0  0.13912940465E+01  0.20871099736E+00  0.13393436297E+01  0.19424471740E+01  0.51100000000E-03 0. -1.
        -11    1    3    3    0    0  0.11268442730E+02  0.94998388292E+01  0.44044527252E+01  0.15382585720E+02  0.51100000000E-03 0.  1.
         12    1    3    3    0    0  0.13195067754E+02  0.22746758812E+02  0.11786051792E+02  0.28817284159E+02  0.00000000000E+00 0. -1.
</event>
<event>
 7    1  0.2250716E-008  0.4614232E+02  0.7816164E-02  0.1320468E+00
        -11   -1    0    0    0    0  0.00000000000E+00  0.00000000000E+00  0.45593999997E+02  0.45594000000E+02  0.51100000000E-03 0.  1.
         11   -1    0    0    0    0 -0.00000000000E+00 -0.00000000000E+00 -0.45593999997E+02  0.45594000000E+02  0.51100000000E-03 0. -1.
    9900012    2    1    2    0    0 -0.38758313161E+02  0.21757373457E+02 -0.73159640576E+01  0.46142317977E+02  0.10000001970E+02 0.  0.
         12    1    1    2    0    0  0.38758313161E+02 -0.21757373457E+02  0.73159640576E+01  0.45045682023E+02  0.00000000000E+00 0. -1.
         11    1    3    3    0    0 -0.22098000001E+01 -0.64231548737E-01 -0.11875639700E+00  0.22139207473E+01  0.51100000000E-03 0. -1.
        -11    1    3    3    0    0 -0.24439182369E+02  0.15765968087E+02 -0.11658948180E+01  0.29106677852E+02  0.51100000000E-03 0.  1.
         12    1    3    3    0    0 -0.12109330792E+02  0.60556369189E+01 -0.60313128426E+01  0.14821719378E+02  0.00000000000E+00 0. -1.
</event>
<event>
 7    1  0.2250716E-008  0.4614232E+02  0.7816164E-02  0.1320468E+00
        -11   -1    0    0    0    0  0.00000000000E+00  0.00000000000E+00  0.45593999997E+02  0.45594000000E+02  0.51100000000E-03 0.  1.
         11   -1    0    0    0    0 -0.00000000000E+00 -0.00000000000E+00 -0.45593999997E+02  0.45594000000E+02  0.51100000000E-03 0. -1.
    9900012    2    1    2    0    0  0.28402546289E+02 -0.17105349966E+02  0.30492881587E+02  0.46142318069E+02  0.10000002805E+02 0.  0.
         12    1    1    2    0    0 -0.28402546289E+02  0.17105349966E+02 -0.30492881587E+02  0.45045681931E+02  0.00000000000E+00 0. -1.
         11    1    3    3    0    0  0.10289187847E+02 -0.28005596249E+01  0.62128131020E+01  0.12341376247E+02  0.51100000000E-03 0. -1.
        -11    1    3    3    0    0  0.11165063559E+02 -0.60883721942E+01  0.14104112653E+02  0.18990863968E+02  0.51100000000E-03 0.  1.
        -12    1    3    3    0    0  0.69482948829E+01 -0.82164181473E+01  0.10175955832E+02  0.14810077854E+02  0.00000000000E+00 0.  1.
</event>
<event>
 7    1  0.2250716E-008  0.4614232E+02  0.7816164E-02  0.1320468E+00
        -11   -1    0    0    0    0  0.00000000000E+00  0.00000000000E+00  0.45593999997E+02  0.45594000000E+02  0.51100000000E-03 0.  1.
         11   -1    0    0    0    0 -0.00000000000E+00 -0.00000000000E+00 -0.45593999997E+02  0.45594000000E+02  0.51100000000E-03 0. -1.
    9900012    2    1    2    0    0  0.23960542800E+02  0.36241313814E+02 -0.11898449984E+02  0.46142317074E+02  0.99999937345E+01 0.  0.
         12    1    1    2    0    0 -0.23960542800E+02 -0.36241313814E+02  0.11898449984E+02  0.45045682926E+02  0.00000000000E+00 0. -1.
         11    1    3    3    0    0  0.51549648525E+01  0.55707973069E+01 -0.40857682872E+01  0.86197997670E+01  0.51100000000E-03 0. -1.
        -11    1    3    3    0    0  0.14440115137E+02  0.18736396527E+02 -0.74836036910E+01  0.24810759853E+02  0.51100000000E-03 0.  1.
         12    1    3    3    0    0  0.43654628106E+01  0.11934119980E+02 -0.32907800559E+00  0.12711757454E+02  0.00000000000E+00 0. -1.
</event>
<event>
 7    1  0.2250716E-008  0.4614231E+02  0.7816164E-02  0.1320468E+00
        -11   -1    0    0    0    0  0.00000000000E+00  0.00000000000E+00  0.45593999997E+02  0.45594000000E+02  0.51100000000E-03 0. -1.
         11   -1    0    0    0    0 -0.00000000000E+00 -0.00000000000E+00 -0.45593999997E+02  0.45594000000E+02  0.51100000000E-03 0.  1.
    9900012    2    1    2    0    0 -0.21850292241E+02  0.15862645272E+02 -0.36056281689E+02  0.46142309470E+02  0.99999243959E+01 0.  0.
         12    1    1    2    0    0  0.21850292241E+02 -0.15862645272E+02  0.36056281689E+02  0.45045690530E+02  0.00000000000E+00 0. -1.
         11    1    3    3    0    0 -0.14843750799E+02  0.71543046343E+01 -0.20356573891E+02  0.26189904799E+02  0.51100000000E-03 0. -1.
        -11    1    3    3    0    0 -0.75200074363E+01  0.89035029010E+01 -0.15440334463E+02  0.19344942604E+02  0.51100000000E-03 0.  1.
         12    1    3    3    0    0  0.51346599360E+00 -0.19516226322E+00 -0.25937333524E+00  0.60746206680E+00  0.00000000000E+00 0. -1.
</event>
<event>
 7    1  0.2250716E-008  0.4614232E+02  0.7816164E-02  0.1320468E+00
        -11   -1    0    0    0    0  0.00000000000E+00  0.00000000000E+00  0.45593999997E+02  0.45594000000E+02  0.51100000000E-03 0. -1.
         11   -1    0    0    0    0 -0.00000000000E+00 -0.00000000000E+00 -0.45593999997E+02  0.45594000000E+02  0.51100000000E-03 0.  1.
    9900012    2    1    2    0    0  0.85188594440E+01 -0.38285595466E+02 -0.22153004622E+02  0.46142318739E+02  0.10000008921E+02 0.  0.
         12    1    1    2    0    0 -0.85188594440E+01  0.38285595466E+02  0.22153004622E+02  0.45045681261E+02  0.00000000000E+00 0. -1.
         11    1    3    3    0    0  0.20470274839E+01 -0.81907503613E+01 -0.94147457617E+00  0.84950036868E+01  0.51100000000E-03 0. -1.
        -11    1    3    3    0    0  0.57295722962E+00 -0.63703933130E+01 -0.64800712088E+01  0.91050268578E+01  0.51100000000E-03 0.  1.
        -12    1    3    3    0    0  0.58988747304E+01 -0.23724451792E+02 -0.14731458837E+02  0.28542288195E+02  0.00000000000E+00 0.  1.
</event>
<event>
 7    1  0.2250716E-008  0.4614232E+02  0.7816164E-02  0.1320468E+00
        -11   -1    0    0    0    0  0.00000000000E+00  0.00000000000E+00  0.45593999997E+02  0.45594000000E+02  0.51100000000E-03 0.  1.
         11   -1    0    0    0    0 -0.00000000000E+00 -0.00000000000E+00 -0.45593999997E+02  0.45594000000E+02  0.51100000000E-03 0. -1.
    9900012    2    1    2    0    0 -0.26237425310E+02  0.36593266785E+02 -0.12821347156E+01  0.46142317295E+02  0.99999957534E+01 0.  0.
         12    1    1    2    0    0  0.26237425310E+02 -0.36593266785E+02  0.12821347156E+01  0.45045682705E+02  0.00000000000E+00 0. -1.
         11    1    3    3    0    0 -0.10064839713E+02  0.89800745439E+01 -0.17479693002E+01  0.13601401921E+02  0.51100000000E-03 0.  1.
        -11    1    3    3    0    0 -0.18446014252E+01  0.37720134583E+01 -0.19327459919E+01  0.46223530023E+01  0.51100000000E-03 0. -1.
        -12    1    3    3    0    0 -0.14327984172E+02  0.23841178783E+02  0.23985805765E+01  0.27918562373E+02  0.00000000000E+00 0.  1.
</event>
<event>
 7    1  0.2250716E-008  0.4614232E+02  0.7816164E-02  0.1320468E+00
        -11   -1    0    0    0    0  0.00000000000E+00  0.00000000000E+00  0.45593999997E+02  0.45594000000E+02  0.51100000000E-03 0.  1.
         11   -1    0    0    0    0 -0.00000000000E+00 -0.00000000000E+00 -0.45593999997E+02  0.45594000000E+02  0.51100000000E-03 0. -1.
    9900012    2    1    2    0    0  0.77318015981E+01 -0.38499710428E+02  0.22070454872E+02  0.46142318329E+02  0.10000005175E+02 0.  0.
         12    1    1    2    0    0 -0.77318015981E+01  0.38499710428E+02 -0.22070454872E+02  0.45045681671E+02  0.00000000000E+00 0. -1.
         11    1    3    3    0    0  0.27724515640E+01 -0.15764294837E+02  0.60454869153E+01  0.17109862410E+02  0.51100000000E-03 0. -1.
        -11    1    3    3    0    0  0.37198982108E+01 -0.12664092916E+02  0.51764458300E+01  0.14177887141E+02  0.51100000000E-03 0.  1.
        -12    1    3    3    0    0  0.12394518233E+01 -0.10071322675E+02  0.10848522127E+02  0.14854568778E+02  0.00000000000E+00 0.  1.
</event>
<event>
 7    1  0.2250716E-008  0.4614232E+02  0.7816164E-02  0.1320468E+00
        -11   -1    0    0    0    0  0.00000000000E+00  0.00000000000E+00  0.45593999997E+02  0.45594000000E+02  0.51100000000E-03 0. -1.
         11   -1    0    0    0    0 -0.00000000000E+00 -0.00000000000E+00 -0.45593999997E+02  0.45594000000E+02  0.51100000000E-03 0.  1.
    9900012    2    1    2    0    0  0.33789142088E+02 -0.27895696387E+01 -0.29658483988E+02  0.46142317695E+02  0.99999994012E+01 0.  0.
         12    1    1    2    0    0 -0.33789142088E+02  0.27895696387E+01  0.29658483988E+02  0.45045682305E+02  0.00000000000E+00 0. -1.
         11    1    3    3    0    0  0.12525896806E+02 -0.31824372286E+01 -0.11453532048E+02  0.17268740375E+02  0.51100000000E-03 0. -1.
        -11    1    3    3    0    0  0.19421453358E+02  0.45633589078E+00 -0.18700767998E+02  0.26965159317E+02  0.51100000000E-03 0.  1.
         12    1    3    3    0    0  0.18417919232E+01 -0.63468300847E-01  0.49581605749E+00  0.19084180036E+01  0.00000000000E+00 0. -1.
</event>
<event>
 7    1  0.2250716E-008  0.4614232E+02  0.7816164E-02  0.1320468E+00
        -11   -1    0    0    0    0  0.00000000000E+00  0.00000000000E+00  0.45593999997E+02  0.45594000000E+02  0.51100000000E-03 0. -1.
         11   -1    0    0    0    0 -0.00000000000E+00 -0.00000000000E+00 -0.45593999997E+02  0.45594000000E+02  0.51100000000E-03 0.  1.
    9900012    2    1    2    0    0 -0.35020733389E+02  0.27947475928E+02 -0.46476092290E+01  0.46142318194E+02  0.10000003943E+02 0.  0.
         12    1    1    2    0    0  0.35020733389E+02 -0.27947475928E+02  0.46476092290E+01  0.45045681806E+02  0.00000000000E+00 0. -1.
         11    1    3    3    0    0 -0.86656936933E+00  0.77247810192E+00 -0.45304873436E+00  0.12461614288E+01  0.51100000000E-03 0. -1.
        -11    1    3    3    0    0 -0.87150315231E+01  0.11893262325E+02  0.95915237039E+00  0.14775704271E+02  0.51100000000E-03 0.  1.
        -12    1    3    3    0    0 -0.25439132497E+02  0.15281735501E+02 -0.51537128650E+01  0.30120452493E+02  0.00000000000E+00 0.  1.
</event>
<event>
 7    1  0.2250716E-008  0.4614232E+02  0.7816164E-02  0.1320468E+00
        -11   -1    0    0    0    0  0.00000000000E+00  0.00000000000E+00  0.45593999997E+02  0.45594000000E+02  0.51100000000E-03 0.  1.
         11   -1    0    0    0    0 -0.00000000000E+00 -0.00000000000E+00 -0.45593999997E+02  0.45594000000E+02  0.51100000000E-03 0. -1.
    9900012    2    1    2    0    0  0.42063253673E+02 -0.59576095336E+01  0.14976752281E+02  0.46142317301E+02  0.99999958045E+01 0.  0.
         12    1    1    2    0    0 -0.42063253673E+02  0.59576095336E+01 -0.14976752281E+02  0.45045682699E+02  0.00000000000E+00 0. -1.
         11    1    3    3    0    0  0.23405614815E+02 -0.26335509748E+01  0.12899286738E+02  0.26854236057E+02  0.51100000000E-03 0. -1.
        -11    1    3    3    0    0  0.13330227189E+02 -0.11402992618E+01  0.20173790636E+01  0.13530153653E+02  0.51100000000E-03 0.  1.
         12    1    3    3    0    0  0.53274116693E+01 -0.21837592970E+01  0.60086479402E-01  0.57579275913E+01  0.00000000000E+00 0. -1.
</event>
<event>
 7    1  0.2250716E-008  0.4614232E+02  0.7816164E-02  0.1320468E+00
        -11   -1    0    0    0    0  0.00000000000E+00  0.00000000000E+00  0.45593999997E+02  0.45594000000E+02  0.51100000000E-03 0.  1.
         11   -1    0    0    0    0 -0.00000000000E+00 -0.00000000000E+00 -0.45593999997E+02  0.45594000000E+02  0.51100000000E-03 0. -1.
    9900012    2    1    2    0    0  0.19560942357E+02  0.30412228420E+02  0.26862230314E+02  0.46142317401E+02  0.99999967146E+01 0.  0.
         12    1    1    2    0    0 -0.19560942357E+02 -0.30412228420E+02 -0.26862230314E+02  0.45045682599E+02  0.00000000000E+00 0. -1.
         11    1    3    3    0    0  0.38308847084E+01  0.28313863967E+01  0.72610825271E+01  0.86842239897E+01  0.51100000000E-03 0. -1.
        -11    1    3    3    0    0  0.11735711323E+02  0.18851591414E+02  0.12201257380E+02  0.25337326240E+02  0.51100000000E-03 0.  1.
         12    1    3    3    0    0  0.39943463264E+01  0.87292506088E+01  0.73998904075E+01  0.12120767171E+02  0.00000000000E+00 0. -1.
</event>
<event>
 7    1  0.2250716E-008  0.4614232E+02  0.7816164E-02  0.1320468E+00
        -11   -1    0    0    0    0  0.00000000000E+00  0.00000000000E+00  0.45593999997E+02  0.45594000000E+02  0.51100000000E-03 0.  1.
         11   -1    0    0    0    0 -0.00000000000E+00 -0.00000000000E+00 -0.45593999997E+02  0.45594000000E+02  0.51100000000E-03 0. -1.
    9900012    2    1    2    0    0 -0.17698006417E+02  0.92905834593E+01  0.40368046048E+02  0.46142317478E+02  0.99999974140E+01 0.  0.
         12    1    1    2    0    0  0.17698006417E+02 -0.92905834593E+01 -0.40368046048E+02  0.45045682522E+02  0.00000000000E+00 0. -1.
         11    1    3    3    0    0 -0.33934096914E+01  0.44770458098E+00  0.51416327307E+01  0.61767350699E+01  0.51100000000E-03 0. -1.
        -11    1    3    3    0    0 -0.61262089331E+01  0.47980048594E+01  0.76223800037E+01  0.10892748216E+02  0.51100000000E-03 0.  1.
        -12    1    3    3    0    0 -0.81783877928E+01  0.40448740189E+01  0.27604033314E+02  0.29072834191E+02  0.00000000000E+00 0.  1.
</event>
<event>
 7    1  0.2250716E-008  0.4614232E+02  0.7816164E-02  0.1320468E+00
        -11   -1    0    0    0    0  0.00000000000E+00  0.00000000000E+00  0.45593999997E+02  0.45594000000E+02  0.51100000000E-03 0. -1.
         11   -1    0    0    0    0 -0.00000000000E+00 -0.00000000000E+00 -0.45593999997E+02  0.45594000000E+02  0.51100000000E-03 0.  1.
    9900012    2    1    2    0    0 -0.22148709740E+02  0.39157950049E+02 -0.22810361991E+01  0.46142317396E+02  0.99999966662E+01 0.  0.
         12    1    1    2    0    0  0.22148709740E+02 -0.39157950049E+02  0.22810361991E+01  0.45045682604E+02  0.00000000000E+00 0. -1.
         11    1    3    3    0    0 -0.16789325320E+01  0.22526508119E+01  0.15762010717E+01  0.32214375994E+01  0.51100000000E-03 0. -1.
        -11    1    3    3    0    0 -0.15695110098E+02  0.23448739890E+02 -0.35404740919E+00  0.28218880794E+02  0.51100000000E-03 0.  1.
        -12    1    3    3    0    0 -0.47746671104E+01  0.13456559346E+02 -0.35031898616E+01  0.14701999002E+02  0.00000000000E+00 0.  1.
</event>
<event>
 7    1  0.2250716E-008  0.4614232E+02  0.7816164E-02  0.1320468E+00
        -11   -1    0    0    0    0  0.00000000000E+00  0.00000000000E+00  0.45593999997E+02  0.45594000000E+02  0.51100000000E-03 0. -1.
         11   -1    0    0    0    0 -0.00000000000E+00 -0.00000000000E+00 -0.45593999997E+02  0.45594000000E+02  0.51100000000E-03 0.  1.
    9900012    2    1    2    0    0 -0.31036880356E+02  0.22386941008E+02 -0.23762374143E+02  0.46142317689E+02  0.99999993466E+01 0.  0.
         12    1    1    2    0    0  0.31036880356E+02 -0.22386941008E+02  0.23762374143E+02  0.45045682311E+02  0.00000000000E+00 0. -1.
         11    1    3    3    0    0 -0.51997510377E+01  0.21089134066E+01 -0.39794290299E+01  0.68790102687E+01  0.51100000000E-03 0. -1.
        -11    1    3    3    0    0 -0.10992093619E+02  0.55631199140E+01 -0.11260149646E+02  0.16690278476E+02  0.51100000000E-03 0.  1.
        -12    1    3    3    0    0 -0.14845035699E+02  0.14714907687E+02 -0.85227954667E+01  0.22573028944E+02  0.00000000000E+00 0.  1.
</event>
<event>
 7    1  0.2250716E-008  0.4614232E+02  0.7816164E-02  0.1320468E+00
        -11   -1    0    0    0    0  0.00000000000E+00  0.00000000000E+00  0.45593999997E+02  0.45594000000E+02  0.51100000000E-03 0.  1.
         11   -1    0    0    0    0 -0.00000000000E+00 -0.00000000000E+00 -0.45593999997E+02  0.45594000000E+02  0.51100000000E-03 0. -1.
    9900012    2    1    2    0    0 -0.39122222931E+02  0.55134808236E+01  0.21637160761E+02  0.46142317369E+02  0.99999964263E+01 0.  0.
         12    1    1    2    0    0  0.39122222931E+02 -0.55134808236E+01 -0.21637160761E+02  0.45045682631E+02  0.00000000000E+00 0. -1.
         11    1    3    3    0    0  0.30536675746E-01  0.11203893889E-01  0.44599259650E-01  0.55202997077E-01  0.51100000000E-03 0. -1.
        -11    1    3    3    0    0 -0.39541259959E+02  0.48404290713E+01  0.20646476750E+02  0.44868897861E+02  0.51100000000E-03 0.  1.
        -12    1    3    3    0    0  0.38850035267E+00  0.66184785847E+00  0.94608475132E+00  0.12182165113E+01  0.00000000000E+00 0.  1.
</event>
<event>
 7    1  0.2250716E-008  0.4614232E+02  0.7816164E-02  0.1320468E+00
        -11   -1    0    0    0    0  0.00000000000E+00  0.00000000000E+00  0.45593999997E+02  0.45594000000E+02  0.51100000000E-03 0.  1.
         11   -1    0    0    0    0 -0.00000000000E+00 -0.00000000000E+00 -0.45593999997E+02  0.45594000000E+02  0.51100000000E-03 0. -1.
    9900012    2    1    2    0    0  0.29075522856E+02 -0.30510559791E+02  0.15900732015E+02  0.46142316892E+02  0.99999920709E+01 0.  0.
         12    1    1    2    0    0 -0.29075522856E+02  0.30510559791E+02 -0.15900732015E+02  0.45045683108E+02  0.00000000000E+00 0. -1.
         11    1    3    3    0    0  0.53944311004E+01 -0.33511565198E+01  0.32677896503E+01  0.71420295698E+01  0.51100000000E-03 0.  1.
        -11    1    3    3    0    0  0.80994352776E+01 -0.10700474029E+02  0.87093921785E+01  0.15998578332E+02  0.51100000000E-03 0. -1.
         12    1    3    3    0    0  0.15581656478E+02 -0.16458929242E+02  0.39235501862E+01  0.23001708990E+02  0.00000000000E+00 0. -1.
</event>
<event>
 7    1  0.2250716E-008  0.4614232E+02  0.7816164E-02  0.1320468E+00
        -11   -1    0    0    0    0  0.00000000000E+00  0.00000000000E+00  0.45593999997E+02  0.45594000000E+02  0.51100000000E-03 0. -1.
         11   -1    0    0    0    0 -0.00000000000E+00 -0.00000000000E+00 -0.45593999997E+02  0.45594000000E+02  0.51100000000E-03 0.  1.
    9900012    2    1    2    0    0 -0.22823073718E+02 -0.38416455503E+02  0.56918179531E+01  0.46142317199E+02  0.99999948745E+01 0.  0.
         12    1    1    2    0    0  0.22823073718E+02  0.38416455503E+02 -0.56918179531E+01  0.45045682801E+02  0.00000000000E+00 0. -1.
         11    1    3    3    0    0 -0.18378077876E+02 -0.21907521381E+02  0.31551511711E+01  0.28768875867E+02  0.51100000000E-03 0.  1.
        -11    1    3    3    0    0 -0.47441195418E+00 -0.40056291811E+01  0.10697078468E+01  0.41730572698E+01  0.51100000000E-03 0. -1.
        -12    1    3    3    0    0 -0.39705838877E+01 -0.12503304942E+02  0.14669589353E+01  0.13200384062E+02  0.00000000000E+00 0.  1.
</event>
<event>
 7    1  0.2250716E-008  0.4614232E+02  0.7816164E-02  0.1320468E+00
        -11   -1    0    0    0    0  0.00000000000E+00  0.00000000000E+00  0.45593999997E+02  0.45594000000E+02  0.51100000000E-03 0.  1.
         11   -1    0    0    0    0 -0.00000000000E+00 -0.00000000000E+00 -0.45593999997E+02  0.45594000000E+02  0.51100000000E-03 0. -1.
    9900012    2    1    2    0    0  0.76443792632E+01 -0.42685027460E+02  0.12192842568E+02  0.46142317482E+02  0.99999974559E+01 0.  0.
         12    1    1    2    0    0 -0.76443792632E+01  0.42685027460E+02 -0.12192842568E+02  0.45045682518E+02  0.00000000000E+00 0. -1.
         11    1    3    3    0    0  0.28044659133E-03 -0.34178431533E+01  0.29596251222E+01  0.45211760665E+01  0.51100000000E-03 0. -1.
        -11    1    3    3    0    0  0.65886027042E+00 -0.24801646802E+01 -0.10773970720E+01  0.27831813468E+01  0.51100000000E-03 0.  1.
        -12    1    3    3    0    0  0.69852385462E+01 -0.36787019627E+02  0.10310614518E+02  0.38837960069E+02  0.00000000000E+00 0.  1.
</event>
<event>
 7    1  0.2250716E-008  0.4614232E+02  0.7816164E-02  0.1320468E+00
        -11   -1    0    0    0    0  0.00000000000E+00  0.00000000000E+00  0.45593999997E+02  0.45594000000E+02  0.51100000000E-03 0.  1.
         11   -1    0    0    0    0 -0.00000000000E+00 -0.00000000000E+00 -0.45593999997E+02  0.45594000000E+02  0.51100000000E-03 0. -1.
    9900012    2    1    2    0    0  0.71351806515E+01  0.15865540837E+02  0.41551021732E+02  0.46142316566E+02  0.99999891055E+01 0.  0.
         12    1    1    2    0    0 -0.71351806515E+01 -0.15865540837E+02 -0.41551021732E+02  0.45045683434E+02  0.00000000000E+00 0. -1.
         11    1    3    3    0    0  0.40113751362E+01  0.10293645345E+02  0.20723189490E+02  0.23484055184E+02  0.51100000000E-03 0. -1.
        -11    1    3    3    0    0  0.44141868385E+01  0.58770225027E+01  0.19199542224E+02  0.20558376901E+02  0.51100000000E-03 0.  1.
         12    1    3    3    0    0 -0.12903813232E+01 -0.30512701014E+00  0.16282900186E+01  0.20998844817E+01  0.00000000000E+00 0. -1.
</event>
<event>
 7    1  0.2250716E-008  0.4614232E+02  0.7816164E-02  0.1320468E+00
        -11   -1    0    0    0    0  0.00000000000E+00  0.00000000000E+00  0.45593999997E+02  0.45594000000E+02  0.51100000000E-03 0.  1.
         11   -1    0    0    0    0 -0.00000000000E+00 -0.00000000000E+00 -0.45593999997E+02  0.45594000000E+02  0.51100000000E-03 0. -1.
    9900012    2    1    2    0    0 -0.11395202329E+02 -0.63470608699E+01  0.43115865241E+02  0.46142315931E+02  0.99999833103E+01 0.  0.
         12    1    1    2    0    0  0.11395202329E+02  0.63470608699E+01 -0.43115865241E+02  0.45045684069E+02  0.00000000000E+00 0. -1.
         11    1    3    3    0    0 -0.34814008349E+01 -0.24177580492E+01  0.53972449486E+01  0.68626495652E+01  0.51100000000E-03 0. -1.
        -11    1    3    3    0    0 -0.65508314970E+01  0.48936735633E-01  0.26530645286E+02  0.27327475692E+02  0.51100000000E-03 0.  1.
        -12    1    3    3    0    0 -0.13629699972E+01 -0.39782395564E+01  0.11187975006E+02  0.11952190674E+02  0.00000000000E+00 0.  1.
</event>
<event>
 7    1  0.2250716E-008  0.4614232E+02  0.7816164E-02  0.1320468E+00
        -11   -1    0    0    0    0  0.00000000000E+00  0.00000000000E+00  0.45593999997E+02  0.45594000000E+02  0.51100000000E-03 0. -1.
         11   -1    0    0    0    0 -0.00000000000E+00 -0.00000000000E+00 -0.45593999997E+02  0.45594000000E+02  0.51100000000E-03 0.  1.
    9900012    2    1    2    0    0 -0.55069521067E+01  0.43049057457E+01 -0.44500052443E+02  0.46142318715E+02  0.10000008696E+02 0.  0.
         12    1    1    2    0    0  0.55069521067E+01 -0.43049057457E+01  0.44500052443E+02  0.45045681285E+02  0.00000000000E+00 0. -1.
         11    1    3    3    0    0 -0.47688913998E+01 -0.43036222581E+00 -0.18143518955E+02  0.18764722677E+02  0.51100000000E-03 0. -1.
        -11    1    3    3    0    0  0.24050568076E+01  0.13729394608E+01 -0.11222662365E+02  0.11559299798E+02  0.51100000000E-03 0.  1.
        -12    1    3    3    0    0 -0.31431175145E+01  0.33623285107E+01 -0.15133871124E+02  0.15818296240E+02  0.00000000000E+00 0.  1.
</event>
<event>
 7    1  0.2250716E-008  0.4614231E+02  0.7816164E-02  0.1320468E+00
        -11   -1    0    0    0    0  0.00000000000E+00  0.00000000000E+00  0.45593999997E+02  0.45594000000E+02  0.51100000000E-03 0.  1.
         11   -1    0    0    0    0 -0.00000000000E+00 -0.00000000000E+00 -0.45593999997E+02  0.45594000000E+02  0.51100000000E-03 0. -1.
    9900012    2    1    2    0    0 -0.30665500235E+02  0.27622848164E+02 -0.18047691114E+02  0.46142314303E+02  0.99999684678E+01 0.  0.
         12    1    1    2    0    0  0.30665500235E+02 -0.27622848164E+02  0.18047691114E+02  0.45045685697E+02  0.00000000000E+00 0. -1.
         11    1    3    3    0    0 -0.87452172961E+01  0.84161878994E+01 -0.81194806067E+00  0.12164304511E+02  0.51100000000E-03 0. -1.
        -11    1    3    3    0    0 -0.16903328975E+01  0.26316083300E+01 -0.17468783439E+01  0.35824812513E+01  0.51100000000E-03 0.  1.
         12    1    3    3    0    0 -0.20229950042E+02  0.16575051934E+02 -0.15488864709E+02  0.30395528541E+02  0.00000000000E+00 0. -1.
</event>
<event>
 7    1  0.2250716E-008  0.4614232E+02  0.7816164E-02  0.1320468E+00
        -11   -1    0    0    0    0  0.00000000000E+00  0.00000000000E+00  0.45593999997E+02  0.45594000000E+02  0.51100000000E-03 0.  1.
         11   -1    0    0    0    0 -0.00000000000E+00 -0.00000000000E+00 -0.45593999997E+02  0.45594000000E+02  0.51100000000E-03 0. -1.
    9900012    2    1    2    0    0  0.25458717302E+02  0.15880908803E+02  0.33597083577E+02  0.46142316789E+02  0.99999911375E+01 0.  0.
         12    1    1    2    0    0 -0.25458717302E+02 -0.15880908803E+02 -0.33597083577E+02  0.45045683211E+02  0.00000000000E+00 0. -1.
         11    1    3    3    0    0  0.25023149151E+01  0.36713171264E+01  0.85577065705E+01  0.96423281102E+01  0.51100000000E-03 0. -1.
        -11    1    3    3    0    0  0.17760132701E+02  0.11845019685E+02  0.20194738407E+02  0.29386293820E+02  0.51100000000E-03 0.  1.
         12    1    3    3    0    0  0.51962696864E+01  0.36457199100E+00  0.48446385988E+01  0.71136948587E+01  0.00000000000E+00 0. -1.
</event>
<event>
 7    1  0.2250716E-008  0.4614232E+02  0.7816164E-02  0.1320468E+00
        -11   -1    0    0    0    0  0.00000000000E+00  0.00000000000E+00  0.45593999997E+02  0.45594000000E+02  0.51100000000E-03 0.  1.
         11   -1    0    0    0    0 -0.00000000000E+00 -0.00000000000E+00 -0.45593999997E+02  0.45594000000E+02  0.51100000000E-03 0. -1.
    9900012    2    1    2    0    0 -0.29765540998E+02 -0.12942875066E+02  0.31234725085E+02  0.46142317665E+02  0.99999991237E+01 0.  0.
         12    1    1    2    0    0  0.29765540998E+02  0.12942875066E+02 -0.31234725085E+02  0.45045682335E+02  0.00000000000E+00 0. -1.
         11    1    3    3    0    0 -0.82510422873E+00 -0.13716103214E+01 -0.41997410294E+00  0.16548384725E+01  0.51100000000E-03 0. -1.
        -11    1    3    3    0    0 -0.12443044419E+02 -0.39278845922E+01  0.12292485141E+02  0.17926595410E+02  0.51100000000E-03 0.  1.
        -12    1    3    3    0    0 -0.16497392350E+02 -0.76433801522E+01  0.19362214047E+02  0.26560883783E+02  0.00000000000E+00 0.  1.
</event>
<event>
 7    1  0.2250716E-008  0.4614232E+02  0.7816164E-02  0.1320468E+00
        -11   -1    0    0    0    0  0.00000000000E+00  0.00000000000E+00  0.45593999997E+02  0.45594000000E+02  0.51100000000E-03 0.  1.
         11   -1    0    0    0    0 -0.00000000000E+00 -0.00000000000E+00 -0.45593999997E+02  0.45594000000E+02  0.51100000000E-03 0. -1.
    9900012    2    1    2    0    0 -0.30365552978E+02 -0.33271186879E+02 -0.27351027247E+00  0.46142317722E+02  0.99999996446E+01 0.  0.
         12    1    1    2    0    0  0.30365552978E+02  0.33271186879E+02  0.27351027247E+00  0.45045682278E+02  0.00000000000E+00 0. -1.
         11    1    3    3    0    0 -0.57951698655E+01 -0.25722280772E+01  0.19914847694E+01  0.66457778250E+01  0.51100000000E-03 0. -1.
        -11    1    3    3    0    0 -0.82668376867E+01 -0.82519846084E+01 -0.10345073719E+01  0.11726297842E+02  0.51100000000E-03 0.  1.
         12    1    3    3    0    0 -0.16303545426E+02 -0.22446974193E+02 -0.12304876700E+01  0.27770242055E+02  0.00000000000E+00 0. -1.
</event>
<event>
 7    1  0.2250716E-008  0.4614233E+02  0.7816164E-02  0.1320468E+00
        -11   -1    0    0    0    0  0.00000000000E+00  0.00000000000E+00  0.45593999997E+02  0.45594000000E+02  0.51100000000E-03 0.  1.
         11   -1    0    0    0    0 -0.00000000000E+00 -0.00000000000E+00 -0.45593999997E+02  0.45594000000E+02  0.51100000000E-03 0. -1.
    9900012    2    1    2    0    0 -0.10024204822E+02 -0.12766893779E+02  0.42019454104E+02  0.46142325599E+02  0.10000071470E+02 0.  0.
         12    1    1    2    0    0  0.10024204822E+02  0.12766893779E+02 -0.42019454104E+02  0.45045674401E+02  0.00000000000E+00 0. -1.
         11    1    3    3    0    0  0.28617492123E+00 -0.85517007948E+00  0.53999696637E-01  0.90339812858E+00  0.51100000000E-03 0. -1.
        -11    1    3    3    0    0 -0.38811791826E+01 -0.87622289651E+01  0.26972563774E+02  0.28624454669E+02  0.51100000000E-03 0.  1.
         12    1    3    3    0    0 -0.64292005602E+01 -0.31494947344E+01  0.14992890633E+02  0.16614472801E+02  0.00000000000E+00 0. -1.
</event>
<event>
 7    1  0.2250716E-008  0.4614231E+02  0.7816164E-02  0.1320468E+00
        -11   -1    0    0    0    0  0.00000000000E+00  0.00000000000E+00  0.45593999997E+02  0.45594000000E+02  0.51100000000E-03 0.  1.
         11   -1    0    0    0    0 -0.00000000000E+00 -0.00000000000E+00 -0.45593999997E+02  0.45594000000E+02  0.51100000000E-03 0. -1.
    9900012    2    1    2    0    0  0.27483111217E+02 -0.10797109553E+02  0.34017870977E+02  0.46142306281E+02  0.99998953101E+01 0.  0.
         12    1    1    2    0    0 -0.27483111217E+02  0.10797109553E+02 -0.34017870977E+02  0.45045693719E+02  0.00000000000E+00 0. -1.
         11    1    3    3    0    0  0.94463136162E+01 -0.18412258562E+01  0.12945653960E+02  0.16131116214E+02  0.51100000000E-03 0. -1.
        -11    1    3    3    0    0  0.10211334467E+02 -0.42107586684E+01  0.16300140128E+02  0.19690007837E+02  0.51100000000E-03 0.  1.
        -12    1    3    3    0    0  0.78254631333E+01 -0.47451250279E+01  0.47720768891E+01  0.10321182230E+02  0.00000000000E+00 0.  1.
</event>
<event>
 7    1  0.2250716E-008  0.4614232E+02  0.7816164E-02  0.1320468E+00
        -11   -1    0    0    0    0  0.00000000000E+00  0.00000000000E+00  0.45593999997E+02  0.45594000000E+02  0.51100000000E-03 0.  1.
         11   -1    0    0    0    0 -0.00000000000E+00 -0.00000000000E+00 -0.45593999997E+02  0.45594000000E+02  0.51100000000E-03 0. -1.
    9900012    2    1    2    0    0  0.38138133405E+01  0.36435091912E+02  0.26211686235E+02  0.46142316632E+02  0.99999897025E+01 0.  0.
         12    1    1    2    0    0 -0.38138133405E+01 -0.36435091912E+02 -0.26211686235E+02  0.45045683368E+02  0.00000000000E+00 0. -1.
         11    1    3    3    0    0  0.18028372073E+01  0.15545486734E+02  0.94175569876E+01  0.18264795638E+02  0.51100000000E-03 0. -1.
        -11    1    3    3    0    0  0.27748958840E+01  0.20964305627E+02  0.15002242600E+02  0.25928159227E+02  0.51100000000E-03 0.  1.
         12    1    3    3    0    0 -0.76391975081E+00 -0.74700449843E-01  0.17918866477E+01  0.19493617676E+01  0.00000000000E+00 0. -1.
</event>
<event>
 7    1  0.2250716E-008  0.4614232E+02  0.7816164E-02  0.1320468E+00
        -11   -1    0    0    0    0  0.00000000000E+00  0.00000000000E+00  0.45593999997E+02  0.45594000000E+02  0.51100000000E-03 0. -1.
         11   -1    0    0    0    0 -0.00000000000E+00 -0.00000000000E+00 -0.45593999997E+02  0.45594000000E+02  0.51100000000E-03 0.  1.
    9900012    2    1    2    0    0 -0.27869856513E+02 -0.31963579551E+02 -0.15189277291E+02  0.46142318027E+02  0.10000002427E+02 0.  0.
         12    1    1    2    0    0  0.27869856513E+02  0.31963579551E+02  0.15189277291E+02  0.45045681973E+02  0.00000000000E+00 0. -1.
         11    1    3    3    0    0 -0.11355408174E+02 -0.93363601416E+01 -0.10115318504E+01  0.14735539096E+02  0.51100000000E-03 0. -1.
        -11    1    3    3    0    0 -0.15840635058E+01 -0.25418174110E+01 -0.16534267420E+01  0.34210982438E+01  0.51100000000E-03 0.  1.
         12    1    3    3    0    0 -0.14930384833E+02 -0.20085401998E+02 -0.12524318699E+02  0.27985680688E+02  0.00000000000E+00 0. -1.
</event>
<event>
 7    1  0.2250716E-008  0.4614231E+02  0.7816164E-02  0.1320468E+00
        -11   -1    0    0    0    0  0.00000000000E+00  0.00000000000E+00  0.45593999997E+02  0.45594000000E+02  0.51100000000E-03 0. -1.
         11   -1    0    0    0    0 -0.00000000000E+00 -0.00000000000E+00 -0.45593999997E+02  0.45594000000E+02  0.51100000000E-03 0.  1.
    9900012    2    1    2    0    0 -0.26298891619E+02  0.33964933116E+02 -0.13559698024E+02  0.46142314386E+02  0.99999692193E+01 0.  0.
         12    1    1    2    0    0  0.26298891619E+02 -0.33964933116E+02  0.13559698024E+02  0.45045685614E+02  0.00000000000E+00 0. -1.
         11    1    3    3    0    0 -0.30251369286E+01  0.88763817172E+01 -0.31955939117E+01  0.99072411162E+01  0.51100000000E-03 0.  1.
        -11    1    3    3    0    0 -0.40204316769E+01  0.80653171238E+01 -0.23185529328E+01  0.93053156389E+01  0.51100000000E-03 0. -1.
         12    1    3    3    0    0 -0.19253323014E+02  0.17023234275E+02 -0.80455511800E+01  0.26929757630E+02  0.00000000000E+00 0. -1.
</event>
<event>
 7    1  0.2250716E-008  0.4614232E+02  0.7816164E-02  0.1320468E+00
        -11   -1    0    0    0    0  0.00000000000E+00  0.00000000000E+00  0.45593999997E+02  0.45594000000E+02  0.51100000000E-03 0. -1.
         11   -1    0    0    0    0 -0.00000000000E+00 -0.00000000000E+00 -0.45593999997E+02  0.45594000000E+02  0.51100000000E-03 0.  1.
    9900012    2    1    2    0    0  0.36036683501E+02 -0.24643279450E+02 -0.11098635664E+02  0.46142317705E+02  0.99999994882E+01 0.  0.
         12    1    1    2    0    0 -0.36036683501E+02  0.24643279450E+02  0.11098635664E+02  0.45045682295E+02  0.00000000000E+00 0. -1.
         11    1    3    3    0    0  0.59605847738E+01 -0.75614123297E+01 -0.19324665367E+01  0.98202828087E+01  0.51100000000E-03 0. -1.
        -11    1    3    3    0    0  0.66894413402E+01 -0.48641411733E+01 -0.48427825421E+01  0.95844164042E+01  0.51100000000E-03 0.  1.
        -12    1    3    3    0    0  0.23386657387E+02 -0.12217725947E+02 -0.43233865848E+01  0.26737618492E+02  0.00000000000E+00 0.  1.
</event>
<event>
 7    1  0.2250716E-008  0.4614232E+02  0.7816164E-02  0.1320468E+00
        -11   -1    0    0    0    0  0.00000000000E+00  0.00000000000E+00  0.45593999997E+02  0.45594000000E+02  0.51100000000E-03 0.  1.
         11   -1    0    0    0    0 -0.00000000000E+00 -0.00000000000E+00 -0.45593999997E+02  0.45594000000E+02  0.51100000000E-03 0. -1.
    9900012    2    1    2    0    0 -0.37717600749E+02  0.81353828254E+01  0.23244602132E+02  0.46142318872E+02  0.10000010131E+02 0.  0.
         12    1    1    2    0    0  0.37717600749E+02 -0.81353828254E+01 -0.23244602132E+02  0.45045681128E+02  0.00000000000E+00 0. -1.
         11    1    3    3    0    0 -0.12296067668E+02  0.43927840324E+01  0.11027662856E+02  0.17090909279E+02  0.51100000000E-03 0.  1.
        -11    1    3    3    0    0 -0.18833559089E+01  0.12957312034E+01  0.27170160555E+01  0.35507922128E+01  0.51100000000E-03 0. -1.
         12    1    3    3    0    0 -0.23538177172E+02  0.24468675895E+01  0.94999232209E+01  0.25500617380E+02  0.00000000000E+00 0. -1.
</event>
<event>
 7    1  0.2250716E-008  0.4614232E+02  0.7816164E-02  0.1320468E+00
        -11   -1    0    0    0    0  0.00000000000E+00  0.00000000000E+00  0.45593999997E+02  0.45594000000E+02  0.51100000000E-03 0. -1.
         11   -1    0    0    0    0 -0.00000000000E+00 -0.00000000000E+00 -0.45593999997E+02  0.45594000000E+02  0.51100000000E-03 0.  1.
    9900012    2    1    2    0    0 -0.72160059188E+01 -0.44417005768E+02 -0.20426338836E+01  0.46142317677E+02  0.99999992300E+01 0.  0.
         12    1    1    2    0    0  0.72160059188E+01  0.44417005768E+02  0.20426338836E+01  0.45045682323E+02  0.00000000000E+00 0. -1.
         11    1    3    3    0    0  0.13660413777E+01 -0.20781839021E+02 -0.94297970671E+00  0.20848024202E+02  0.51100000000E-03 0.  1.
        -11    1    3    3    0    0 -0.77286496434E+00 -0.28597734459E+01 -0.90963130115E+00  0.30988794395E+01  0.51100000000E-03 0. -1.
        -12    1    3    3    0    0 -0.78091823321E+01 -0.20775393301E+02 -0.19002287570E+00  0.22195414035E+02  0.00000000000E+00 0.  1.
</event>
<event>
 7    1  0.2250716E-008  0.4614232E+02  0.7816164E-02  0.1320468E+00
        -11   -1    0    0    0    0  0.00000000000E+00  0.00000000000E+00  0.45593999997E+02  0.45594000000E+02  0.51100000000E-03 0.  1.
         11   -1    0    0    0    0 -0.00000000000E+00 -0.00000000000E+00 -0.45593999997E+02  0.45594000000E+02  0.51100000000E-03 0. -1.
    9900012    2    1    2    0    0  0.43542038686E+02 -0.78395732747E+01  0.84702657260E+01  0.46142318259E+02  0.10000004541E+02 0.  0.
         12    1    1    2    0    0 -0.43542038686E+02  0.78395732747E+01 -0.84702657260E+01  0.45045681741E+02  0.00000000000E+00 0. -1.
         11    1    3    3    0    0  0.16109284211E+02 -0.25890009165E+01  0.68992038713E+01  0.17714710775E+02  0.51100000000E-03 0. -1.
        -11    1    3    3    0    0  0.25246435680E+02 -0.44673285129E+01  0.28156053665E+01  0.25792773647E+02  0.51100000000E-03 0.  1.
         12    1    3    3    0    0  0.21863187949E+01 -0.78324384534E+00 -0.12445435117E+01  0.26348338367E+01  0.00000000000E+00 0. -1.
</event>
<event>
 7    1  0.2250716E-008  0.4614231E+02  0.7816164E-02  0.1320468E+00
        -11   -1    0    0    0    0  0.00000000000E+00  0.00000000000E+00  0.45593999997E+02  0.45594000000E+02  0.51100000000E-03 0.  1.
         11   -1    0    0    0    0 -0.00000000000E+00 -0.00000000000E+00 -0.45593999997E+02  0.45594000000E+02  0.51100000000E-03 0. -1.
    9900012    2    1    2    0    0 -0.36370594704E+02 -0.22840282913E+00  0.26575206353E+02  0.46142312974E+02  0.99999563440E+01 0.  0.
         12    1    1    2    0    0  0.36370594704E+02  0.22840282913E+00 -0.26575206353E+02  0.45045687026E+02  0.00000000000E+00 0. -1.
         11    1    3    3    0    0 -0.11996979902E+02 -0.37558951979E+01  0.11726434285E+02  0.17191379724E+02  0.51100000000E-03 0. -1.
        -11    1    3    3    0    0 -0.64218867695E+01  0.15774404074E+01  0.55865269713E+01  0.86566871135E+01  0.51100000000E-03 0.  1.
         12    1    3    3    0    0 -0.17951728033E+02  0.19500519614E+01  0.92622450961E+01  0.20294246136E+02  0.00000000000E+00 0. -1.
</event>
<event>
 7    1  0.2250716E-008  0.4614232E+02  0.7816164E-02  0.1320468E+00
        -11   -1    0    0    0    0  0.00000000000E+00  0.00000000000E+00  0.45593999997E+02  0.45594000000E+02  0.51100000000E-03 0. -1.
         11   -1    0    0    0    0 -0.00000000000E+00 -0.00000000000E+00 -0.45593999997E+02  0.45594000000E+02  0.51100000000E-03 0.  1.
    9900012    2    1    2    0    0  0.41810013022E+01 -0.44268248871E+02  0.72079798571E+01  0.46142316482E+02  0.99999883349E+01 0.  0.
         12    1    1    2    0    0 -0.41810013022E+01  0.44268248871E+02 -0.72079798571E+01  0.45045683518E+02  0.00000000000E+00 0. -1.
         11    1    3    3    0    0 -0.11543036765E+00 -0.57533122574E+01  0.21036816288E+01  0.61269407339E+01  0.51100000000E-03 0. -1.
        -11    1    3    3    0    0  0.21124646929E+00 -0.48309964975E+01  0.36409550368E+01  0.60530741008E+01  0.51100000000E-03 0.  1.
        -12    1    3    3    0    0  0.40851852006E+01 -0.33683940116E+02  0.14633431915E+01  0.33962301647E+02  0.00000000000E+00 0.  1.
</event>
<event>
 7    1  0.2250716E-008  0.4614232E+02  0.7816164E-02  0.1320468E+00
        -11   -1    0    0    0    0  0.00000000000E+00  0.00000000000E+00  0.45593999997E+02  0.45594000000E+02  0.51100000000E-03 0.  1.
         11   -1    0    0    0    0 -0.00000000000E+00 -0.00000000000E+00 -0.45593999997E+02  0.45594000000E+02  0.51100000000E-03 0. -1.
    9900012    2    1    2    0    0 -0.16550642285E+02 -0.82409833640E-01  0.41894903737E+02  0.46142317515E+02  0.99999977584E+01 0.  0.
         12    1    1    2    0    0  0.16550642285E+02  0.82409833640E-01 -0.41894903737E+02  0.45045682485E+02  0.00000000000E+00 0. -1.
         11    1    3    3    0    0 -0.14669206956E+00 -0.55079881409E+00  0.14490126253E+00  0.58812799107E+00  0.51100000000E-03 0.  1.
        -11    1    3    3    0    0 -0.10462851302E+02 -0.35072967128E+01  0.23833537474E+02  0.26264232263E+02  0.51100000000E-03 0. -1.
        -12    1    3    3    0    0 -0.59410989132E+01  0.39756856932E+01  0.17916465000E+02  0.19289957261E+02  0.00000000000E+00 0.  1.
</event>
<event>
 7    1  0.2250716E-008  0.4614232E+02  0.7816164E-02  0.1320468E+00
        -11   -1    0    0    0    0  0.00000000000E+00  0.00000000000E+00  0.45593999997E+02  0.45594000000E+02  0.51100000000E-03 0.  1.
         11   -1    0    0    0    0 -0.00000000000E+00 -0.00000000000E+00 -0.45593999997E+02  0.45594000000E+02  0.51100000000E-03 0. -1.
    9900012    2    1    2    0    0  0.40146522688E+02 -0.19554601120E+02 -0.59150552691E+01  0.46142316658E+02  0.99999899419E+01 0.  0.
         12    1    1    2    0    0 -0.40146522688E+02  0.19554601120E+02  0.59150552691E+01  0.45045683342E+02  0.00000000000E+00 0. -1.
         11    1    3    3    0    0  0.21253462916E+02 -0.68845894230E+01 -0.67769769918E+01  0.23345977702E+02  0.51100000000E-03 0. -1.
        -11    1    3    3    0    0  0.38034981705E+01 -0.31231737159E+01  0.32714486399E+00  0.49323256600E+01  0.51100000000E-03 0.  1.
         12    1    3    3    0    0  0.15089561601E+02 -0.95468379809E+01  0.53477685870E+00  0.17864013296E+02  0.00000000000E+00 0. -1.
</event>
<event>
 7    1  0.2250716E-008  0.4614232E+02  0.7816164E-02  0.1320468E+00
        -11   -1    0    0    0    0  0.00000000000E+00  0.00000000000E+00  0.45593999997E+02  0.45594000000E+02  0.51100000000E-03 0. -1.
         11   -1    0    0    0    0 -0.00000000000E+00 -0.00000000000E+00 -0.45593999997E+02  0.45594000000E+02  0.51100000000E-03 0.  1.
    9900012    2    1    2    0    0  0.32040834266E+02 -0.25129403562E+02 -0.19261657995E+02  0.46142318159E+02  0.10000003624E+02 0.  0.
         12    1    1    2    0    0 -0.32040834266E+02  0.25129403562E+02  0.19261657995E+02  0.45045681841E+02  0.00000000000E+00 0. -1.
         11    1    3    3    0    0  0.40774794015E+01 -0.78803981661E+01 -0.46384268319E+01  0.10012068581E+02  0.51100000000E-03 0. -1.
        -11    1    3    3    0    0  0.89432349642E+01 -0.62011384112E+01 -0.65362955297E+01  0.12694830788E+02  0.51100000000E-03 0.  1.
        -12    1    3    3    0    0  0.19020119900E+02 -0.11047866985E+02 -0.80869356332E+01  0.23435418790E+02  0.00000000000E+00 0.  1.
</event>
<event>
 7    1  0.2250716E-008  0.4614232E+02  0.7816164E-02  0.1320468E+00
        -11   -1    0    0    0    0  0.00000000000E+00  0.00000000000E+00  0.45593999997E+02  0.45594000000E+02  0.51100000000E-03 0.  1.
         11   -1    0    0    0    0 -0.00000000000E+00 -0.00000000000E+00 -0.45593999997E+02  0.45594000000E+02  0.51100000000E-03 0. -1.
    9900012    2    1    2    0    0 -0.22506765797E+02 -0.36939632743E+02  0.12570705700E+02  0.46142316348E+02  0.99999871156E+01 0.  0.
         12    1    1    2    0    0  0.22506765797E+02  0.36939632743E+02 -0.12570705700E+02  0.45045683652E+02  0.00000000000E+00 0. -1.
         11    1    3    3    0    0 -0.18742562299E+01 -0.14482558271E+01 -0.63356818273E+00  0.24518748458E+01  0.51100000000E-03 0. -1.
        -11    1    3    3    0    0  0.73487825476E-01  0.29254540549E+00  0.14046567700E+00  0.33273734732E+00  0.51100000000E-03 0.  1.
        -12    1    3    3    0    0 -0.20705997393E+02 -0.35783922322E+02  0.13063808206E+02  0.43357704155E+02  0.00000000000E+00 0.  1.
</event>
<event>
 7    1  0.2250716E-008  0.4614232E+02  0.7816164E-02  0.1320468E+00
        -11   -1    0    0    0    0  0.00000000000E+00  0.00000000000E+00  0.45593999997E+02  0.45594000000E+02  0.51100000000E-03 0.  1.
         11   -1    0    0    0    0 -0.00000000000E+00 -0.00000000000E+00 -0.45593999997E+02  0.45594000000E+02  0.51100000000E-03 0. -1.
    9900012    2    1    2    0    0  0.45237365625E+00 -0.23338459828E+02  0.38525642596E+02  0.46142317782E+02  0.10000000186E+02 0.  0.
         12    1    1    2    0    0 -0.45237365625E+00  0.23338459828E+02 -0.38525642596E+02  0.45045682218E+02  0.00000000000E+00 0. -1.
         11    1    3    3    0    0 -0.14339452390E+01 -0.32323730434E+01  0.20746500437E+01  0.40998301800E+01  0.51100000000E-03 0. -1.
        -11    1    3    3    0    0 -0.10432726846E+01 -0.14549248137E+02  0.23722204090E+02  0.27848016203E+02  0.51100000000E-03 0.  1.
        -12    1    3    3    0    0  0.29295915798E+01 -0.55568386473E+01  0.12728788462E+02  0.14194471399E+02  0.00000000000E+00 0.  1.
</event>
<event>
 7    1  0.2250716E-008  0.4614232E+02  0.7816164E-02  0.1320468E+00
        -11   -1    0    0    0    0  0.00000000000E+00  0.00000000000E+00  0.45593999997E+02  0.45594000000E+02  0.51100000000E-03 0.  1.
         11   -1    0    0    0    0 -0.00000000000E+00 -0.00000000000E+00 -0.45593999997E+02  0.45594000000E+02  0.51100000000E-03 0. -1.
    9900012    2    1    2    0    0 -0.45852756634E+01 -0.31106570383E+02  0.32256317283E+02  0.46142317870E+02  0.10000000990E+02 0.  0.
         12    1    1    2    0    0  0.45852756634E+01  0.31106570383E+02 -0.32256317283E+02  0.45045682130E+02  0.00000000000E+00 0. -1.
         11    1    3    3    0    0  0.12989938270E+01 -0.10958545677E+02  0.86426493446E+01  0.14016864709E+02  0.51100000000E-03 0.  1.
        -11    1    3    3    0    0 -0.41157002169E+01 -0.76912526028E+01  0.13050466879E+02  0.15697421473E+02  0.51100000000E-03 0. -1.
         12    1    3    3    0    0 -0.17685692735E+01 -0.12456772103E+02  0.10563201060E+02  0.16428031688E+02  0.00000000000E+00 0. -1.
</event>
<event>
 7    1  0.2250716E-008  0.4614232E+02  0.7816164E-02  0.1320468E+00
        -11   -1    0    0    0    0  0.00000000000E+00  0.00000000000E+00  0.45593999997E+02  0.45594000000E+02  0.51100000000E-03 0. -1.
         11   -1    0    0    0    0 -0.00000000000E+00 -0.00000000000E+00 -0.45593999997E+02  0.45594000000E+02  0.51100000000E-03 0.  1.
    9900012    2    1    2    0    0 -0.31022352438E+02  0.30160003616E+02 -0.12534008517E+02  0.46142317206E+02  0.99999949344E+01 0.  0.
         12    1    1    2    0    0  0.31022352438E+02 -0.30160003616E+02  0.12534008517E+02  0.45045682794E+02  0.00000000000E+00 0. -1.
         11    1    3    3    0    0 -0.18953574984E+02  0.13754699804E+02 -0.32032222017E+01  0.23636632672E+02  0.51100000000E-03 0. -1.
        -11    1    3    3    0    0 -0.32306080740E+01  0.29347373323E+01 -0.17956740240E+01  0.47195293408E+01  0.51100000000E-03 0.  1.
        -12    1    3    3    0    0 -0.88381693807E+01  0.13470566480E+02 -0.75351122911E+01  0.17786155193E+02  0.00000000000E+00 0.  1.
</event>
<event>
 7    1  0.2250716E-008  0.4614232E+02  0.7816164E-02  0.1320468E+00
        -11   -1    0    0    0    0  0.00000000000E+00  0.00000000000E+00  0.45593999997E+02  0.45594000000E+02  0.51100000000E-03 0.  1.
         11   -1    0    0    0    0 -0.00000000000E+00 -0.00000000000E+00 -0.45593999997E+02  0.45594000000E+02  0.51100000000E-03 0. -1.
    9900012    2    1    2    0    0  0.42524053490E+02  0.78278827037E+01 -0.12631019798E+02  0.46142317255E+02  0.99999953823E+01 0.  0.
         12    1    1    2    0    0 -0.42524053490E+02 -0.78278827037E+01  0.12631019798E+02  0.45045682745E+02  0.00000000000E+00 0. -1.
         11    1    3    3    0    0  0.33182344625E+00 -0.12387920286E+00  0.56605725982E+00  0.66773792681E+00  0.51100000000E-03 0. -1.
        -11    1    3    3    0    0  0.70202864918E+01  0.25926800968E+01 -0.48901445685E+01  0.89397945543E+01  0.51100000000E-03 0.  1.
        -12    1    3    3    0    0  0.35171943552E+02  0.53590818097E+01 -0.83069324894E+01  0.36534784774E+02  0.00000000000E+00 0.  1.
</event>
<event>
 7    1  0.2250716E-008  0.4614232E+02  0.7816164E-02  0.1320468E+00
        -11   -1    0    0    0    0  0.00000000000E+00  0.00000000000E+00  0.45593999997E+02  0.45594000000E+02  0.51100000000E-03 0. -1.
         11   -1    0    0    0    0 -0.00000000000E+00 -0.00000000000E+00 -0.45593999997E+02  0.45594000000E+02  0.51100000000E-03 0.  1.
    9900012    2    1    2    0    0  0.70856991069E+01 -0.29951448312E+02 -0.32890979036E+02  0.46142324406E+02  0.10000060589E+02 0.  0.
         12    1    1    2    0    0 -0.70856991069E+01  0.29951448312E+02  0.32890979036E+02  0.45045675594E+02  0.00000000000E+00 0. -1.
         11    1    3    3    0    0  0.77694580840E+00 -0.11306831102E+02 -0.12275243749E+02  0.16707174618E+02  0.51100000000E-03 0. -1.
        -11    1    3    3    0    0  0.41978880237E+01 -0.12371754126E+02 -0.18169899093E+02  0.22379182231E+02  0.51100000000E-03 0.  1.
         12    1    3    3    0    0  0.21108652747E+01 -0.62728630833E+01 -0.24458361948E+01  0.70559675567E+01  0.00000000000E+00 0. -1.
</event>
<event>
 7    1  0.2250716E-008  0.4614232E+02  0.7816164E-02  0.1320468E+00
        -11   -1    0    0    0    0  0.00000000000E+00  0.00000000000E+00  0.45593999997E+02  0.45594000000E+02  0.51100000000E-03 0. -1.
         11   -1    0    0    0    0 -0.00000000000E+00 -0.00000000000E+00 -0.45593999997E+02  0.45594000000E+02  0.51100000000E-03 0.  1.
    9900012    2    1    2    0    0  0.25967469658E+02 -0.36301073929E+02  0.60857240246E+01  0.46142317790E+02  0.10000000265E+02 0.  0.
         12    1    1    2    0    0 -0.25967469658E+02  0.36301073929E+02 -0.60857240246E+01  0.45045682210E+02  0.00000000000E+00 0. -1.
         11    1    3    3    0    0  0.95864555718E+01 -0.73130338515E+01 -0.25306276886E+00  0.12060042934E+02  0.51100000000E-03 0. -1.
        -11    1    3    3    0    0  0.75882815964E+01 -0.16842427158E+02  0.29065582809E+01  0.18700199236E+02  0.51100000000E-03 0.  1.
        -12    1    3    3    0    0  0.87927324896E+01 -0.12145612920E+02  0.34322285125E+01  0.15382075620E+02  0.00000000000E+00 0.  1.
</event>
<event>
 7    1  0.2250716E-008  0.4614232E+02  0.7816164E-02  0.1320468E+00
        -11   -1    0    0    0    0  0.00000000000E+00  0.00000000000E+00  0.45593999997E+02  0.45594000000E+02  0.51100000000E-03 0.  1.
         11   -1    0    0    0    0 -0.00000000000E+00 -0.00000000000E+00 -0.45593999997E+02  0.45594000000E+02  0.51100000000E-03 0. -1.
    9900012    2    1    2    0    0 -0.30565858156E+02 -0.13871642535E+02  0.30040299337E+02  0.46142315016E+02  0.99999749646E+01 0.  0.
         12    1    1    2    0    0  0.30565858156E+02  0.13871642535E+02 -0.30040299337E+02  0.45045684984E+02  0.00000000000E+00 0. -1.
         11    1    3    3    0    0 -0.37332055340E+01 -0.19626363868E+01  0.64795860655E+01  0.77313518214E+01  0.51100000000E-03 0. -1.
        -11    1    3    3    0    0 -0.89910433397E+01 -0.57620847030E+01  0.12865376450E+02  0.16719999758E+02  0.51100000000E-03 0.  1.
         12    1    3    3    0    0 -0.17841609283E+02 -0.61469214454E+01  0.10695336822E+02  0.21690963436E+02  0.00000000000E+00 0. -1.
</event>
<event>
 7    1  0.2250716E-008  0.4614232E+02  0.7816164E-02  0.1320468E+00
        -11   -1    0    0    0    0  0.00000000000E+00  0.00000000000E+00  0.45593999997E+02  0.45594000000E+02  0.51100000000E-03 0.  1.
         11   -1    0    0    0    0 -0.00000000000E+00 -0.00000000000E+00 -0.45593999997E+02  0.45594000000E+02  0.51100000000E-03 0. -1.
    9900012    2    1    2    0    0 -0.12221590816E+02 -0.24789711607E+02  0.35569880138E+02  0.46142318113E+02  0.10000003209E+02 0.  0.
         12    1    1    2    0    0  0.12221590816E+02  0.24789711607E+02 -0.35569880138E+02  0.45045681887E+02  0.00000000000E+00 0. -1.
         11    1    3    3    0    0 -0.53229229129E+01 -0.35795370260E+01  0.69531220025E+01  0.94600475421E+01  0.51100000000E-03 0. -1.
        -11    1    3    3    0    0 -0.43490596948E+01 -0.69425779566E+01  0.77604423199E+01  0.11284421747E+02  0.51100000000E-03 0.  1.
         12    1    3    3    0    0 -0.25496082082E+01 -0.14267596624E+02  0.20856315816E+02  0.25397848823E+02  0.00000000000E+00 0. -1.
</event>
<event>
 7    1  0.2250716E-008  0.4614232E+02  0.7816164E-02  0.1320468E+00
        -11   -1    0    0    0    0  0.00000000000E+00  0.00000000000E+00  0.45593999997E+02  0.45594000000E+02  0.51100000000E-03 0.  1.
         11   -1    0    0    0    0 -0.00000000000E+00 -0.00000000000E+00 -0.45593999997E+02  0.45594000000E+02  0.51100000000E-03 0. -1.
    9900012    2    1    2    0    0  0.28001012533E+02  0.13889004040E+02  0.32436897930E+02  0.46142317816E+02  0.10000000502E+02 0.  0.
         12    1    1    2    0    0 -0.28001012533E+02 -0.13889004040E+02 -0.32436897930E+02  0.45045682184E+02  0.00000000000E+00 0. -1.
         11    1    3    3    0    0  0.18861784206E+02  0.72190349098E+01  0.19340640418E+02  0.27963221211E+02  0.51100000000E-03 0. -1.
        -11    1    3    3    0    0  0.31623368564E+01  0.14636493090E+01  0.84232049714E+00  0.35849892293E+01  0.51100000000E-03 0.  1.
         12    1    3    3    0    0  0.59768914705E+01  0.52063198209E+01  0.12253937016E+02  0.14594107376E+02  0.00000000000E+00 0. -1.
</event>
<event>
 7    1  0.2250716E-008  0.4614232E+02  0.7816164E-02  0.1320468E+00
        -11   -1    0    0    0    0  0.00000000000E+00  0.00000000000E+00  0.45593999997E+02  0.45594000000E+02  0.51100000000E-03 0. -1.
         11   -1    0    0    0    0 -0.00000000000E+00 -0.00000000000E+00 -0.45593999997E+02  0.45594000000E+02  0.51100000000E-03 0.  1.
    9900012    2    1    2    0    0 -0.96275412379E+01  0.35402969177E+02 -0.26135297036E+02  0.46142317321E+02  0.99999959881E+01 0.  0.
         12    1    1    2    0    0  0.96275412379E+01 -0.35402969177E+02  0.26135297036E+02  0.45045682679E+02  0.00000000000E+00 0. -1.
         11    1    3    3    0    0 -0.26017370058E+01  0.31759283649E+01 -0.15520690554E+01  0.43891314676E+01  0.51100000000E-03 0. -1.
        -11    1    3    3    0    0 -0.13404931903E+01  0.17766340522E+01 -0.39499312976E+01  0.45337962091E+01  0.51100000000E-03 0.  1.
        -12    1    3    3    0    0 -0.56853110419E+01  0.30450406760E+02 -0.20633296683E+02  0.37219389644E+02  0.00000000000E+00 0.  1.
</event>
<event>
 7    1  0.2250716E-008  0.4614232E+02  0.7816164E-02  0.1320468E+00
        -11   -1    0    0    0    0  0.00000000000E+00  0.00000000000E+00  0.45593999997E+02  0.45594000000E+02  0.51100000000E-03 0. -1.
         11   -1    0    0    0    0 -0.00000000000E+00 -0.00000000000E+00 -0.45593999997E+02  0.45594000000E+02  0.51100000000E-03 0.  1.
    9900012    2    1    2    0    0 -0.15310840374E+02  0.35332072884E+02 -0.23373837811E+02  0.46142317618E+02  0.99999986959E+01 0.  0.
         12    1    1    2    0    0  0.15310840374E+02 -0.35332072884E+02  0.23373837811E+02  0.45045682382E+02  0.00000000000E+00 0. -1.
         11    1    3    3    0    0 -0.59501038505E+01  0.20890267556E+02 -0.84144728267E+01  0.23293998532E+02  0.51100000000E-03 0. -1.
        -11    1    3    3    0    0 -0.45563233024E+01  0.72538825519E+01 -0.65064934805E+01  0.10757014074E+02  0.51100000000E-03 0.  1.
         12    1    3    3    0    0 -0.48044132212E+01  0.71879227753E+01 -0.84528715041E+01  0.12091305012E+02  0.00000000000E+00 0. -1.
</event>
<event>
 7    1  0.2250716E-008  0.4614232E+02  0.7816164E-02  0.1320468E+00
        -11   -1    0    0    0    0  0.00000000000E+00  0.00000000000E+00  0.45593999997E+02  0.45594000000E+02  0.51100000000E-03 0.  1.
         11   -1    0    0    0    0 -0.00000000000E+00 -0.00000000000E+00 -0.45593999997E+02  0.45594000000E+02  0.51100000000E-03 0. -1.
    9900012    2    1    2    0    0  0.88806367343E+01 -0.40092973183E+02  0.18514894951E+02  0.46142317160E+02  0.99999945191E+01 0.  0.
         12    1    1    2    0    0 -0.88806367343E+01  0.40092973183E+02 -0.18514894951E+02  0.45045682840E+02  0.00000000000E+00 0. -1.
         11    1    3    3    0    0  0.26633632458E+00 -0.95944571087E+00  0.21240206570E+01  0.23458335666E+01  0.51100000000E-03 0. -1.
        -11    1    3    3    0    0 -0.32086689302E+00 -0.37688448083E+01 -0.58630569878E-01  0.37829333271E+01  0.51100000000E-03 0.  1.
        -12    1    3    3    0    0  0.89351673027E+01 -0.35364682664E+02  0.16449504864E+02  0.40013550266E+02  0.00000000000E+00 0.  1.
</event>
<event>
 7    1  0.2250716E-008  0.4614232E+02  0.7816164E-02  0.1320468E+00
        -11   -1    0    0    0    0  0.00000000000E+00  0.00000000000E+00  0.45593999997E+02  0.45594000000E+02  0.51100000000E-03 0.  1.
         11   -1    0    0    0    0 -0.00000000000E+00 -0.00000000000E+00 -0.45593999997E+02  0.45594000000E+02  0.51100000000E-03 0. -1.
    9900012    2    1    2    0    0  0.57964631283E-01  0.38694217577E+02  0.23062255587E+02  0.46142318003E+02  0.10000002208E+02 0.  0.
         12    1    1    2    0    0 -0.57964631283E-01 -0.38694217577E+02 -0.23062255587E+02  0.45045681997E+02  0.00000000000E+00 0. -1.
         11    1    3    3    0    0  0.90508397583E+00  0.13184353735E+01  0.33743935281E+01  0.37341640003E+01  0.51100000000E-03 0. -1.
        -11    1    3    3    0    0 -0.41106241969E+00  0.21196565190E+02  0.13181273283E+02  0.24964160586E+02  0.51100000000E-03 0.  1.
         12    1    3    3    0    0 -0.43605692486E+00  0.16179217014E+02  0.65065887752E+01  0.17443993417E+02  0.00000000000E+00 0. -1.
</event>
<event>
 7    1  0.2250716E-008  0.4614232E+02  0.7816164E-02  0.1320468E+00
        -11   -1    0    0    0    0  0.00000000000E+00  0.00000000000E+00  0.45593999997E+02  0.45594000000E+02  0.51100000000E-03 0. -1.
         11   -1    0    0    0    0 -0.00000000000E+00 -0.00000000000E+00 -0.45593999997E+02  0.45594000000E+02  0.51100000000E-03 0.  1.
    9900012    2    1    2    0    0 -0.44418554217E+00  0.38042322606E+02 -0.24118413739E+02  0.46142317728E+02  0.99999997006E+01 0.  0.
         12    1    1    2    0    0  0.44418554217E+00 -0.38042322606E+02  0.24118413739E+02  0.45045682272E+02  0.00000000000E+00 0. -1.
         11    1    3    3    0    0 -0.33931502031E+01  0.83381672358E+01 -0.47112588998E+01  0.10160436105E+02  0.51100000000E-03 0. -1.
        -11    1    3    3    0    0 -0.38069593577E+00  0.59032767512E+01 -0.61582313941E+01  0.85391697467E+01  0.51100000000E-03 0.  1.
         12    1    3    3    0    0  0.33296605967E+01  0.23800878619E+02 -0.13248923445E+02  0.27442711877E+02  0.00000000000E+00 0. -1.
</event>
<event>
 7    1  0.2250716E-008  0.4614232E+02  0.7816164E-02  0.1320468E+00
        -11   -1    0    0    0    0  0.00000000000E+00  0.00000000000E+00  0.45593999997E+02  0.45594000000E+02  0.51100000000E-03 0.  1.
         11   -1    0    0    0    0 -0.00000000000E+00 -0.00000000000E+00 -0.45593999997E+02  0.45594000000E+02  0.51100000000E-03 0. -1.
    9900012    2    1    2    0    0 -0.92129186612E+01  0.14605535258E+02  0.41604254349E+02  0.46142317517E+02  0.99999977762E+01 0.  0.
         12    1    1    2    0    0  0.92129186612E+01 -0.14605535258E+02 -0.41604254349E+02  0.45045682483E+02  0.00000000000E+00 0. -1.
         11    1    3    3    0    0  0.35803018794E+00  0.10642538067E+01  0.23281921312E+01  0.25848212010E+01  0.51100000000E-03 0. -1.
        -11    1    3    3    0    0 -0.63903633644E+01  0.13294543210E+02  0.25896363213E+02  0.29802738986E+02  0.51100000000E-03 0.  1.
         12    1    3    3    0    0 -0.31805854847E+01  0.24673824093E+00  0.13379699004E+02  0.13754757331E+02  0.00000000000E+00 0. -1.
</event>
<event>
 7    1  0.2250716E-008  0.4614232E+02  0.7816164E-02  0.1320468E+00
        -11   -1    0    0    0    0  0.00000000000E+00  0.00000000000E+00  0.45593999997E+02  0.45594000000E+02  0.51100000000E-03 0. -1.
         11   -1    0    0    0    0 -0.00000000000E+00 -0.00000000000E+00 -0.45593999997E+02  0.45594000000E+02  0.51100000000E-03 0.  1.
    9900012    2    1    2    0    0 -0.19113805765E+02 -0.18447136078E+02 -0.36379652563E+02  0.46142317400E+02  0.99999967072E+01 0.  0.
         12    1    1    2    0    0  0.19113805765E+02  0.18447136078E+02  0.36379652563E+02  0.45045682600E+02  0.00000000000E+00 0. -1.
         11    1    3    3    0    0 -0.33424280805E+01 -0.62612405462E+00 -0.42398316195E+01  0.54350739855E+01  0.51100000000E-03 0. -1.
        -11    1    3    3    0    0 -0.33260689913E+01 -0.11189058968E+00 -0.39114225997E+01  0.51356091609E+01  0.51100000000E-03 0.  1.
        -12    1    3    3    0    0 -0.12445308693E+02 -0.17709121433E+02 -0.28228398344E+02  0.35571634254E+02  0.00000000000E+00 0.  1.
</event>
<event>
 7    1  0.2250716E-008  0.4614232E+02  0.7816164E-02  0.1320468E+00
        -11   -1    0    0    0    0  0.00000000000E+00  0.00000000000E+00  0.45593999997E+02  0.45594000000E+02  0.51100000000E-03 0.  1.
         11   -1    0    0    0    0 -0.00000000000E+00 -0.00000000000E+00 -0.45593999997E+02  0.45594000000E+02  0.51100000000E-03 0. -1.
    9900012    2    1    2    0    0  0.28606467392E+02  0.29124593922E+02  0.19040523698E+02  0.46142317738E+02  0.99999997883E+01 0.  0.
         12    1    1    2    0    0 -0.28606467392E+02 -0.29124593922E+02 -0.19040523698E+02  0.45045682262E+02  0.00000000000E+00 0. -1.
         11    1    3    3    0    0  0.17504950524E+02  0.16159303551E+02  0.60117751759E+01  0.24570059526E+02  0.51100000000E-03 0.  1.
        -11    1    3    3    0    0  0.75210947974E+01  0.73090483123E+01  0.83378650427E+01  0.13398098668E+02  0.51100000000E-03 0. -1.
        -12    1    3    3    0    0  0.35804220707E+01  0.56562420590E+01  0.46908834792E+01  0.81741595439E+01  0.00000000000E+00 0.  1.
</event>
<event>
 7    1  0.2250716E-008  0.4614232E+02  0.7816164E-02  0.1320468E+00
        -11   -1    0    0    0    0  0.00000000000E+00  0.00000000000E+00  0.45593999997E+02  0.45594000000E+02  0.51100000000E-03 0. -1.
         11   -1    0    0    0    0 -0.00000000000E+00 -0.00000000000E+00 -0.45593999997E+02  0.45594000000E+02  0.51100000000E-03 0.  1.
    9900012    2    1    2    0    0  0.33518850907E+02 -0.18589130078E+02 -0.23665255937E+02  0.46142318057E+02  0.10000002699E+02 0.  0.
         12    1    1    2    0    0 -0.33518850907E+02  0.18589130078E+02  0.23665255937E+02  0.45045681943E+02  0.00000000000E+00 0. -1.
         11    1    3    3    0    0  0.22191879912E+01 -0.41049622570E+00 -0.37009265924E+01  0.43347618614E+01  0.51100000000E-03 0. -1.
        -11    1    3    3    0    0  0.40548077219E+01 -0.47334310289E+01 -0.47035030086E+01  0.78083145288E+01  0.51100000000E-03 0.  1.
        -12    1    3    3    0    0  0.27244855193E+02 -0.13445202824E+02 -0.15260826336E+02  0.33999241667E+02  0.00000000000E+00 0.  1.
</event>
<event>
 7    1  0.2250716E-008  0.4614232E+02  0.7816164E-02  0.1320468E+00
        -11   -1    0    0    0    0  0.00000000000E+00  0.00000000000E+00  0.45593999997E+02  0.45594000000E+02  0.51100000000E-03 0. -1.
         11   -1    0    0    0    0 -0.00000000000E+00 -0.00000000000E+00 -0.45593999997E+02  0.45594000000E+02  0.51100000000E-03 0.  1.
    9900012    2    1    2    0    0  0.16084702915E+02  0.30495553620E+02 -0.28989946850E+02  0.46142317889E+02  0.10000001170E+02 0.  0.
         12    1    1    2    0    0 -0.16084702915E+02 -0.30495553620E+02  0.28989946850E+02  0.45045682111E+02  0.00000000000E+00 0. -1.
         11    1    3    3    0    0  0.21899677983E-01  0.86177477189E+00 -0.41520080694E+01  0.42405549900E+01  0.51100000000E-03 0. -1.
        -11    1    3    3    0    0  0.48686871712E+01  0.76704266964E+01 -0.71442170268E+01  0.11557655371E+02  0.51100000000E-03 0.  1.
         12    1    3    3    0    0  0.11194116066E+02  0.21963352152E+02 -0.17693721754E+02  0.30344107529E+02  0.00000000000E+00 0. -1.
</event>
<event>
 7    1  0.2250716E-008  0.4614232E+02  0.7816164E-02  0.1320468E+00
        -11   -1    0    0    0    0  0.00000000000E+00  0.00000000000E+00  0.45593999997E+02  0.45594000000E+02  0.51100000000E-03 0.  1.
         11   -1    0    0    0    0 -0.00000000000E+00 -0.00000000000E+00 -0.45593999997E+02  0.45594000000E+02  0.51100000000E-03 0. -1.
    9900012    2    1    2    0    0  0.43267150455E+01  0.19527061001E+02  0.40361950340E+02  0.46142316415E+02  0.99999877219E+01 0.  0.
         12    1    1    2    0    0 -0.43267150455E+01 -0.19527061001E+02 -0.40361950340E+02  0.45045683585E+02  0.00000000000E+00 0. -1.
         11    1    3    3    0    0  0.58008765773E+01  0.79003855573E+01  0.18808771488E+02  0.21209341012E+02  0.51100000000E-03 0. -1.
        -11    1    3    3    0    0 -0.21348966383E+01  0.36043994367E+01  0.10097766878E+02  0.10932263038E+02  0.51100000000E-03 0.  1.
        -12    1    3    3    0    0  0.66073510646E+00  0.80222760067E+01  0.11455411974E+02  0.14000712364E+02  0.00000000000E+00 0.  1.
</event>
<event>
 7    1  0.2250716E-008  0.4614232E+02  0.7816164E-02  0.1320468E+00
        -11   -1    0    0    0    0  0.00000000000E+00  0.00000000000E+00  0.45593999997E+02  0.45594000000E+02  0.51100000000E-03 0.  1.
         11   -1    0    0    0    0 -0.00000000000E+00 -0.00000000000E+00 -0.45593999997E+02  0.45594000000E+02  0.51100000000E-03 0. -1.
    9900012    2    1    2    0    0 -0.19109357064E+02  0.32887872993E+02  0.24131593153E+02  0.46142317571E+02  0.99999982678E+01 0.  0.
         12    1    1    2    0    0  0.19109357064E+02 -0.32887872993E+02 -0.24131593153E+02  0.45045682429E+02  0.00000000000E+00 0. -1.
         11    1    3    3    0    0 -0.18326958488E+01  0.35450724978E+01  0.51649662973E+01  0.65271119343E+01  0.51100000000E-03 0. -1.
        -11    1    3    3    0    0 -0.47688389680E+01  0.31873326043E+01  0.23501315252E+01  0.61987121792E+01  0.51100000000E-03 0.  1.
        -12    1    3    3    0    0 -0.12507822247E+02  0.26155467891E+02  0.16616495330E+02  0.33416493458E+02  0.00000000000E+00 0.  1.
</event>
<event>
 7    1  0.2250716E-008  0.4614232E+02  0.7816164E-02  0.1320468E+00
        -11   -1    0    0    0    0  0.00000000000E+00  0.00000000000E+00  0.45593999997E+02  0.45594000000E+02  0.51100000000E-03 0.  1.
         11   -1    0    0    0    0 -0.00000000000E+00 -0.00000000000E+00 -0.45593999997E+02  0.45594000000E+02  0.51100000000E-03 0. -1.
    9900012    2    1    2    0    0 -0.41036020312E+02 -0.13524153685E+02  0.12737970746E+02  0.46142316581E+02  0.99999892430E+01 0.  0.
         12    1    1    2    0    0  0.41036020312E+02  0.13524153685E+02 -0.12737970746E+02  0.45045683419E+02  0.00000000000E+00 0. -1.
         11    1    3    3    0    0 -0.11660894383E+01 -0.59206141212E+00  0.24439041115E+00  0.13304240782E+01  0.51100000000E-03 0. -1.
        -11    1    3    3    0    0 -0.70989087083E+01  0.14242368295E+01  0.25771957534E+01  0.76853688011E+01  0.51100000000E-03 0.  1.
        -12    1    3    3    0    0 -0.32771022165E+02 -0.14356329102E+02  0.99163845818E+01  0.37126523702E+02  0.00000000000E+00 0.  1.
</event>
<event>
 7    1  0.2250716E-008  0.4614232E+02  0.7816164E-02  0.1320468E+00
        -11   -1    0    0    0    0  0.00000000000E+00  0.00000000000E+00  0.45593999997E+02  0.45594000000E+02  0.51100000000E-03 0. -1.
         11   -1    0    0    0    0 -0.00000000000E+00 -0.00000000000E+00 -0.45593999997E+02  0.45594000000E+02  0.51100000000E-03 0.  1.
    9900012    2    1    2    0    0 -0.84840946328E+01  0.43929358545E+02 -0.52292615684E+01  0.46142316739E+02  0.99999906792E+01 0.  0.
         12    1    1    2    0    0  0.84840946328E+01 -0.43929358545E+02  0.52292615684E+01  0.45045683261E+02  0.00000000000E+00 0. -1.
         11    1    3    3    0    0 -0.60934823535E+01  0.35150653236E+02 -0.12469676152E+01  0.35696692824E+02  0.51100000000E-03 0. -1.
        -11    1    3    3    0    0 -0.12108074208E+01  0.59760938948E+01 -0.98618615228E+00  0.61767561258E+01  0.51100000000E-03 0.  1.
         12    1    3    3    0    0 -0.11798048585E+01  0.28026114142E+01 -0.29961078010E+01  0.42688677888E+01  0.00000000000E+00 0. -1.
</event>
<event>
 7    1  0.2250716E-008  0.4614232E+02  0.7816164E-02  0.1320468E+00
        -11   -1    0    0    0    0  0.00000000000E+00  0.00000000000E+00  0.45593999997E+02  0.45594000000E+02  0.51100000000E-03 0.  1.
         11   -1    0    0    0    0 -0.00000000000E+00 -0.00000000000E+00 -0.45593999997E+02  0.45594000000E+02  0.51100000000E-03 0. -1.
    9900012    2    1    2    0    0  0.22871602411E+02 -0.15195102398E+02  0.35708710258E+02  0.46142319608E+02  0.10000016839E+02 0.  0.
         12    1    1    2    0    0 -0.22871602411E+02  0.15195102398E+02 -0.35708710258E+02  0.45045680392E+02  0.00000000000E+00 0. -1.
         11    1    3    3    0    0  0.16017565031E+01 -0.10795180571E+01  0.30773698605E+00  0.19559359510E+01  0.51100000000E-03 0. -1.
        -11    1    3    3    0    0  0.37552196797E+01 -0.41167357637E+01  0.12408385144E+02  0.13602103159E+02  0.51100000000E-03 0.  1.
        -12    1    3    3    0    0  0.17514626228E+02 -0.99988485772E+01  0.22992588127E+02  0.30584280498E+02  0.00000000000E+00 0.  1.
</event>
<event>
 7    1  0.2250716E-008  0.4614233E+02  0.7816164E-02  0.1320468E+00
        -11   -1    0    0    0    0  0.00000000000E+00  0.00000000000E+00  0.45593999997E+02  0.45594000000E+02  0.51100000000E-03 0.  1.
         11   -1    0    0    0    0 -0.00000000000E+00 -0.00000000000E+00 -0.45593999997E+02  0.45594000000E+02  0.51100000000E-03 0. -1.
    9900012    2    1    2    0    0 -0.43355255386E+02 -0.12179092505E+02 -0.10505485762E+01  0.46142332993E+02  0.10000138896E+02 0.  0.
         12    1    1    2    0    0  0.43355255386E+02  0.12179092505E+02  0.10505485762E+01  0.45045667007E+02  0.00000000000E+00 0. -1.
         11    1    3    3    0    0  0.26592435038E-01 -0.42755282083E+00 -0.84284093672E+00  0.94545739086E+00  0.51100000000E-03 0. -1.
        -11    1    3    3    0    0 -0.58587430891E+01 -0.54600107771E-01 -0.61161311238E+00  0.58908337794E+01  0.51100000000E-03 0.  1.
        -12    1    3    3    0    0 -0.37523104731E+02 -0.11696939576E+02  0.40390547295E+00  0.39306041823E+02  0.00000000000E+00 0.  1.
</event>
<event>
 7    1  0.2250716E-008  0.4614232E+02  0.7816164E-02  0.1320468E+00
        -11   -1    0    0    0    0  0.00000000000E+00  0.00000000000E+00  0.45593999997E+02  0.45594000000E+02  0.51100000000E-03 0. -1.
         11   -1    0    0    0    0 -0.00000000000E+00 -0.00000000000E+00 -0.45593999997E+02  0.45594000000E+02  0.51100000000E-03 0.  1.
    9900012    2    1    2    0    0  0.12184353141E+02 -0.12301153571E+02 -0.41585294103E+02  0.46142317341E+02  0.99999961647E+01 0.  0.
         12    1    1    2    0    0 -0.12184353141E+02  0.12301153571E+02  0.41585294103E+02  0.45045682659E+02  0.00000000000E+00 0. -1.
         11    1    3    3    0    0 -0.33871891336E+00 -0.25599020099E+01 -0.59917328145E+01  0.65244686515E+01  0.51100000000E-03 0.  1.
        -11    1    3    3    0    0  0.56149923420E+01 -0.20809970646E+01 -0.20345868360E+02  0.21208796462E+02  0.51100000000E-03 0. -1.
         12    1    3    3    0    0  0.69080797124E+01 -0.76602544963E+01 -0.15247692929E+02  0.18409052227E+02  0.00000000000E+00 0. -1.
</event>
<event>
 7    1  0.2250716E-008  0.4614232E+02  0.7816164E-02  0.1320468E+00
        -11   -1    0    0    0    0  0.00000000000E+00  0.00000000000E+00  0.45593999997E+02  0.45594000000E+02  0.51100000000E-03 0. -1.
         11   -1    0    0    0    0 -0.00000000000E+00 -0.00000000000E+00 -0.45593999997E+02  0.45594000000E+02  0.51100000000E-03 0.  1.
    9900012    2    1    2    0    0 -0.38269264353E+02  0.17462787444E+02 -0.16112976943E+02  0.46142316906E+02  0.99999922061E+01 0.  0.
         12    1    1    2    0    0  0.38269264353E+02 -0.17462787444E+02  0.16112976943E+02  0.45045683094E+02  0.00000000000E+00 0. -1.
         11    1    3    3    0    0 -0.31682786241E+01 -0.89400370583E+00 -0.17759950720E+00  0.32967823574E+01  0.51100000000E-03 0. -1.
        -11    1    3    3    0    0 -0.12449841247E+02  0.53365940623E+01 -0.68929738465E+01  0.15198383860E+02  0.51100000000E-03 0.  1.
         12    1    3    3    0    0 -0.22651144482E+02  0.13020197088E+02 -0.90424035889E+01  0.27647150689E+02  0.00000000000E+00 0. -1.
</event>
<event>
 7    1  0.2250716E-008  0.4614232E+02  0.7816164E-02  0.1320468E+00
        -11   -1    0    0    0    0  0.00000000000E+00  0.00000000000E+00  0.45593999997E+02  0.45594000000E+02  0.51100000000E-03 0.  1.
         11   -1    0    0    0    0 -0.00000000000E+00 -0.00000000000E+00 -0.45593999997E+02  0.45594000000E+02  0.51100000000E-03 0. -1.
    9900012    2    1    2    0    0 -0.78142977364E+00  0.22895000323E+02  0.38785589447E+02  0.46142316289E+02  0.99999865754E+01 0.  0.
         12    1    1    2    0    0  0.78142977364E+00 -0.22895000323E+02 -0.38785589447E+02  0.45045683711E+02  0.00000000000E+00 0. -1.
         11    1    3    3    0    0  0.50181390614E+00  0.50307139705E+01  0.50987933986E+01  0.71803617341E+01  0.51100000000E-03 0. -1.
        -11    1    3    3    0    0  0.12942451836E+01  0.16403817185E+02  0.26562110697E+02  0.31245895951E+02  0.51100000000E-03 0.  1.
         12    1    3    3    0    0 -0.25774888634E+01  0.14604691676E+01  0.71246853508E+01  0.77160586039E+01  0.00000000000E+00 0. -1.
</event>
<event>
 7    1  0.2250716E-008  0.4614232E+02  0.7816164E-02  0.1320468E+00
        -11   -1    0    0    0    0  0.00000000000E+00  0.00000000000E+00  0.45593999997E+02  0.45594000000E+02  0.51100000000E-03 0.  1.
         11   -1    0    0    0    0 -0.00000000000E+00 -0.00000000000E+00 -0.45593999997E+02  0.45594000000E+02  0.51100000000E-03 0. -1.
    9900012    2    1    2    0    0 -0.26652603428E+02 -0.36098152029E+02  0.39592521131E+01  0.46142317336E+02  0.99999961198E+01 0.  0.
         12    1    1    2    0    0  0.26652603428E+02  0.36098152029E+02 -0.39592521131E+01  0.45045682664E+02  0.00000000000E+00 0. -1.
         11    1    3    3    0    0 -0.22960681369E+01 -0.14944635207E+01 -0.10368553902E+01  0.29292353038E+01  0.51100000000E-03 0. -1.
        -11    1    3    3    0    0 -0.12377196520E+02 -0.18704117704E+02 -0.91353941699E+00  0.22447128264E+02  0.51100000000E-03 0.  1.
         12    1    3    3    0    0 -0.11979338770E+02 -0.15899570805E+02  0.59096469203E+01  0.20765953768E+02  0.00000000000E+00 0. -1.
</event>
<event>
 7    1  0.2250716E-008  0.4614232E+02  0.7816164E-02  0.1320468E+00
        -11   -1    0    0    0    0  0.00000000000E+00  0.00000000000E+00  0.45593999997E+02  0.45594000000E+02  0.51100000000E-03 0.  1.
         11   -1    0    0    0    0 -0.00000000000E+00 -0.00000000000E+00 -0.45593999997E+02  0.45594000000E+02  0.51100000000E-03 0. -1.
    9900012    2    1    2    0    0  0.18596768117E+02  0.18596639968E+02  0.36571009565E+02  0.46142317153E+02  0.99999944586E+01 0.  0.
         12    1    1    2    0    0 -0.18596768117E+02 -0.18596639968E+02 -0.36571009565E+02  0.45045682847E+02  0.00000000000E+00 0. -1.
         11    1    3    3    0    0  0.47758130057E+01  0.41540669359E+01  0.10396903304E+02  0.12172109946E+02  0.51100000000E-03 0. -1.
        -11    1    3    3    0    0  0.13116239273E+02  0.15230418586E+02  0.22609235167E+02  0.30251923874E+02  0.51100000000E-03 0.  1.
         12    1    3    3    0    0  0.70471583889E+00 -0.78784555376E+00  0.35648710940E+01  0.37182833333E+01  0.00000000000E+00 0. -1.
</event>
<event>
 7    1  0.2250716E-008  0.4614232E+02  0.7816164E-02  0.1320468E+00
        -11   -1    0    0    0    0  0.00000000000E+00  0.00000000000E+00  0.45593999997E+02  0.45594000000E+02  0.51100000000E-03 0.  1.
         11   -1    0    0    0    0 -0.00000000000E+00 -0.00000000000E+00 -0.45593999997E+02  0.45594000000E+02  0.51100000000E-03 0. -1.
    9900012    2    1    2    0    0 -0.19471360698E+02  0.13236232237E+02  0.38402886860E+02  0.46142318182E+02  0.10000003842E+02 0.  0.
         12    1    1    2    0    0  0.19471360698E+02 -0.13236232237E+02 -0.38402886860E+02  0.45045681818E+02  0.00000000000E+00 0. -1.
         11    1    3    3    0    0 -0.30748533134E-01  0.93657922605E+00 -0.32840229646E+00  0.99296246072E+00  0.51100000000E-03 0. -1.
        -11    1    3    3    0    0 -0.14343305172E+02  0.97396408335E+01  0.26712651862E+02  0.31845828244E+02  0.51100000000E-03 0.  1.
        -12    1    3    3    0    0 -0.50973069932E+01  0.25600121769E+01  0.12018637294E+02  0.13303527477E+02  0.00000000000E+00 0.  1.
</event>
<event>
 7    1  0.2250716E-008  0.4614232E+02  0.7816164E-02  0.1320468E+00
        -11   -1    0    0    0    0  0.00000000000E+00  0.00000000000E+00  0.45593999997E+02  0.45594000000E+02  0.51100000000E-03 0.  1.
         11   -1    0    0    0    0 -0.00000000000E+00 -0.00000000000E+00 -0.45593999997E+02  0.45594000000E+02  0.51100000000E-03 0. -1.
    9900012    2    1    2    0    0  0.33670890355E+02 -0.10090533808E+02  0.28170298011E+02  0.46142318522E+02  0.10000006935E+02 0.  0.
         12    1    1    2    0    0 -0.33670890355E+02  0.10090533808E+02 -0.28170298011E+02  0.45045681478E+02  0.00000000000E+00 0. -1.
         11    1    3    3    0    0  0.28247481365E+02 -0.54723939125E+01  0.21771772634E+02  0.36081537972E+02  0.51100000000E-03 0. -1.
        -11    1    3    3    0    0  0.19049569132E+01 -0.14043606559E+01  0.41819932583E+01  0.48052219061E+01  0.51100000000E-03 0.  1.
        -12    1    3    3    0    0  0.35184520769E+01 -0.32137792392E+01  0.22165321192E+01  0.52555586432E+01  0.00000000000E+00 0.  1.
</event>
<event>
 7    1  0.2250716E-008  0.4614232E+02  0.7816164E-02  0.1320468E+00
        -11   -1    0    0    0    0  0.00000000000E+00  0.00000000000E+00  0.45593999997E+02  0.45594000000E+02  0.51100000000E-03 0.  1.
         11   -1    0    0    0    0 -0.00000000000E+00 -0.00000000000E+00 -0.45593999997E+02  0.45594000000E+02  0.51100000000E-03 0. -1.
    9900012    2    1    2    0    0 -0.18490154011E+02 -0.33870400731E+02  0.23238403305E+02  0.46142320637E+02  0.10000026228E+02 0.  0.
         12    1    1    2    0    0  0.18490154011E+02  0.33870400731E+02 -0.23238403305E+02  0.45045679363E+02  0.00000000000E+00 0. -1.
         11    1    3    3    0    0 -0.18318907216E+01 -0.15405569521E+01  0.34981340941E+01  0.42386414970E+01  0.51100000000E-03 0. -1.
        -11    1    3    3    0    0 -0.13266919041E+02 -0.19198424141E+02  0.11287618387E+02  0.25922981300E+02  0.51100000000E-03 0.  1.
        -12    1    3    3    0    0 -0.33913442480E+01 -0.13131419638E+02  0.84526508241E+01  0.15980697841E+02  0.00000000000E+00 0.  1.
</event>
<event>
 7    1  0.2250716E-008  0.4614232E+02  0.7816164E-02  0.1320468E+00
        -11   -1    0    0    0    0  0.00000000000E+00  0.00000000000E+00  0.45593999997E+02  0.45594000000E+02  0.51100000000E-03 0.  1.
         11   -1    0    0    0    0 -0.00000000000E+00 -0.00000000000E+00 -0.45593999997E+02  0.45594000000E+02  0.51100000000E-03 0. -1.
    9900012    2    1    2    0    0 -0.30893408460E+02  0.14626799305E+01  0.32750135531E+02  0.46142317675E+02  0.99999992106E+01 0.  0.
         12    1    1    2    0    0  0.30893408460E+02 -0.14626799305E+01 -0.32750135531E+02  0.45045682325E+02  0.00000000000E+00 0. -1.
         11    1    3    3    0    0 -0.11737051022E+02  0.27130164514E+01  0.87961938273E+01  0.14916160735E+02  0.51100000000E-03 0. -1.
        -11    1    3    3    0    0 -0.15273132288E+02  0.12164585235E+01  0.16971368954E+02  0.22864288873E+02  0.51100000000E-03 0.  1.
         12    1    3    3    0    0 -0.38832251493E+01 -0.24667950444E+01  0.69825727504E+01  0.83618680668E+01  0.00000000000E+00 0. -1.
</event>
<event>
 7    1  0.2250716E-008  0.4614232E+02  0.7816164E-02  0.1320468E+00
        -11   -1    0    0    0    0  0.00000000000E+00  0.00000000000E+00  0.45593999997E+02  0.45594000000E+02  0.51100000000E-03 0. -1.
         11   -1    0    0    0    0 -0.00000000000E+00 -0.00000000000E+00 -0.45593999997E+02  0.45594000000E+02  0.51100000000E-03 0.  1.
    9900012    2    1    2    0    0  0.18403567562E+02  0.40467234308E+02 -0.72680895922E+01  0.46142317878E+02  0.10000001062E+02 0.  0.
         12    1    1    2    0    0 -0.18403567562E+02 -0.40467234308E+02  0.72680895922E+01  0.45045682122E+02  0.00000000000E+00 0. -1.
         11    1    3    3    0    0  0.75676121856E+01  0.71493154533E+01 -0.10576826983E+01  0.10464232346E+02  0.51100000000E-03 0. -1.
        -11    1    3    3    0    0  0.38815363039E+01  0.11819852222E+02 -0.93809661493E+00  0.12476187565E+02  0.51100000000E-03 0.  1.
         12    1    3    3    0    0  0.69544190723E+01  0.21498066633E+02 -0.52723102790E+01  0.23201897967E+02  0.00000000000E+00 0. -1.
</event>
<event>
 7    1  0.2250716E-008  0.4614232E+02  0.7816164E-02  0.1320468E+00
        -11   -1    0    0    0    0  0.00000000000E+00  0.00000000000E+00  0.45593999997E+02  0.45594000000E+02  0.51100000000E-03 0. -1.
         11   -1    0    0    0    0 -0.00000000000E+00 -0.00000000000E+00 -0.45593999997E+02  0.45594000000E+02  0.51100000000E-03 0.  1.
    9900012    2    1    2    0    0  0.29966139641E+02 -0.14570478685E+02  0.30312456641E+02  0.46142318723E+02  0.10000008770E+02 0.  0.
         12    1    1    2    0    0 -0.29966139641E+02  0.14570478685E+02 -0.30312456641E+02  0.45045681277E+02  0.00000000000E+00 0. -1.
         11    1    3    3    0    0  0.73465395961E+00 -0.11770830606E+01  0.21061080545E+01  0.25220888903E+01  0.51100000000E-03 0. -1.
        -11    1    3    3    0    0  0.17023899598E+02 -0.31490982318E+01  0.15519368804E+02  0.23250393233E+02  0.51100000000E-03 0.  1.
        -12    1    3    3    0    0  0.12207586084E+02 -0.10244297393E+02  0.12686979783E+02  0.20369836599E+02  0.00000000000E+00 0.  1.
</event>
<event>
 7    1  0.2250716E-008  0.4614232E+02  0.7816164E-02  0.1320468E+00
        -11   -1    0    0    0    0  0.00000000000E+00  0.00000000000E+00  0.45593999997E+02  0.45594000000E+02  0.51100000000E-03 0.  1.
         11   -1    0    0    0    0 -0.00000000000E+00 -0.00000000000E+00 -0.45593999997E+02  0.45594000000E+02  0.51100000000E-03 0. -1.
    9900012    2    1    2    0    0  0.21690475263E+02  0.38535107828E+02  0.85838339058E+01  0.46142318109E+02  0.10000003176E+02 0.  0.
         12    1    1    2    0    0 -0.21690475263E+02 -0.38535107828E+02 -0.85838339058E+01  0.45045681891E+02  0.00000000000E+00 0. -1.
         11    1    3    3    0    0  0.69306983875E+01  0.87184604283E+01  0.38935120493E+01  0.11798540957E+02  0.51100000000E-03 0. -1.
        -11    1    3    3    0    0  0.14149964356E+02  0.29701672270E+02  0.54654006731E+01  0.33350883522E+02  0.51100000000E-03 0.  1.
         12    1    3    3    0    0  0.60981251937E+00  0.11497512983E+00 -0.77507881656E+00  0.99289363033E+00  0.00000000000E+00 0. -1.
</event>
<event>
 7    1  0.2250716E-008  0.4614232E+02  0.7816164E-02  0.1320468E+00
        -11   -1    0    0    0    0  0.00000000000E+00  0.00000000000E+00  0.45593999997E+02  0.45594000000E+02  0.51100000000E-03 0. -1.
         11   -1    0    0    0    0 -0.00000000000E+00 -0.00000000000E+00 -0.45593999997E+02  0.45594000000E+02  0.51100000000E-03 0.  1.
    9900012    2    1    2    0    0  0.44579527284E+02 -0.48391606559E+01 -0.42850648818E+01  0.46142317524E+02  0.99999978371E+01 0.  0.
         12    1    1    2    0    0 -0.44579527284E+02  0.48391606559E+01  0.42850648818E+01  0.45045682476E+02  0.00000000000E+00 0. -1.
         11    1    3    3    0    0  0.42004944668E+01 -0.17859515519E+01 -0.21073234440E+01  0.50273839191E+01  0.51100000000E-03 0. -1.
        -11    1    3    3    0    0  0.28918791639E+02 -0.36575835065E+01  0.11316342280E+01  0.29171133390E+02  0.51100000000E-03 0.  1.
        -12    1    3    3    0    0  0.11460241178E+02  0.60437440254E+00 -0.33093756658E+01  0.11943800215E+02  0.00000000000E+00 0.  1.
</event>
<event>
 7    1  0.2250716E-008  0.4614232E+02  0.7816164E-02  0.1320468E+00
        -11   -1    0    0    0    0  0.00000000000E+00  0.00000000000E+00  0.45593999997E+02  0.45594000000E+02  0.51100000000E-03 0.  1.
         11   -1    0    0    0    0 -0.00000000000E+00 -0.00000000000E+00 -0.45593999997E+02  0.45594000000E+02  0.51100000000E-03 0. -1.
    9900012    2    1    2    0    0  0.18540492528E+02 -0.37984884868E+02 -0.15572800447E+02  0.46142318128E+02  0.10000003341E+02 0.  0.
         12    1    1    2    0    0 -0.18540492528E+02  0.37984884868E+02  0.15572800447E+02  0.45045681872E+02  0.00000000000E+00 0. -1.
         11    1    3    3    0    0  0.10290753886E+02 -0.14472090558E+02 -0.79774062278E+01  0.19467409459E+02  0.51100000000E-03 0. -1.
        -11    1    3    3    0    0  0.75736463224E+01 -0.13333245779E+02 -0.38794511449E+01  0.15817259657E+02  0.51100000000E-03 0.  1.
         12    1    3    3    0    0  0.67609231921E+00 -0.10179548531E+02 -0.37159430745E+01  0.10857649012E+02  0.00000000000E+00 0. -1.
</event>
<event>
 7    1  0.2250716E-008  0.4614232E+02  0.7816164E-02  0.1320468E+00
        -11   -1    0    0    0    0  0.00000000000E+00  0.00000000000E+00  0.45593999997E+02  0.45594000000E+02  0.51100000000E-03 0.  1.
         11   -1    0    0    0    0 -0.00000000000E+00 -0.00000000000E+00 -0.45593999997E+02  0.45594000000E+02  0.51100000000E-03 0. -1.
    9900012    2    1    2    0    0 -0.41496293557E+02 -0.16295887908E+02  0.64509726884E+01  0.46142318849E+02  0.10000009924E+02 0.  0.
         12    1    1    2    0    0  0.41496293557E+02  0.16295887908E+02 -0.64509726884E+01  0.45045681151E+02  0.00000000000E+00 0. -1.
         11    1    3    3    0    0 -0.25023357202E+00 -0.60738363007E+00 -0.72972403176E+00  0.98184985527E+00  0.51100000000E-03 0. -1.
        -11    1    3    3    0    0 -0.40931377438E+01 -0.33037355075E+01  0.21234618019E+01  0.56725245860E+01  0.51100000000E-03 0.  1.
        -12    1    3    3    0    0 -0.37152922241E+02 -0.12384768771E+02  0.50572349182E+01  0.39487944408E+02  0.00000000000E+00 0.  1.
</event>
<event>
 7    1  0.2250716E-008  0.4614232E+02  0.7816164E-02  0.1320468E+00
        -11   -1    0    0    0    0  0.00000000000E+00  0.00000000000E+00  0.45593999997E+02  0.45594000000E+02  0.51100000000E-03 0.  1.
         11   -1    0    0    0    0 -0.00000000000E+00 -0.00000000000E+00 -0.45593999997E+02  0.45594000000E+02  0.51100000000E-03 0. -1.
    9900012    2    1    2    0    0 -0.35095086139E+02  0.74374485790E+00  0.28229329991E+02  0.46142319860E+02  0.10000019137E+02 0.  0.
         12    1    1    2    0    0  0.35095086139E+02 -0.74374485790E+00 -0.28229329991E+02  0.45045680140E+02  0.00000000000E+00 0. -1.
         11    1    3    3    0    0 -0.88618552230E+01 -0.27283802568E+01  0.73268163164E+01  0.11817731357E+02  0.51100000000E-03 0. -1.
        -11    1    3    3    0    0 -0.18594332161E+02  0.40426819665E+01  0.17811795451E+02  0.26064391868E+02  0.51100000000E-03 0.  1.
        -12    1    3    3    0    0 -0.76388987552E+01 -0.57055685171E+00  0.30907182243E+01  0.82601966354E+01  0.00000000000E+00 0.  1.
</event>
<event>
 7    1  0.2250716E-008  0.4614232E+02  0.7816164E-02  0.1320468E+00
        -11   -1    0    0    0    0  0.00000000000E+00  0.00000000000E+00  0.45593999997E+02  0.45594000000E+02  0.51100000000E-03 0.  1.
         11   -1    0    0    0    0 -0.00000000000E+00 -0.00000000000E+00 -0.45593999997E+02  0.45594000000E+02  0.51100000000E-03 0. -1.
    9900012    2    1    2    0    0 -0.90923840972E+01  0.22634557455E+01  0.44060401208E+02  0.46142316132E+02  0.99999851488E+01 0.  0.
         12    1    1    2    0    0  0.90923840972E+01 -0.22634557455E+01 -0.44060401208E+02  0.45045683868E+02  0.00000000000E+00 0. -1.
         11    1    3    3    0    0 -0.55788092751E+00  0.27493214238E+01  0.38709916809E+01  0.47806460103E+01  0.51100000000E-03 0. -1.
        -11    1    3    3    0    0 -0.47213795446E+01  0.19957466176E+01  0.24242228929E+02  0.24778218118E+02  0.51100000000E-03 0.  1.
         12    1    3    3    0    0 -0.38131236251E+01 -0.24816122960E+01  0.15947180598E+02  0.16583452005E+02  0.00000000000E+00 0. -1.
</event>
<event>
 7    1  0.2250716E-008  0.4614232E+02  0.7816164E-02  0.1320468E+00
        -11   -1    0    0    0    0  0.00000000000E+00  0.00000000000E+00  0.45593999997E+02  0.45594000000E+02  0.51100000000E-03 0.  1.
         11   -1    0    0    0    0 -0.00000000000E+00 -0.00000000000E+00 -0.45593999997E+02  0.45594000000E+02  0.51100000000E-03 0. -1.
    9900012    2    1    2    0    0  0.56832909016E+01  0.14404520025E+02  0.42300396273E+02  0.46142317438E+02  0.99999970524E+01 0.  0.
         12    1    1    2    0    0 -0.56832909016E+01 -0.14404520025E+02 -0.42300396273E+02  0.45045682562E+02  0.00000000000E+00 0. -1.
         11    1    3    3    0    0 -0.93366974798E+00  0.27029412685E+01  0.10587751147E+02  0.10967137517E+02  0.51100000000E-03 0. -1.
        -11    1    3    3    0    0  0.13972327359E+01  0.50025552988E+01  0.20273041410E+02  0.20927829010E+02  0.51100000000E-03 0.  1.
         12    1    3    3    0    0  0.52197279138E+01  0.66990234573E+01  0.11439603717E+02  0.14247350910E+02  0.00000000000E+00 0. -1.
</event>
<event>
 7    1  0.2250716E-008  0.4614232E+02  0.7816164E-02  0.1320468E+00
        -11   -1    0    0    0    0  0.00000000000E+00  0.00000000000E+00  0.45593999997E+02  0.45594000000E+02  0.51100000000E-03 0. -1.
         11   -1    0    0    0    0 -0.00000000000E+00 -0.00000000000E+00 -0.45593999997E+02  0.45594000000E+02  0.51100000000E-03 0.  1.
    9900012    2    1    2    0    0 -0.71754149439E+01  0.29917079920E+02 -0.32902814695E+02  0.46142318016E+02  0.10000002327E+02 0.  0.
         12    1    1    2    0    0  0.71754149439E+01 -0.29917079920E+02  0.32902814695E+02  0.45045681984E+02  0.00000000000E+00 0. -1.
         11    1    3    3    0    0  0.61951386835E+00  0.33982621062E+01 -0.49340580530E+01  0.60230317870E+01  0.51100000000E-03 0. -1.
        -11    1    3    3    0    0 -0.41124782372E+01  0.13324856578E+02 -0.19641907319E+02  0.24088769240E+02  0.51100000000E-03 0.  1.
         12    1    3    3    0    0 -0.36824505750E+01  0.13193961236E+02 -0.83268493222E+01  0.16030516990E+02  0.00000000000E+00 0. -1.
</event>
<event>
 7    1  0.2250716E-008  0.4614232E+02  0.7816164E-02  0.1320468E+00
        -11   -1    0    0    0    0  0.00000000000E+00  0.00000000000E+00  0.45593999997E+02  0.45594000000E+02  0.51100000000E-03 0.  1.
         11   -1    0    0    0    0 -0.00000000000E+00 -0.00000000000E+00 -0.45593999997E+02  0.45594000000E+02  0.51100000000E-03 0. -1.
    9900012    2    1    2    0    0  0.24890926203E-01 -0.19441529712E+02  0.40634220039E+02  0.46142317240E+02  0.99999952519E+01 0.  0.
         12    1    1    2    0    0 -0.24890926203E-01  0.19441529712E+02 -0.40634220039E+02  0.45045682760E+02  0.00000000000E+00 0. -1.
         11    1    3    3    0    0 -0.38498760502E+00  0.36359557887E+00  0.64537125321E+00  0.83481825362E+00  0.51100000000E-03 0. -1.
        -11    1    3    3    0    0  0.39817488419E+01 -0.13171691322E+02  0.26306902400E+02  0.29688396559E+02  0.51100000000E-03 0.  1.
        -12    1    3    3    0    0 -0.35718703107E+01 -0.66334339687E+01  0.13681946386E+02  0.15619102428E+02  0.00000000000E+00 0.  1.
</event>
<event>
 7    1  0.2250716E-008  0.4614232E+02  0.7816164E-02  0.1320468E+00
        -11   -1    0    0    0    0  0.00000000000E+00  0.00000000000E+00  0.45593999997E+02  0.45594000000E+02  0.51100000000E-03 0.  1.
         11   -1    0    0    0    0 -0.00000000000E+00 -0.00000000000E+00 -0.45593999997E+02  0.45594000000E+02  0.51100000000E-03 0. -1.
    9900012    2    1    2    0    0  0.25406886739E+02 -0.12155102463E+02  0.35154759195E+02  0.46142317591E+02  0.99999984489E+01 0.  0.
         12    1    1    2    0    0 -0.25406886739E+02  0.12155102463E+02 -0.35154759195E+02  0.45045682409E+02  0.00000000000E+00 0. -1.
         11    1    3    3    0    0  0.22648008081E+01  0.87880065090E+00  0.32119737233E+01  0.40272060718E+01  0.51100000000E-03 0. -1.
        -11    1    3    3    0    0  0.65562585845E+01 -0.60177559938E+01  0.14691854155E+02  0.17176975654E+02  0.51100000000E-03 0.  1.
        -12    1    3    3    0    0  0.16585827346E+02 -0.70161471199E+01  0.17250931316E+02  0.24938135866E+02  0.00000000000E+00 0.  1.
</event>
<event>
 7    1  0.2250716E-008  0.4614232E+02  0.7816164E-02  0.1320468E+00
        -11   -1    0    0    0    0  0.00000000000E+00  0.00000000000E+00  0.45593999997E+02  0.45594000000E+02  0.51100000000E-03 0.  1.
         11   -1    0    0    0    0 -0.00000000000E+00 -0.00000000000E+00 -0.45593999997E+02  0.45594000000E+02  0.51100000000E-03 0. -1.
    9900012    2    1    2    0    0 -0.44736881748E+02 -0.16342806937E+01 -0.50053469358E+01  0.46142323627E+02  0.10000053492E+02 0.  0.
         12    1    1    2    0    0  0.44736881748E+02  0.16342806937E+01  0.50053469358E+01  0.45045676373E+02  0.00000000000E+00 0. -1.
         11    1    3    3    0    0  0.21528736209E+00 -0.13641056879E+00  0.60346181988E+00  0.65507474439E+00  0.51100000000E-03 0. -1.
        -11    1    3    3    0    0 -0.50463422474E+00 -0.32479475361E+00 -0.39761985653E+00  0.71989523139E+00  0.51100000000E-03 0.  1.
        -12    1    3    3    0    0 -0.44447534885E+02 -0.11730753713E+01 -0.52111888991E+01  0.44767353652E+02  0.00000000000E+00 0.  1.
</event>
<event>
 7    1  0.2250716E-008  0.4614232E+02  0.7816164E-02  0.1320468E+00
        -11   -1    0    0    0    0  0.00000000000E+00  0.00000000000E+00  0.45593999997E+02  0.45594000000E+02  0.51100000000E-03 0.  1.
         11   -1    0    0    0    0 -0.00000000000E+00 -0.00000000000E+00 -0.45593999997E+02  0.45594000000E+02  0.51100000000E-03 0. -1.
    9900012    2    1    2    0    0 -0.19332416395E+02  0.72098200274E+01  0.40042347924E+02  0.46142318123E+02  0.10000003302E+02 0.  0.
         12    1    1    2    0    0  0.19332416395E+02 -0.72098200274E+01 -0.40042347924E+02  0.45045681877E+02  0.00000000000E+00 0. -1.
         11    1    3    3    0    0 -0.46580044154E+01  0.94810913402E+00  0.19520489948E+02  0.20090929399E+02  0.51100000000E-03 0. -1.
        -11    1    3    3    0    0 -0.49316593120E+01  0.29829311686E+01  0.70811388546E+01  0.91302612047E+01  0.51100000000E-03 0.  1.
         12    1    3    3    0    0 -0.97427526677E+01  0.32787797248E+01  0.13440719121E+02  0.16921127519E+02  0.00000000000E+00 0. -1.
</event>
<event>
 7    1  0.2250716E-008  0.4614232E+02  0.7816164E-02  0.1320468E+00
        -11   -1    0    0    0    0  0.00000000000E+00  0.00000000000E+00  0.45593999997E+02  0.45594000000E+02  0.51100000000E-03 0.  1.
         11   -1    0    0    0    0 -0.00000000000E+00 -0.00000000000E+00 -0.45593999997E+02  0.45594000000E+02  0.51100000000E-03 0. -1.
    9900012    2    1    2    0    0  0.83981064907E+01  0.88870451847E+01  0.43354418760E+02  0.46142318845E+02  0.10000009880E+02 0.  0.
         12    1    1    2    0    0 -0.83981064907E+01 -0.88870451847E+01 -0.43354418760E+02  0.45045681155E+02  0.00000000000E+00 0. -1.
         11    1    3    3    0    0  0.14340642282E+00  0.41299622149E+01  0.13616789061E+02  0.14230042091E+02  0.51100000000E-03 0. -1.
        -11    1    3    3    0    0  0.10416654452E+01 -0.10593776620E+01  0.99771285773E+01  0.10087142452E+02  0.51100000000E-03 0.  1.
         12    1    3    3    0    0  0.72130346228E+01  0.58164606318E+01  0.19760501121E+02  0.21825134302E+02  0.00000000000E+00 0. -1.
</event>
<event>
 7    1  0.2250716E-008  0.4614232E+02  0.7816164E-02  0.1320468E+00
        -11   -1    0    0    0    0  0.00000000000E+00  0.00000000000E+00  0.45593999997E+02  0.45594000000E+02  0.51100000000E-03 0.  1.
         11   -1    0    0    0    0 -0.00000000000E+00 -0.00000000000E+00 -0.45593999997E+02  0.45594000000E+02  0.51100000000E-03 0. -1.
    9900012    2    1    2    0    0 -0.85900140543E+01 -0.34017573175E+02  0.28251191503E+02  0.46142318215E+02  0.10000004137E+02 0.  0.
         12    1    1    2    0    0  0.85900140543E+01  0.34017573175E+02 -0.28251191503E+02  0.45045681785E+02  0.00000000000E+00 0. -1.
         11    1    3    3    0    0 -0.29793512267E+01 -0.74934767258E+01  0.11631295999E+02  0.14153295519E+02  0.51100000000E-03 0. -1.
        -11    1    3    3    0    0  0.30888089416E+00 -0.40579241092E+01  0.19551409176E+01  0.45149453763E+01  0.51100000000E-03 0.  1.
        -12    1    3    3    0    0 -0.59195437217E+01 -0.22466172340E+02  0.14664754586E+02  0.27474077320E+02  0.00000000000E+00 0.  1.
</event>
<event>
 7    1  0.2250716E-008  0.4614232E+02  0.7816164E-02  0.1320468E+00
        -11   -1    0    0    0    0  0.00000000000E+00  0.00000000000E+00  0.45593999997E+02  0.45594000000E+02  0.51100000000E-03 0.  1.
         11   -1    0    0    0    0 -0.00000000000E+00 -0.00000000000E+00 -0.45593999997E+02  0.45594000000E+02  0.51100000000E-03 0. -1.
    9900012    2    1    2    0    0 -0.35870569359E+01 -0.95788276625E+00  0.44892415960E+02  0.46142317326E+02  0.99999960321E+01 0.  0.
         12    1    1    2    0    0  0.35870569359E+01  0.95788276625E+00 -0.44892415960E+02  0.45045682674E+02  0.00000000000E+00 0. -1.
         11    1    3    3    0    0 -0.63304041828E+01 -0.45900312688E-01  0.37969217647E+02  0.38493345047E+02  0.51100000000E-03 0. -1.
        -11    1    3    3    0    0  0.19054372510E+01 -0.75660352569E+00  0.62036309116E+01  0.65336189635E+01  0.51100000000E-03 0.  1.
         12    1    3    3    0    0  0.83790999579E+00 -0.15537892787E+00  0.71956740138E+00  0.11153533151E+01  0.00000000000E+00 0. -1.
</event>
<event>
 7    1  0.2250716E-008  0.4614232E+02  0.7816164E-02  0.1320468E+00
        -11   -1    0    0    0    0  0.00000000000E+00  0.00000000000E+00  0.45593999997E+02  0.45594000000E+02  0.51100000000E-03 0.  1.
         11   -1    0    0    0    0 -0.00000000000E+00 -0.00000000000E+00 -0.45593999997E+02  0.45594000000E+02  0.51100000000E-03 0. -1.
    9900012    2    1    2    0    0  0.19511484137E+02  0.55808270643E+01  0.40215293539E+02  0.46142317872E+02  0.10000001010E+02 0.  0.
         12    1    1    2    0    0 -0.19511484137E+02 -0.55808270643E+01 -0.40215293539E+02  0.45045682128E+02  0.00000000000E+00 0. -1.
         11    1    3    3    0    0  0.69878676512E+01 -0.25810684590E+01  0.13330970467E+02  0.15271115957E+02  0.51100000000E-03 0.  1.
        -11    1    3    3    0    0  0.18023959826E+01  0.12540505786E+01  0.61290163261E+01  0.65104620050E+01  0.51100000000E-03 0. -1.
        -12    1    3    3    0    0  0.10721220504E+02  0.69078449447E+01  0.20755306746E+02  0.24360739910E+02  0.00000000000E+00 0.  1.
</event>
<event>
 7    1  0.2250716E-008  0.4614232E+02  0.7816164E-02  0.1320468E+00
        -11   -1    0    0    0    0  0.00000000000E+00  0.00000000000E+00  0.45593999997E+02  0.45594000000E+02  0.51100000000E-03 0.  1.
         11   -1    0    0    0    0 -0.00000000000E+00 -0.00000000000E+00 -0.45593999997E+02  0.45594000000E+02  0.51100000000E-03 0. -1.
    9900012    2    1    2    0    0  0.10483393221E+02  0.16937914521E+02  0.40401967843E+02  0.46142317773E+02  0.10000000104E+02 0.  0.
         12    1    1    2    0    0 -0.10483393221E+02 -0.16937914521E+02 -0.40401967843E+02  0.45045682227E+02  0.00000000000E+00 0. -1.
         11    1    3    3    0    0  0.85628374390E+00  0.13590395325E+01  0.77150364069E+01  0.78804820488E+01  0.51100000000E-03 0. -1.
        -11    1    3    3    0    0  0.32588171716E+01  0.11904980376E+02  0.22978727933E+02  0.26083910458E+02  0.51100000000E-03 0.  1.
        -12    1    3    3    0    0  0.63682923055E+01  0.36738946121E+01  0.97082035032E+01  0.12177925265E+02  0.00000000000E+00 0.  1.
</event>
<event>
 7    1  0.2250716E-008  0.4614233E+02  0.7816164E-02  0.1320468E+00
        -11   -1    0    0    0    0  0.00000000000E+00  0.00000000000E+00  0.45593999997E+02  0.45594000000E+02  0.51100000000E-03 0. -1.
         11   -1    0    0    0    0 -0.00000000000E+00 -0.00000000000E+00 -0.45593999997E+02  0.45594000000E+02  0.51100000000E-03 0.  1.
    9900012    2    1    2    0    0  0.35569346188E+02  0.26023184558E+02 -0.93127937810E+01  0.46142327059E+02  0.10000084781E+02 0.  0.
         12    1    1    2    0    0 -0.35569346188E+02 -0.26023184558E+02  0.93127937810E+01  0.45045672941E+02  0.00000000000E+00 0. -1.
         11    1    3    3    0    0  0.19076125016E+00  0.20285492534E+01  0.19716959977E-01  0.20375944022E+01  0.51100000000E-03 0. -1.
        -11    1    3    3    0    0  0.88583284651E+01  0.73012782972E+01 -0.26529410374E+00  0.11482553252E+02  0.51100000000E-03 0.  1.
        -12    1    3    3    0    0  0.26520256472E+02  0.16693357007E+02 -0.90672166373E+01  0.32622179404E+02  0.00000000000E+00 0.  1.
</event>
<event>
 7    1  0.2250716E-008  0.4614232E+02  0.7816164E-02  0.1320468E+00
        -11   -1    0    0    0    0  0.00000000000E+00  0.00000000000E+00  0.45593999997E+02  0.45594000000E+02  0.51100000000E-03 0.  1.
         11   -1    0    0    0    0 -0.00000000000E+00 -0.00000000000E+00 -0.45593999997E+02  0.45594000000E+02  0.51100000000E-03 0. -1.
    9900012    2    1    2    0    0  0.37520218699E+02 -0.70825275253E+01  0.23899465654E+02  0.46142318010E+02  0.10000002272E+02 0.  0.
         12    1    1    2    0    0 -0.37520218699E+02  0.70825275253E+01 -0.23899465654E+02  0.45045681990E+02  0.00000000000E+00 0. -1.
         11    1    3    3    0    0  0.71039296769E+01 -0.40610416887E+01  0.60196612196E+01  0.10158454504E+02  0.51100000000E-03 0. -1.
        -11    1    3    3    0    0  0.15624981410E+02 -0.45235097075E+01  0.10728652337E+02  0.19486050533E+02  0.51100000000E-03 0.  1.
        -12    1    3    3    0    0  0.14791307612E+02  0.15020238709E+01  0.71511520971E+01  0.16497812973E+02  0.00000000000E+00 0.  1.
</event>
<event>
 7    1  0.2250716E-008  0.4614232E+02  0.7816164E-02  0.1320468E+00
        -11   -1    0    0    0    0  0.00000000000E+00  0.00000000000E+00  0.45593999997E+02  0.45594000000E+02  0.51100000000E-03 0.  1.
         11   -1    0    0    0    0 -0.00000000000E+00 -0.00000000000E+00 -0.45593999997E+02  0.45594000000E+02  0.51100000000E-03 0. -1.
    9900012    2    1    2    0    0 -0.18867341189E+02  0.38168361485E+02  0.14707585677E+02  0.46142318094E+02  0.10000003032E+02 0.  0.
         12    1    1    2    0    0  0.18867341189E+02 -0.38168361485E+02 -0.14707585677E+02  0.45045681906E+02  0.00000000000E+00 0. -1.
         11    1    3    3    0    0 -0.25000489461E+01  0.12337638243E+02  0.76591995983E+01  0.14735362258E+02  0.51100000000E-03 0. -1.
        -11    1    3    3    0    0 -0.87611409453E+01  0.12645794047E+02  0.35089092215E+01  0.15779294722E+02  0.51100000000E-03 0.  1.
         12    1    3    3    0    0 -0.76061512972E+01  0.13184929196E+02  0.35394768570E+01  0.15627661113E+02  0.00000000000E+00 0. -1.
</event>
<event>
 7    1  0.2250716E-008  0.4614232E+02  0.7816164E-02  0.1320468E+00
        -11   -1    0    0    0    0  0.00000000000E+00  0.00000000000E+00  0.45593999997E+02  0.45594000000E+02  0.51100000000E-03 0.  1.
         11   -1    0    0    0    0 -0.00000000000E+00 -0.00000000000E+00 -0.45593999997E+02  0.45594000000E+02  0.51100000000E-03 0. -1.
    9900012    2    1    2    0    0 -0.10563069124E+01 -0.44922773211E+02  0.31531064431E+01  0.46142318548E+02  0.10000007171E+02 0.  0.
         12    1    1    2    0    0  0.10563069124E+01  0.44922773211E+02 -0.31531064431E+01  0.45045681452E+02  0.00000000000E+00 0. -1.
         11    1    3    3    0    0 -0.33332255639E+01 -0.19492619335E+02  0.90844903428E+00  0.19796410813E+02  0.51100000000E-03 0. -1.
        -11    1    3    3    0    0  0.20967743370E+01 -0.25744446139E+02  0.19963649364E+01  0.25906725822E+02  0.51100000000E-03 0.  1.
         12    1    3    3    0    0  0.18014431452E+00  0.31429226200E+00  0.24829247241E+00  0.43918191204E+00  0.00000000000E+00 0. -1.
</event>
<event>
 7    1  0.2250716E-008  0.4614232E+02  0.7816164E-02  0.1320468E+00
        -11   -1    0    0    0    0  0.00000000000E+00  0.00000000000E+00  0.45593999997E+02  0.45594000000E+02  0.51100000000E-03 0.  1.
         11   -1    0    0    0    0 -0.00000000000E+00 -0.00000000000E+00 -0.45593999997E+02  0.45594000000E+02  0.51100000000E-03 0. -1.
    9900012    2    1    2    0    0  0.23635538938E+01 -0.33921823930E+02  0.29543817711E+02  0.46142315515E+02  0.99999795197E+01 0.  0.
         12    1    1    2    0    0 -0.23635538938E+01  0.33921823930E+02 -0.29543817711E+02  0.45045684485E+02  0.00000000000E+00 0. -1.
         11    1    3    3    0    0  0.77006015523E+00 -0.19663918874E+01  0.84588216788E-01  0.21134912171E+01  0.51100000000E-03 0. -1.
        -11    1    3    3    0    0  0.39973876114E+01 -0.25826138435E+02  0.23801895051E+02  0.35348249497E+02  0.51100000000E-03 0.  1.
         12    1    3    3    0    0 -0.24038938729E+01 -0.61292936080E+01  0.56573344429E+01  0.86805748015E+01  0.00000000000E+00 0. -1.
</event>
<event>
 7    1  0.2250716E-008  0.4614232E+02  0.7816164E-02  0.1320468E+00
        -11   -1    0    0    0    0  0.00000000000E+00  0.00000000000E+00  0.45593999997E+02  0.45594000000E+02  0.51100000000E-03 0.  1.
         11   -1    0    0    0    0 -0.00000000000E+00 -0.00000000000E+00 -0.45593999997E+02  0.45594000000E+02  0.51100000000E-03 0. -1.
    9900012    2    1    2    0    0  0.15988911299E+02 -0.41662476974E+02 -0.61405376707E+01  0.46142317909E+02  0.10000001346E+02 0.  0.
         12    1    1    2    0    0 -0.15988911299E+02  0.41662476974E+02  0.61405376707E+01  0.45045682091E+02  0.00000000000E+00 0. -1.
         11    1    3    3    0    0  0.12205575438E+01 -0.80335724789E+01 -0.36363670893E+01  0.89023150563E+01  0.51100000000E-03 0. -1.
        -11    1    3    3    0    0  0.13415584269E+02 -0.25480920016E+02 -0.30765896811E+01  0.28960673170E+02  0.51100000000E-03 0.  1.
        -12    1    3    3    0    0  0.13527694863E+01 -0.81479844794E+01  0.57241909974E+00  0.82793296821E+01  0.00000000000E+00 0.  1.
</event>
<event>
 7    1  0.2250716E-008  0.4614232E+02  0.7816164E-02  0.1320468E+00
        -11   -1    0    0    0    0  0.00000000000E+00  0.00000000000E+00  0.45593999997E+02  0.45594000000E+02  0.51100000000E-03 0.  1.
         11   -1    0    0    0    0 -0.00000000000E+00 -0.00000000000E+00 -0.45593999997E+02  0.45594000000E+02  0.51100000000E-03 0. -1.
    9900012    2    1    2    0    0  0.18906862638E+02 -0.33244971409E+02  0.23799493640E+02  0.46142317894E+02  0.10000001216E+02 0.  0.
         12    1    1    2    0    0 -0.18906862638E+02  0.33244971409E+02 -0.23799493640E+02  0.45045682106E+02  0.00000000000E+00 0. -1.
         11    1    3    3    0    0  0.11763043560E+01 -0.36004081701E+01  0.44814567521E+00  0.38141140172E+01  0.51100000000E-03 0. -1.
        -11    1    3    3    0    0  0.82322258794E+01 -0.10341658603E+02  0.52860315288E+01  0.14235925512E+02  0.51100000000E-03 0.  1.
         12    1    3    3    0    0  0.94983324028E+01 -0.19302904636E+02  0.18065316436E+02  0.28092278365E+02  0.00000000000E+00 0. -1.
</event>
<event>
 7    1  0.2250716E-008  0.4614232E+02  0.7816164E-02  0.1320468E+00
        -11   -1    0    0    0    0  0.00000000000E+00  0.00000000000E+00  0.45593999997E+02  0.45594000000E+02  0.51100000000E-03 0.  1.
         11   -1    0    0    0    0 -0.00000000000E+00 -0.00000000000E+00 -0.45593999997E+02  0.45594000000E+02  0.51100000000E-03 0. -1.
    9900012    2    1    2    0    0 -0.12422715079E+02 -0.40261472049E+02  0.15931213267E+02  0.46142317214E+02  0.99999950148E+01 0.  0.
         12    1    1    2    0    0  0.12422715079E+02  0.40261472049E+02 -0.15931213267E+02  0.45045682786E+02  0.00000000000E+00 0. -1.
         11    1    3    3    0    0 -0.66631303078E+01 -0.24810012530E+02  0.58853202556E+01  0.26354715366E+02  0.51100000000E-03 0.  1.
        -11    1    3    3    0    0 -0.23171214092E+00 -0.39259124318E+00 -0.43148043051E+00  0.62768943237E+00  0.51100000000E-03 0. -1.
        -12    1    3    3    0    0 -0.55278726304E+01 -0.15058868275E+02  0.10477373442E+02  0.19159912416E+02  0.00000000000E+00 0.  1.
</event>
<event>
 7    1  0.2250716E-008  0.4614232E+02  0.7816164E-02  0.1320468E+00
        -11   -1    0    0    0    0  0.00000000000E+00  0.00000000000E+00  0.45593999997E+02  0.45594000000E+02  0.51100000000E-03 0.  1.
         11   -1    0    0    0    0 -0.00000000000E+00 -0.00000000000E+00 -0.45593999997E+02  0.45594000000E+02  0.51100000000E-03 0. -1.
    9900012    2    1    2    0    0  0.65609476952E+01 -0.34014766472E+02  0.28793451037E+02  0.46142321013E+02  0.10000029654E+02 0.  0.
         12    1    1    2    0    0 -0.65609476952E+01  0.34014766472E+02 -0.28793451037E+02  0.45045678987E+02  0.00000000000E+00 0. -1.
         11    1    3    3    0    0  0.52621427865E+01 -0.15321815024E+02  0.17345208212E+02  0.23734034855E+02  0.51100000000E-03 0. -1.
        -11    1    3    3    0    0 -0.15234509916E+01 -0.81460428391E+01  0.58045981184E+01  0.10117918582E+02  0.51100000000E-03 0.  1.
        -12    1    3    3    0    0  0.28222559004E+01 -0.10546908609E+02  0.56436447059E+01  0.12290367575E+02  0.00000000000E+00 0.  1.
</event>
<event>
 7    1  0.2250716E-008  0.4614233E+02  0.7816164E-02  0.1320468E+00
        -11   -1    0    0    0    0  0.00000000000E+00  0.00000000000E+00  0.45593999997E+02  0.45594000000E+02  0.51100000000E-03 0.  1.
         11   -1    0    0    0    0 -0.00000000000E+00 -0.00000000000E+00 -0.45593999997E+02  0.45594000000E+02  0.51100000000E-03 0. -1.
    9900012    2    1    2    0    0  0.91096680118E+01 -0.42945572223E+02 -0.10089814459E+02  0.46142327837E+02  0.10000091875E+02 0.  0.
         12    1    1    2    0    0 -0.91096680118E+01  0.42945572223E+02  0.10089814459E+02  0.45045672163E+02  0.00000000000E+00 0. -1.
         11    1    3    3    0    0 -0.16854926390E+01 -0.43087652344E+01 -0.16168851674E+01  0.49010877555E+01  0.51100000000E-03 0. -1.
        -11    1    3    3    0    0 -0.35920014855E+00 -0.25319795641E+01 -0.81917217231E+00  0.26853283913E+01  0.51100000000E-03 0.  1.
         12    1    3    3    0    0  0.11154360799E+02 -0.36104827424E+02 -0.76537571197E+01  0.38555911690E+02  0.00000000000E+00 0. -1.
</event>
<event>
 7    1  0.2250716E-008  0.4614232E+02  0.7816164E-02  0.1320468E+00
        -11   -1    0    0    0    0  0.00000000000E+00  0.00000000000E+00  0.45593999997E+02  0.45594000000E+02  0.51100000000E-03 0.  1.
         11   -1    0    0    0    0 -0.00000000000E+00 -0.00000000000E+00 -0.45593999997E+02  0.45594000000E+02  0.51100000000E-03 0. -1.
    9900012    2    1    2    0    0 -0.36434916521E+02 -0.17696836359E+02 -0.19708686703E+02  0.46142317737E+02  0.99999997798E+01 0.  0.
         12    1    1    2    0    0  0.36434916521E+02  0.17696836359E+02  0.19708686703E+02  0.45045682263E+02  0.00000000000E+00 0. -1.
         11    1    3    3    0    0 -0.13726499859E+02 -0.77269543840E+01 -0.43921785853E+01  0.16352793505E+02  0.51100000000E-03 0. -1.
        -11    1    3    3    0    0 -0.82383157065E+01 -0.53200608913E+01 -0.90668892657E+01  0.13355949041E+02  0.51100000000E-03 0.  1.
        -12    1    3    3    0    0 -0.14470100955E+02 -0.46498210836E+01 -0.62496188521E+01  0.16433575191E+02  0.00000000000E+00 0.  1.
</event>
<event>
 7    1  0.2250716E-008  0.4614232E+02  0.7816164E-02  0.1320468E+00
        -11   -1    0    0    0    0  0.00000000000E+00  0.00000000000E+00  0.45593999997E+02  0.45594000000E+02  0.51100000000E-03 0. -1.
         11   -1    0    0    0    0 -0.00000000000E+00 -0.00000000000E+00 -0.45593999997E+02  0.45594000000E+02  0.51100000000E-03 0.  1.
    9900012    2    1    2    0    0  0.36805064502E+02  0.25941305540E+02 -0.12447438339E+01  0.46142317706E+02  0.99999994954E+01 0.  0.
         12    1    1    2    0    0 -0.36805064502E+02 -0.25941305540E+02  0.12447438339E+01  0.45045682294E+02  0.00000000000E+00 0. -1.
         11    1    3    3    0    0  0.68314110825E+01  0.36098235989E+01 -0.29357494552E+01  0.82654478958E+01  0.51100000000E-03 0. -1.
        -11    1    3    3    0    0  0.13987237668E+02  0.77283662912E+01  0.26735515390E+01  0.16202417758E+02  0.51100000000E-03 0.  1.
        -12    1    3    3    0    0  0.15986415752E+02  0.14603115650E+02 -0.98254591781E+00  0.21674452052E+02  0.00000000000E+00 0.  1.
</event>
<event>
 7    1  0.2250716E-008  0.4614232E+02  0.7816164E-02  0.1320468E+00
        -11   -1    0    0    0    0  0.00000000000E+00  0.00000000000E+00  0.45593999997E+02  0.45594000000E+02  0.51100000000E-03 0.  1.
         11   -1    0    0    0    0 -0.00000000000E+00 -0.00000000000E+00 -0.45593999997E+02  0.45594000000E+02  0.51100000000E-03 0. -1.
    9900012    2    1    2    0    0 -0.33841821998E+02 -0.25312377033E+02  0.15592562808E+02  0.46142319162E+02  0.10000012774E+02 0.  0.
         12    1    1    2    0    0  0.33841821998E+02  0.25312377033E+02 -0.15592562808E+02  0.45045680838E+02  0.00000000000E+00 0. -1.
         11    1    3    3    0    0  0.25562742168E+00 -0.29856725848E+00 -0.64078532857E+00  0.75172726769E+00  0.51100000000E-03 0. -1.
        -11    1    3    3    0    0 -0.29624885075E+02 -0.20592254257E+02  0.14320982963E+02  0.38817074907E+02  0.51100000000E-03 0.  1.
         12    1    3    3    0    0 -0.44725643454E+01 -0.44215555181E+01  0.19123651741E+01  0.65735169874E+01  0.00000000000E+00 0. -1.
</event>
<event>
 7    1  0.2250716E-008  0.4614232E+02  0.7816164E-02  0.1320468E+00
        -11   -1    0    0    0    0  0.00000000000E+00  0.00000000000E+00  0.45593999997E+02  0.45594000000E+02  0.51100000000E-03 0. -1.
         11   -1    0    0    0    0 -0.00000000000E+00 -0.00000000000E+00 -0.45593999997E+02  0.45594000000E+02  0.51100000000E-03 0.  1.
    9900012    2    1    2    0    0  0.32520418548E+02 -0.30174665267E+02  0.78118772736E+01  0.46142317931E+02  0.10000001552E+02 0.  0.
         12    1    1    2    0    0 -0.32520418548E+02  0.30174665267E+02 -0.78118772736E+01  0.45045682069E+02  0.00000000000E+00 0. -1.
         11    1    3    3    0    0  0.11316984734E+01 -0.43409901505E+01  0.82506215837E+00  0.45613226972E+01  0.51100000000E-03 0. -1.
        -11    1    3    3    0    0  0.27464711016E+02 -0.20079800622E+02  0.59904234417E+01  0.34545533973E+02  0.51100000000E-03 0.  1.
         12    1    3    3    0    0  0.39240090585E+01 -0.57538744944E+01  0.99639167349E+00  0.70354612610E+01  0.00000000000E+00 0. -1.
</event>
<event>
 7    1  0.2250716E-008  0.4614232E+02  0.7816164E-02  0.1320468E+00
        -11   -1    0    0    0    0  0.00000000000E+00  0.00000000000E+00  0.45593999997E+02  0.45594000000E+02  0.51100000000E-03 0.  1.
         11   -1    0    0    0    0 -0.00000000000E+00 -0.00000000000E+00 -0.45593999997E+02  0.45594000000E+02  0.51100000000E-03 0. -1.
    9900012    2    1    2    0    0  0.30046484380E+02 -0.20249534986E+02  0.26763383962E+02  0.46142316390E+02  0.99999874978E+01 0.  0.
         12    1    1    2    0    0 -0.30046484380E+02  0.20249534986E+02 -0.26763383962E+02  0.45045683610E+02  0.00000000000E+00 0. -1.
         11    1    3    3    0    0  0.11969417468E+02 -0.61230020559E+01  0.86927382459E+01  0.16010053315E+02  0.51100000000E-03 0. -1.
        -11    1    3    3    0    0  0.11371045797E+02 -0.47124549406E+01  0.11455492071E+02  0.16814761757E+02  0.51100000000E-03 0.  1.
         12    1    3    3    0    0  0.67060211158E+01 -0.94140779898E+01  0.66151536452E+01  0.13317501318E+02  0.00000000000E+00 0. -1.
</event>
<event>
 7    1  0.2250716E-008  0.4614232E+02  0.7816164E-02  0.1320468E+00
        -11   -1    0    0    0    0  0.00000000000E+00  0.00000000000E+00  0.45593999997E+02  0.45594000000E+02  0.51100000000E-03 0. -1.
         11   -1    0    0    0    0 -0.00000000000E+00 -0.00000000000E+00 -0.45593999997E+02  0.45594000000E+02  0.51100000000E-03 0.  1.
    9900012    2    1    2    0    0  0.76921072589E+01  0.35638694224E+02 -0.26454271891E+02  0.46142317173E+02  0.99999946381E+01 0.  0.
         12    1    1    2    0    0 -0.76921072589E+01 -0.35638694224E+02  0.26454271891E+02  0.45045682827E+02  0.00000000000E+00 0. -1.
         11    1    3    3    0    0  0.67438211908E+01  0.13548345676E+02 -0.91429287654E+01  0.17681344448E+02  0.51100000000E-03 0. -1.
        -11    1    3    3    0    0  0.69207438836E-01  0.19413861371E+02 -0.13197650937E+02  0.23475110086E+02  0.51100000000E-03 0.  1.
        -12    1    3    3    0    0  0.87907862920E+00  0.26764871767E+01 -0.41136921880E+01  0.49858626397E+01  0.00000000000E+00 0.  1.
</event>
<event>
 7    1  0.2250716E-008  0.4614232E+02  0.7816164E-02  0.1320468E+00
        -11   -1    0    0    0    0  0.00000000000E+00  0.00000000000E+00  0.45593999997E+02  0.45594000000E+02  0.51100000000E-03 0. -1.
         11   -1    0    0    0    0 -0.00000000000E+00 -0.00000000000E+00 -0.45593999997E+02  0.45594000000E+02  0.51100000000E-03 0.  1.
    9900012    2    1    2    0    0 -0.77923719898E+01 -0.40468479755E+02 -0.18185014734E+02  0.46142315681E+02  0.99999810303E+01 0.  0.
         12    1    1    2    0    0  0.77923719898E+01  0.40468479755E+02  0.18185014734E+02  0.45045684319E+02  0.00000000000E+00 0. -1.
         11    1    3    3    0    0 -0.53955938911E-01 -0.92161907973E+01 -0.68129270123E+01  0.11461110714E+02  0.51100000000E-03 0. -1.
        -11    1    3    3    0    0  0.28739421831E+00 -0.14895065585E+01  0.57334208838E+00  0.16217110211E+01  0.51100000000E-03 0.  1.
        -12    1    3    3    0    0 -0.80258102692E+01 -0.29762782399E+02 -0.11945429810E+02  0.33059493946E+02  0.00000000000E+00 0.  1.
</event>
<event>
 7    1  0.2250716E-008  0.4614232E+02  0.7816164E-02  0.1320468E+00
        -11   -1    0    0    0    0  0.00000000000E+00  0.00000000000E+00  0.45593999997E+02  0.45594000000E+02  0.51100000000E-03 0.  1.
         11   -1    0    0    0    0 -0.00000000000E+00 -0.00000000000E+00 -0.45593999997E+02  0.45594000000E+02  0.51100000000E-03 0. -1.
    9900012    2    1    2    0    0  0.33667197693E+02 -0.19054527189E+01  0.29866409139E+02  0.46142319348E+02  0.10000014471E+02 0.  0.
         12    1    1    2    0    0 -0.33667197693E+02  0.19054527189E+01 -0.29866409139E+02  0.45045680652E+02  0.00000000000E+00 0. -1.
         11    1    3    3    0    0 -0.52278514447E-01 -0.15773975826E+00  0.83788980105E+00  0.85420984204E+00  0.51100000000E-03 0. -1.
        -11    1    3    3    0    0  0.80863254707E+01 -0.91910917701E+00  0.12013441735E+02  0.14510554912E+02  0.51100000000E-03 0.  1.
        -12    1    3    3    0    0  0.25633150736E+02 -0.82860378365E+00  0.17015077603E+02  0.30777554593E+02  0.00000000000E+00 0.  1.
</event>
<event>
 7    1  0.2250716E-008  0.4614232E+02  0.7816164E-02  0.1320468E+00
        -11   -1    0    0    0    0  0.00000000000E+00  0.00000000000E+00  0.45593999997E+02  0.45594000000E+02  0.51100000000E-03 0.  1.
         11   -1    0    0    0    0 -0.00000000000E+00 -0.00000000000E+00 -0.45593999997E+02  0.45594000000E+02  0.51100000000E-03 0. -1.
    9900012    2    1    2    0    0 -0.94181509686E+00  0.21996705805E+02  0.39298490765E+02  0.46142318094E+02  0.10000003039E+02 0.  0.
         12    1    1    2    0    0  0.94181509686E+00 -0.21996705805E+02 -0.39298490765E+02  0.45045681906E+02  0.00000000000E+00 0. -1.
         11    1    3    3    0    0 -0.16686877237E+01  0.36828044704E+01  0.11963910917E+02  0.12628647282E+02  0.51100000000E-03 0. -1.
        -11    1    3    3    0    0 -0.97033405758E-01  0.12046908564E+02  0.12361454743E+02  0.17261025029E+02  0.51100000000E-03 0.  1.
        -12    1    3    3    0    0  0.82390603262E+00  0.62669927699E+01  0.14973125106E+02  0.16252645783E+02  0.00000000000E+00 0.  1.
</event>
<event>
 7    1  0.2250716E-008  0.4614232E+02  0.7816164E-02  0.1320468E+00
        -11   -1    0    0    0    0  0.00000000000E+00  0.00000000000E+00  0.45593999997E+02  0.45594000000E+02  0.51100000000E-03 0.  1.
         11   -1    0    0    0    0 -0.00000000000E+00 -0.00000000000E+00 -0.45593999997E+02  0.45594000000E+02  0.51100000000E-03 0. -1.
    9900012    2    1    2    0    0  0.11354614322E+02 -0.14409885176E+01  0.43567300126E+02  0.46142319246E+02  0.10000013543E+02 0.  0.
         12    1    1    2    0    0 -0.11354614322E+02  0.14409885176E+01 -0.43567300126E+02  0.45045680754E+02  0.00000000000E+00 0. -1.
         11    1    3    3    0    0  0.14798715153E+00 -0.13660181571E+00  0.42579748058E+01  0.42627350329E+01  0.51100000000E-03 0. -1.
        -11    1    3    3    0    0 -0.14221568791E+01 -0.43488104901E+00  0.74607612124E+01  0.76075363847E+01  0.51100000000E-03 0.  1.
        -12    1    3    3    0    0  0.12628784050E+02 -0.86950565287E+00  0.31848564108E+02  0.34272047829E+02  0.00000000000E+00 0.  1.
</event>
<event>
 7    1  0.2250716E-008  0.4614232E+02  0.7816164E-02  0.1320468E+00
        -11   -1    0    0    0    0  0.00000000000E+00  0.00000000000E+00  0.45593999997E+02  0.45594000000E+02  0.51100000000E-03 0.  1.
         11   -1    0    0    0    0 -0.00000000000E+00 -0.00000000000E+00 -0.45593999997E+02  0.45594000000E+02  0.51100000000E-03 0. -1.
    9900012    2    1    2    0    0  0.11396246798E+02 -0.40433171805E+02  0.16260307592E+02  0.46142318451E+02  0.10000006287E+02 0.  0.
         12    1    1    2    0    0 -0.11396246798E+02  0.40433171805E+02 -0.16260307592E+02  0.45045681549E+02  0.00000000000E+00 0. -1.
         11    1    3    3    0    0  0.39234393881E+01 -0.19702670140E+02  0.54033054431E+01  0.20803468394E+02  0.51100000000E-03 0. -1.
        -11    1    3    3    0    0  0.81841902993E+01 -0.19578459617E+02  0.90222203148E+01  0.23058566987E+02  0.51100000000E-03 0.  1.
         12    1    3    3    0    0 -0.71138288915E+00 -0.11520420479E+01  0.18347818343E+01  0.22802830690E+01  0.00000000000E+00 0. -1.
</event>
<event>
 7    1  0.2250716E-008  0.4614232E+02  0.7816164E-02  0.1320468E+00
        -11   -1    0    0    0    0  0.00000000000E+00  0.00000000000E+00  0.45593999997E+02  0.45594000000E+02  0.51100000000E-03 0.  1.
         11   -1    0    0    0    0 -0.00000000000E+00 -0.00000000000E+00 -0.45593999997E+02  0.45594000000E+02  0.51100000000E-03 0. -1.
    9900012    2    1    2    0    0 -0.10997838645E+02 -0.40473369519E+02  0.16433728751E+02  0.46142317235E+02  0.99999952038E+01 0.  0.
         12    1    1    2    0    0  0.10997838645E+02  0.40473369519E+02 -0.16433728751E+02  0.45045682765E+02  0.00000000000E+00 0. -1.
         11    1    3    3    0    0 -0.53997674526E+01 -0.91002889260E+01  0.39359853457E+01  0.11290027811E+02  0.51100000000E-03 0. -1.
        -11    1    3    3    0    0 -0.45634322701E+01 -0.10853126489E+02  0.65006119690E+01  0.13448911662E+02  0.51100000000E-03 0.  1.
         12    1    3    3    0    0 -0.10346389223E+01 -0.20519954104E+02  0.59971314365E+01  0.21403377761E+02  0.00000000000E+00 0. -1.
</event>
<event>
 7    1  0.2250716E-008  0.4614232E+02  0.7816164E-02  0.1320468E+00
        -11   -1    0    0    0    0  0.00000000000E+00  0.00000000000E+00  0.45593999997E+02  0.45594000000E+02  0.51100000000E-03 0.  1.
         11   -1    0    0    0    0 -0.00000000000E+00 -0.00000000000E+00 -0.45593999997E+02  0.45594000000E+02  0.51100000000E-03 0. -1.
    9900012    2    1    2    0    0 -0.18427555844E+02  0.20656898974E+01  0.41052059652E+02  0.46142317734E+02  0.99999997558E+01 0.  0.
         12    1    1    2    0    0  0.18427555844E+02 -0.20656898974E+01 -0.41052059652E+02  0.45045682266E+02  0.00000000000E+00 0. -1.
         11    1    3    3    0    0 -0.50154814396E+01  0.12178402975E+01  0.67230026620E+01  0.84756683580E+01  0.51100000000E-03 0. -1.
        -11    1    3    3    0    0 -0.13776645621E+02  0.21694114757E+01  0.29232166892E+02  0.32388607444E+02  0.51100000000E-03 0.  1.
        -12    1    3    3    0    0  0.36457121743E+00 -0.13215618758E+01  0.50968900979E+01  0.52780419319E+01  0.00000000000E+00 0.  1.
</event>
<event>
 7    1  0.2250716E-008  0.4614232E+02  0.7816164E-02  0.1320468E+00
        -11   -1    0    0    0    0  0.00000000000E+00  0.00000000000E+00  0.45593999997E+02  0.45594000000E+02  0.51100000000E-03 0.  1.
         11   -1    0    0    0    0 -0.00000000000E+00 -0.00000000000E+00 -0.45593999997E+02  0.45594000000E+02  0.51100000000E-03 0. -1.
    9900012    2    1    2    0    0  0.33860538845E+02  0.81482022879E+00  0.29697029883E+02  0.46142316447E+02  0.99999880171E+01 0.  0.
         12    1    1    2    0    0 -0.33860538845E+02 -0.81482022879E+00 -0.29697029883E+02  0.45045683553E+02  0.00000000000E+00 0. -1.
         11    1    3    3    0    0  0.13514070040E+02  0.43837036095E+01  0.96900108861E+01  0.17197187492E+02  0.51100000000E-03 0. -1.
        -11    1    3    3    0    0  0.30382307838E+01 -0.10403814804E+01  0.17348594469E+01  0.36500654079E+01  0.51100000000E-03 0.  1.
         12    1    3    3    0    0  0.17308238021E+02 -0.25285019004E+01  0.18272159550E+02  0.25295063548E+02  0.00000000000E+00 0. -1.
</event>
<event>
 7    1  0.2250716E-008  0.4614232E+02  0.7816164E-02  0.1320468E+00
        -11   -1    0    0    0    0  0.00000000000E+00  0.00000000000E+00  0.45593999997E+02  0.45594000000E+02  0.51100000000E-03 0. -1.
         11   -1    0    0    0    0 -0.00000000000E+00 -0.00000000000E+00 -0.45593999997E+02  0.45594000000E+02  0.51100000000E-03 0.  1.
    9900012    2    1    2    0    0 -0.22895719650E+00 -0.14214292939E+02 -0.42743588212E+02  0.46142324531E+02  0.10000061736E+02 0.  0.
         12    1    1    2    0    0  0.22895719650E+00  0.14214292939E+02  0.42743588212E+02  0.45045675469E+02  0.00000000000E+00 0. -1.
         11    1    3    3    0    0 -0.96832179690E+00 -0.27720833280E+01 -0.22156525692E+02  0.22350251096E+02  0.51100000000E-03 0. -1.
        -11    1    3    3    0    0  0.12760712962E+01 -0.59812021315E+01 -0.13567835536E+02  0.14882516531E+02  0.51100000000E-03 0.  1.
         12    1    3    3    0    0 -0.53670669577E+00 -0.54610074797E+01 -0.70192269841E+01  0.89095569040E+01  0.00000000000E+00 0. -1.
</event>
<event>
 7    1  0.2250716E-008  0.4614232E+02  0.7816164E-02  0.1320468E+00
        -11   -1    0    0    0    0  0.00000000000E+00  0.00000000000E+00  0.45593999997E+02  0.45594000000E+02  0.51100000000E-03 0.  1.
         11   -1    0    0    0    0 -0.00000000000E+00 -0.00000000000E+00 -0.45593999997E+02  0.45594000000E+02  0.51100000000E-03 0. -1.
    9900012    2    1    2    0    0  0.12805148922E+02  0.24829844040E+02  0.35335824981E+02  0.46142317399E+02  0.99999966940E+01 0.  0.
         12    1    1    2    0    0 -0.12805148922E+02 -0.24829844040E+02 -0.35335824981E+02  0.45045682601E+02  0.00000000000E+00 0. -1.
         11    1    3    3    0    0  0.11718894632E+01 -0.27487897300E-01  0.23409601531E+00  0.11953583998E+01  0.51100000000E-03 0. -1.
        -11    1    3    3    0    0  0.65434192254E+01  0.93009336403E+01  0.11067853452E+02  0.15868871479E+02  0.51100000000E-03 0.  1.
        -12    1    3    3    0    0  0.50898402333E+01  0.15556398297E+02  0.24033875514E+02  0.29078087519E+02  0.00000000000E+00 0.  1.
</event>
<event>
 7    1  0.2250716E-008  0.4614232E+02  0.7816164E-02  0.1320468E+00
        -11   -1    0    0    0    0  0.00000000000E+00  0.00000000000E+00  0.45593999997E+02  0.45594000000E+02  0.51100000000E-03 0. -1.
         11   -1    0    0    0    0 -0.00000000000E+00 -0.00000000000E+00 -0.45593999997E+02  0.45594000000E+02  0.51100000000E-03 0.  1.
    9900012    2    1    2    0    0 -0.16326702301E+02 -0.38851005691E+02  0.15910740818E+02  0.46142317359E+02  0.99999963327E+01 0.  0.
         12    1    1    2    0    0  0.16326702301E+02  0.38851005691E+02 -0.15910740818E+02  0.45045682641E+02  0.00000000000E+00 0. -1.
         11    1    3    3    0    0  0.11375297872E+01 -0.20248221665E+01  0.13592567417E+01  0.26909957216E+01  0.51100000000E-03 0. -1.
        -11    1    3    3    0    0 -0.91898307839E+01 -0.20493900735E+02  0.60223766379E+01  0.23253429377E+02  0.51100000000E-03 0.  1.
         12    1    3    3    0    0 -0.82744013041E+01 -0.16332282790E+02  0.85291074378E+01  0.20197892260E+02  0.00000000000E+00 0. -1.
</event>
<event>
 7    1  0.2250716E-008  0.4614232E+02  0.7816164E-02  0.1320468E+00
        -11   -1    0    0    0    0  0.00000000000E+00  0.00000000000E+00  0.45593999997E+02  0.45594000000E+02  0.51100000000E-03 0.  1.
         11   -1    0    0    0    0 -0.00000000000E+00 -0.00000000000E+00 -0.45593999997E+02  0.45594000000E+02  0.51100000000E-03 0. -1.
    9900012    2    1    2    0    0 -0.24440883946E+02 -0.34507939596E+01  0.37680880873E+02  0.46142316851E+02  0.99999916989E+01 0.  0.
         12    1    1    2    0    0  0.24440883946E+02  0.34507939596E+01 -0.37680880873E+02  0.45045683149E+02  0.00000000000E+00 0. -1.
         11    1    3    3    0    0 -0.18672210228E+02 -0.18520615751E+01  0.26747543231E+02  0.32672811878E+02  0.51100000000E-03 0. -1.
        -11    1    3    3    0    0 -0.22501104522E+01 -0.13910508812E+01  0.83548464474E+00  0.27741763559E+01  0.51100000000E-03 0.  1.
         12    1    3    3    0    0 -0.35185632657E+01 -0.20768150328E+00  0.10097852997E+02  0.10695328617E+02  0.00000000000E+00 0. -1.
</event>
<event>
 7    1  0.2250716E-008  0.4614232E+02  0.7816164E-02  0.1320468E+00
        -11   -1    0    0    0    0  0.00000000000E+00  0.00000000000E+00  0.45593999997E+02  0.45594000000E+02  0.51100000000E-03 0.  1.
         11   -1    0    0    0    0 -0.00000000000E+00 -0.00000000000E+00 -0.45593999997E+02  0.45594000000E+02  0.51100000000E-03 0. -1.
    9900012    2    1    2    0    0  0.20864771756E+02  0.24248240615E+02 -0.31714311806E+02  0.46142318224E+02  0.10000004221E+02 0.  0.
         12    1    1    2    0    0 -0.20864771756E+02 -0.24248240615E+02  0.31714311806E+02  0.45045681776E+02  0.00000000000E+00 0. -1.
         11    1    3    3    0    0  0.56074333455E+01  0.11007989747E+02 -0.78393213769E+01  0.14631271541E+02  0.51100000000E-03 0. -1.
        -11    1    3    3    0    0  0.35800741199E+01  0.13989351483E+01 -0.57078127431E+01  0.68813571935E+01  0.51100000000E-03 0.  1.
         12    1    3    3    0    0  0.11677264290E+02  0.11841315720E+02 -0.18167177686E+02  0.24629689489E+02  0.00000000000E+00 0. -1.
</event>
<event>
 7    1  0.2250716E-008  0.4614232E+02  0.7816164E-02  0.1320468E+00
        -11   -1    0    0    0    0  0.00000000000E+00  0.00000000000E+00  0.45593999997E+02  0.45594000000E+02  0.51100000000E-03 0.  1.
         11   -1    0    0    0    0 -0.00000000000E+00 -0.00000000000E+00 -0.45593999997E+02  0.45594000000E+02  0.51100000000E-03 0. -1.
    9900012    2    1    2    0    0 -0.18478571811E-01  0.41743697875E+01  0.44851842658E+02  0.46142317694E+02  0.99999993902E+01 0.  0.
         12    1    1    2    0    0  0.18478571811E-01 -0.41743697875E+01 -0.44851842658E+02  0.45045682306E+02  0.00000000000E+00 0. -1.
         11    1    3    3    0    0  0.35954284323E+01  0.30546402684E+01  0.16514584102E+02  0.17175256071E+02  0.51100000000E-03 0. -1.
        -11    1    3    3    0    0 -0.41307420862E+00 -0.88638673282E-01 -0.15422018157E-02  0.42248047971E+00  0.51100000000E-03 0.  1.
        -12    1    3    3    0    0 -0.32008327955E+01  0.12083681924E+01  0.28338800758E+02  0.28544581144E+02  0.00000000000E+00 0.  1.
</event>
<event>
 7    1  0.2250716E-008  0.4614232E+02  0.7816164E-02  0.1320468E+00
        -11   -1    0    0    0    0  0.00000000000E+00  0.00000000000E+00  0.45593999997E+02  0.45594000000E+02  0.51100000000E-03 0.  1.
         11   -1    0    0    0    0 -0.00000000000E+00 -0.00000000000E+00 -0.45593999997E+02  0.45594000000E+02  0.51100000000E-03 0. -1.
    9900012    2    1    2    0    0  0.26596350244E+01  0.21569596097E+02  0.39456207582E+02  0.46142318176E+02  0.10000003782E+02 0.  0.
         12    1    1    2    0    0 -0.26596350244E+01 -0.21569596097E+02 -0.39456207582E+02  0.45045681824E+02  0.00000000000E+00 0. -1.
         11    1    3    3    0    0  0.15179078923E+01  0.10780829889E+02  0.16825711459E+02  0.20040830916E+02  0.51100000000E-03 0.  1.
        -11    1    3    3    0    0  0.68819008293E+00  0.10373295022E+02  0.13942400874E+02  0.17391647352E+02  0.51100000000E-03 0. -1.
         12    1    3    3    0    0  0.45353704923E+00  0.41547118550E+00  0.86880952491E+01  0.87098399078E+01  0.00000000000E+00 0. -1.
</event>
<event>
 7    1  0.2250716E-008  0.4614232E+02  0.7816164E-02  0.1320468E+00
        -11   -1    0    0    0    0  0.00000000000E+00  0.00000000000E+00  0.45593999997E+02  0.45594000000E+02  0.51100000000E-03 0.  1.
         11   -1    0    0    0    0 -0.00000000000E+00 -0.00000000000E+00 -0.45593999997E+02  0.45594000000E+02  0.51100000000E-03 0. -1.
    9900012    2    1    2    0    0 -0.29649880179E+02 -0.31406157243E+02  0.12792628509E+02  0.46142318169E+02  0.10000003724E+02 0.  0.
         12    1    1    2    0    0  0.29649880179E+02  0.31406157243E+02 -0.12792628509E+02  0.45045681831E+02  0.00000000000E+00 0. -1.
         11    1    3    3    0    0 -0.17941682270E+02 -0.17647956645E+02  0.83862473067E+01  0.26527033015E+02  0.51100000000E-03 0. -1.
        -11    1    3    3    0    0 -0.12096099016E+02 -0.13833664611E+02  0.48655739121E+01  0.19009463373E+02  0.51100000000E-03 0.  1.
         12    1    3    3    0    0  0.38790110709E+00  0.75464012995E-01 -0.45919270985E+00  0.60582178148E+00  0.00000000000E+00 0. -1.
</event>
<event>
 7    1  0.2250716E-008  0.4614232E+02  0.7816164E-02  0.1320468E+00
        -11   -1    0    0    0    0  0.00000000000E+00  0.00000000000E+00  0.45593999997E+02  0.45594000000E+02  0.51100000000E-03 0. -1.
         11   -1    0    0    0    0 -0.00000000000E+00 -0.00000000000E+00 -0.45593999997E+02  0.45594000000E+02  0.51100000000E-03 0.  1.
    9900012    2    1    2    0    0  0.86514529565E+01  0.22575922144E+02 -0.38007806617E+02  0.46142320265E+02  0.10000022835E+02 0.  0.
         12    1    1    2    0    0 -0.86514529565E+01 -0.22575922144E+02  0.38007806617E+02  0.45045679735E+02  0.00000000000E+00 0. -1.
         11    1    3    3    0    0  0.60921410104E+00 -0.11046003539E-02 -0.21248482125E+01  0.22104576966E+01  0.51100000000E-03 0. -1.
        -11    1    3    3    0    0  0.35254173395E+01  0.19229627981E+02 -0.29879314886E+02  0.35706870740E+02  0.51100000000E-03 0.  1.
        -12    1    3    3    0    0  0.45168215159E+01  0.33473987633E+01 -0.60036435185E+01  0.82249918288E+01  0.00000000000E+00 0.  1.
</event>
<event>
 7    1  0.2250716E-008  0.4614232E+02  0.7816164E-02  0.1320468E+00
        -11   -1    0    0    0    0  0.00000000000E+00  0.00000000000E+00  0.45593999997E+02  0.45594000000E+02  0.51100000000E-03 0.  1.
         11   -1    0    0    0    0 -0.00000000000E+00 -0.00000000000E+00 -0.45593999997E+02  0.45594000000E+02  0.51100000000E-03 0. -1.
    9900012    2    1    2    0    0 -0.24821303051E+02 -0.34278108399E+02  0.15428147748E+02  0.46142317149E+02  0.99999944179E+01 0.  0.
         12    1    1    2    0    0  0.24821303051E+02  0.34278108399E+02 -0.15428147748E+02  0.45045682851E+02  0.00000000000E+00 0. -1.
         11    1    3    3    0    0 -0.96608143071E+01 -0.73158321183E+01  0.67600889933E+01  0.13876294034E+02  0.51100000000E-03 0. -1.
        -11    1    3    3    0    0 -0.21888440525E-01 -0.11474072639E+01  0.44113616998E+00  0.12294811567E+01  0.51100000000E-03 0.  1.
         12    1    3    3    0    0 -0.15138600303E+02 -0.25814869017E+02  0.82269225851E+01  0.31036541958E+02  0.00000000000E+00 0. -1.
</event>
<event>
 7    1  0.2250716E-008  0.4614232E+02  0.7816164E-02  0.1320468E+00
        -11   -1    0    0    0    0  0.00000000000E+00  0.00000000000E+00  0.45593999997E+02  0.45594000000E+02  0.51100000000E-03 0. -1.
         11   -1    0    0    0    0 -0.00000000000E+00 -0.00000000000E+00 -0.45593999997E+02  0.45594000000E+02  0.51100000000E-03 0.  1.
    9900012    2    1    2    0    0 -0.31697755377E+02 -0.24762849930E+02 -0.20277254715E+02  0.46142317728E+02  0.99999996984E+01 0.  0.
         12    1    1    2    0    0  0.31697755377E+02  0.24762849930E+02  0.20277254715E+02  0.45045682272E+02  0.00000000000E+00 0. -1.
         11    1    3    3    0    0 -0.44354460911E+01 -0.52053448937E+01 -0.58599240753E+01  0.90059706816E+01  0.51100000000E-03 0.  1.
        -11    1    3    3    0    0 -0.26985124772E+02 -0.17610598939E+02 -0.13961261542E+02  0.35117616349E+02  0.51100000000E-03 0. -1.
        -12    1    3    3    0    0 -0.27718451417E+00 -0.19469060976E+01 -0.45606909719E+00  0.20187306975E+01  0.00000000000E+00 0.  1.
</event>
<event>
 7    1  0.2250716E-008  0.4614232E+02  0.7816164E-02  0.1320468E+00
        -11   -1    0    0    0    0  0.00000000000E+00  0.00000000000E+00  0.45593999997E+02  0.45594000000E+02  0.51100000000E-03 0.  1.
         11   -1    0    0    0    0 -0.00000000000E+00 -0.00000000000E+00 -0.45593999997E+02  0.45594000000E+02  0.51100000000E-03 0. -1.
    9900012    2    1    2    0    0  0.39185685727E+02  0.81014189307E+01  0.20687254849E+02  0.46142317990E+02  0.10000002088E+02 0.  0.
         12    1    1    2    0    0 -0.39185685727E+02 -0.81014189307E+01 -0.20687254849E+02  0.45045682010E+02  0.00000000000E+00 0. -1.
         11    1    3    3    0    0  0.34830012439E+01 -0.13506872338E+01  0.31815517823E+00  0.37492501446E+01  0.51100000000E-03 0. -1.
        -11    1    3    3    0    0  0.18635799613E+02  0.28882128095E+01  0.94214156430E+01  0.21080746510E+02  0.51100000000E-03 0.  1.
         12    1    3    3    0    0  0.17066884870E+02  0.65638933550E+01  0.10947684027E+02  0.21312321335E+02  0.00000000000E+00 0. -1.
</event>
<event>
 7    1  0.2250716E-008  0.4614232E+02  0.7816164E-02  0.1320468E+00
        -11   -1    0    0    0    0  0.00000000000E+00  0.00000000000E+00  0.45593999997E+02  0.45594000000E+02  0.51100000000E-03 0.  1.
         11   -1    0    0    0    0 -0.00000000000E+00 -0.00000000000E+00 -0.45593999997E+02  0.45594000000E+02  0.51100000000E-03 0. -1.
    9900012    2    1    2    0    0  0.30303462790E+02 -0.53259659283E+01  0.32900573260E+02  0.46142317732E+02  0.99999997335E+01 0.  0.
         12    1    1    2    0    0 -0.30303462790E+02  0.53259659283E+01 -0.32900573260E+02  0.45045682268E+02  0.00000000000E+00 0. -1.
         11    1    3    3    0    0  0.11982955910E+02 -0.58860530074E+01  0.14152244205E+02  0.19455664179E+02  0.51100000000E-03 0. -1.
        -11    1    3    3    0    0  0.11198432165E+01 -0.68414706844E+00  0.32318519567E+01  0.34881188873E+01  0.51100000000E-03 0.  1.
        -12    1    3    3    0    0  0.17200663663E+02  0.12442341475E+01  0.15516477099E+02  0.23198534666E+02  0.00000000000E+00 0.  1.
</event>
<event>
 7    1  0.2250716E-008  0.4614231E+02  0.7816164E-02  0.1320468E+00
        -11   -1    0    0    0    0  0.00000000000E+00  0.00000000000E+00  0.45593999997E+02  0.45594000000E+02  0.51100000000E-03 0. -1.
         11   -1    0    0    0    0 -0.00000000000E+00 -0.00000000000E+00 -0.45593999997E+02  0.45594000000E+02  0.51100000000E-03 0.  1.
    9900012    2    1    2    0    0 -0.25865757119E+02  0.29971667114E+02  0.21488962955E+02  0.46142314859E+02  0.99999735383E+01 0.  0.
         12    1    1    2    0    0  0.25865757119E+02 -0.29971667114E+02 -0.21488962955E+02  0.45045685141E+02  0.00000000000E+00 0. -1.
         11    1    3    3    0    0 -0.80458873616E+01  0.92729190895E+01  0.73165761007E+01  0.14291802475E+02  0.51100000000E-03 0. -1.
        -11    1    3    3    0    0 -0.74438271971E+01  0.14749520557E+02  0.73689217663E+01  0.18090326925E+02  0.51100000000E-03 0.  1.
         12    1    3    3    0    0 -0.10376042561E+02  0.59492274672E+01  0.68034650876E+01  0.13760185459E+02  0.00000000000E+00 0. -1.
</event>
<event>
 7    1  0.2250716E-008  0.4614232E+02  0.7816164E-02  0.1320468E+00
        -11   -1    0    0    0    0  0.00000000000E+00  0.00000000000E+00  0.45593999997E+02  0.45594000000E+02  0.51100000000E-03 0.  1.
         11   -1    0    0    0    0 -0.00000000000E+00 -0.00000000000E+00 -0.45593999997E+02  0.45594000000E+02  0.51100000000E-03 0. -1.
    9900012    2    1    2    0    0 -0.53667540343E+00 -0.43550362809E+02  0.11497446744E+02  0.46142318709E+02  0.10000008645E+02 0.  0.
         12    1    1    2    0    0  0.53667540343E+00  0.43550362809E+02 -0.11497446744E+02  0.45045681291E+02  0.00000000000E+00 0. -1.
         11    1    3    3    0    0  0.33446059365E+00 -0.11428063381E+01  0.14769412701E+01  0.18971626160E+01  0.51100000000E-03 0. -1.
        -11    1    3    3    0    0  0.15014599995E+01 -0.83967449317E+01  0.46998629584E+01  0.97390153335E+01  0.51100000000E-03 0.  1.
        -12    1    3    3    0    0 -0.23725959965E+01 -0.34010811540E+02  0.53206425154E+01  0.34506140760E+02  0.00000000000E+00 0.  1.
</event>
<event>
 7    1  0.2250716E-008  0.4614232E+02  0.7816164E-02  0.1320468E+00
        -11   -1    0    0    0    0  0.00000000000E+00  0.00000000000E+00  0.45593999997E+02  0.45594000000E+02  0.51100000000E-03 0.  1.
         11   -1    0    0    0    0 -0.00000000000E+00 -0.00000000000E+00 -0.45593999997E+02  0.45594000000E+02  0.51100000000E-03 0. -1.
    9900012    2    1    2    0    0  0.24144138538E+02 -0.10113254669E+02  0.36659183429E+02  0.46142322344E+02  0.10000041792E+02 0.  0.
         12    1    1    2    0    0 -0.24144138538E+02  0.10113254669E+02 -0.36659183429E+02  0.45045677656E+02  0.00000000000E+00 0. -1.
         11    1    3    3    0    0  0.98685083352E+01 -0.63728870343E+01  0.15997303755E+02  0.19847288823E+02  0.51100000000E-03 0. -1.
        -11    1    3    3    0    0  0.14701868129E+02 -0.41900291209E+01  0.18259693253E+02  0.23814232477E+02  0.51100000000E-03 0.  1.
         12    1    3    3    0    0 -0.42623792556E+00  0.44966148617E+00  0.24021864206E+01  0.24808010441E+01  0.00000000000E+00 0. -1.
</event>
<event>
 7    1  0.2250716E-008  0.4614232E+02  0.7816164E-02  0.1320468E+00
        -11   -1    0    0    0    0  0.00000000000E+00  0.00000000000E+00  0.45593999997E+02  0.45594000000E+02  0.51100000000E-03 0.  1.
         11   -1    0    0    0    0 -0.00000000000E+00 -0.00000000000E+00 -0.45593999997E+02  0.45594000000E+02  0.51100000000E-03 0. -1.
    9900012    2    1    2    0    0  0.12288661374E+01  0.39296945098E+02  0.21985301397E+02  0.46142317815E+02  0.10000000488E+02 0.  0.
         12    1    1    2    0    0 -0.12288661374E+01 -0.39296945098E+02 -0.21985301397E+02  0.45045682185E+02  0.00000000000E+00 0. -1.
         11    1    3    3    0    0 -0.17244671068E+01  0.45032680674E+01  0.30295312102E+01  0.56948458894E+01  0.51100000000E-03 0. -1.
        -11    1    3    3    0    0 -0.49730116704E+00  0.84554832798E+01  0.82005048314E+01  0.11789435343E+02  0.51100000000E-03 0.  1.
         12    1    3    3    0    0  0.34506344113E+01  0.26338193751E+02  0.10755265355E+02  0.28658036583E+02  0.00000000000E+00 0. -1.
</event>
<event>
 7    1  0.2250716E-008  0.4614232E+02  0.7816164E-02  0.1320468E+00
        -11   -1    0    0    0    0  0.00000000000E+00  0.00000000000E+00  0.45593999997E+02  0.45594000000E+02  0.51100000000E-03 0. -1.
         11   -1    0    0    0    0 -0.00000000000E+00 -0.00000000000E+00 -0.45593999997E+02  0.45594000000E+02  0.51100000000E-03 0.  1.
    9900012    2    1    2    0    0 -0.56588341640E+01 -0.42488375768E+02 -0.13850242278E+02  0.46142315516E+02  0.99999795244E+01 0.  0.
         12    1    1    2    0    0  0.56588341640E+01  0.42488375768E+02  0.13850242278E+02  0.45045684484E+02  0.00000000000E+00 0. -1.
         11    1    3    3    0    0  0.56669132296E+00 -0.18992587718E+00  0.11055682961E+00  0.60781079954E+00  0.51100000000E-03 0. -1.
        -11    1    3    3    0    0 -0.21807451514E+01 -0.32282410030E+02 -0.86208162789E+01  0.33484744591E+02  0.51100000000E-03 0.  1.
         12    1    3    3    0    0 -0.40447803356E+01 -0.10016039861E+02 -0.53399828288E+01  0.12049760125E+02  0.00000000000E+00 0. -1.
</event>
<event>
 7    1  0.2250716E-008  0.4614232E+02  0.7816164E-02  0.1320468E+00
        -11   -1    0    0    0    0  0.00000000000E+00  0.00000000000E+00  0.45593999997E+02  0.45594000000E+02  0.51100000000E-03 0. -1.
         11   -1    0    0    0    0 -0.00000000000E+00 -0.00000000000E+00 -0.45593999997E+02  0.45594000000E+02  0.51100000000E-03 0.  1.
    9900012    2    1    2    0    0 -0.30838932309E+02  0.26109526779E+02 -0.19908952049E+02  0.46142317563E+02  0.99999981910E+01 0.  0.
         12    1    1    2    0    0  0.30838932309E+02 -0.26109526779E+02  0.19908952049E+02  0.45045682437E+02  0.00000000000E+00 0. -1.
         11    1    3    3    0    0 -0.15072355423E+02  0.16658348862E+02 -0.12408265999E+02  0.25664012745E+02  0.51100000000E-03 0. -1.
        -11    1    3    3    0    0 -0.70190569407E+01  0.29929749795E+01 -0.55403215637E+01  0.94297520039E+01  0.51100000000E-03 0.  1.
        -12    1    3    3    0    0 -0.87475199446E+01  0.64582029372E+01 -0.19603644866E+01  0.11048552814E+02  0.00000000000E+00 0.  1.
</event>
<event>
 7    1  0.2250716E-008  0.4614232E+02  0.7816164E-02  0.1320468E+00
        -11   -1    0    0    0    0  0.00000000000E+00  0.00000000000E+00  0.45593999997E+02  0.45594000000E+02  0.51100000000E-03 0.  1.
         11   -1    0    0    0    0 -0.00000000000E+00 -0.00000000000E+00 -0.45593999997E+02  0.45594000000E+02  0.51100000000E-03 0. -1.
    9900012    2    1    2    0    0  0.24349936323E+02 -0.26783509980E+02  0.26811149852E+02  0.46142316942E+02  0.99999925296E+01 0.  0.
         12    1    1    2    0    0 -0.24349936323E+02  0.26783509980E+02 -0.26811149852E+02  0.45045683058E+02  0.00000000000E+00 0. -1.
         11    1    3    3    0    0  0.29203294130E+01 -0.87625175962E-01  0.13001081216E+01  0.31978560695E+01  0.51100000000E-03 0. -1.
        -11    1    3    3    0    0  0.25933754381E+01 -0.50056725333E+01  0.59061351407E+01  0.81648506560E+01  0.51100000000E-03 0.  1.
         12    1    3    3    0    0  0.18836231472E+02 -0.21690212271E+02  0.19604906589E+02  0.34779610216E+02  0.00000000000E+00 0. -1.
</event>
<event>
 7    1  0.2250716E-008  0.4614232E+02  0.7816164E-02  0.1320468E+00
        -11   -1    0    0    0    0  0.00000000000E+00  0.00000000000E+00  0.45593999997E+02  0.45594000000E+02  0.51100000000E-03 0. -1.
         11   -1    0    0    0    0 -0.00000000000E+00 -0.00000000000E+00 -0.45593999997E+02  0.45594000000E+02  0.51100000000E-03 0.  1.
    9900012    2    1    2    0    0  0.36631075854E+01  0.44412108688E+02 -0.65772152533E+01  0.46142317457E+02  0.99999972225E+01 0.  0.
         12    1    1    2    0    0 -0.36631075854E+01 -0.44412108688E+02  0.65772152533E+01  0.45045682543E+02  0.00000000000E+00 0. -1.
         11    1    3    3    0    0 -0.20710699406E+01  0.10188886735E+02 -0.41839021171E+01  0.11207487710E+02  0.51100000000E-03 0. -1.
        -11    1    3    3    0    0  0.93303786980E-01  0.90919809741E+01 -0.85006382738E+00  0.91321099644E+01  0.51100000000E-03 0.  1.
         12    1    3    3    0    0  0.56408737391E+01  0.25131240979E+02 -0.15432493088E+01  0.25802719782E+02  0.00000000000E+00 0. -1.
</event>
<event>
 7    1  0.2250716E-008  0.4614232E+02  0.7816164E-02  0.1320468E+00
        -11   -1    0    0    0    0  0.00000000000E+00  0.00000000000E+00  0.45593999997E+02  0.45594000000E+02  0.51100000000E-03 0.  1.
         11   -1    0    0    0    0 -0.00000000000E+00 -0.00000000000E+00 -0.45593999997E+02  0.45594000000E+02  0.51100000000E-03 0. -1.
    9900012    2    1    2    0    0 -0.21559990166E+02 -0.34681836246E+02  0.19011853660E+02  0.46142317399E+02  0.99999967017E+01 0.  0.
         12    1    1    2    0    0  0.21559990166E+02  0.34681836246E+02 -0.19011853660E+02  0.45045682601E+02  0.00000000000E+00 0. -1.
         11    1    3    3    0    0 -0.47353795858E+01 -0.84953646944E+01  0.89708657589E+01  0.13231457737E+02  0.51100000000E-03 0. -1.
        -11    1    3    3    0    0 -0.60464843175E+01 -0.11117448519E+02  0.57136553723E+01  0.13885369716E+02  0.51100000000E-03 0.  1.
         12    1    3    3    0    0 -0.10778126263E+02 -0.15069023033E+02  0.43273325287E+01  0.19025489947E+02  0.00000000000E+00 0. -1.
</event>
<event>
 7    1  0.2250716E-008  0.4614232E+02  0.7816164E-02  0.1320468E+00
        -11   -1    0    0    0    0  0.00000000000E+00  0.00000000000E+00  0.45593999997E+02  0.45594000000E+02  0.51100000000E-03 0.  1.
         11   -1    0    0    0    0 -0.00000000000E+00 -0.00000000000E+00 -0.45593999997E+02  0.45594000000E+02  0.51100000000E-03 0. -1.
    9900012    2    1    2    0    0 -0.33969612664E+02  0.44642086650E+01  0.29244651830E+02  0.46142318696E+02  0.10000008521E+02 0.  0.
         12    1    1    2    0    0  0.33969612664E+02 -0.44642086650E+01 -0.29244651830E+02  0.45045681304E+02  0.00000000000E+00 0. -1.
         11    1    3    3    0    0 -0.11899268356E+01  0.90997834752E+00  0.32605349682E+01  0.35881854756E+01  0.51100000000E-03 0. -1.
        -11    1    3    3    0    0 -0.16749225011E+02 -0.53068037392E+00  0.16340268133E+02  0.23405608795E+02  0.51100000000E-03 0.  1.
        -12    1    3    3    0    0 -0.16030460817E+02  0.40849106914E+01  0.96438487292E+01  0.19148524425E+02  0.00000000000E+00 0.  1.
</event>
<event>
 7    1  0.2250716E-008  0.4614232E+02  0.7816164E-02  0.1320468E+00
        -11   -1    0    0    0    0  0.00000000000E+00  0.00000000000E+00  0.45593999997E+02  0.45594000000E+02  0.51100000000E-03 0. -1.
         11   -1    0    0    0    0 -0.00000000000E+00 -0.00000000000E+00 -0.45593999997E+02  0.45594000000E+02  0.51100000000E-03 0.  1.
    9900012    2    1    2    0    0 -0.30995178825E+01 -0.67655889690E+01 -0.44426718059E+02  0.46142317824E+02  0.10000000574E+02 0.  0.
         12    1    1    2    0    0  0.30995178825E+01  0.67655889690E+01  0.44426718059E+02  0.45045682176E+02  0.00000000000E+00 0. -1.
         11    1    3    3    0    0  0.15379615740E+01  0.57922432585E+00 -0.25204596599E+01  0.30089107300E+01  0.51100000000E-03 0. -1.
        -11    1    3    3    0    0 -0.15290067387E+01 -0.65039303075E+01 -0.32826519436E+02  0.33499542528E+02  0.51100000000E-03 0.  1.
        -12    1    3    3    0    0 -0.31084727177E+01 -0.84088298736E+00 -0.90797389636E+01  0.96338645664E+01  0.00000000000E+00 0.  1.
</event>
<event>
 7    1  0.2250716E-008  0.4614232E+02  0.7816164E-02  0.1320468E+00
        -11   -1    0    0    0    0  0.00000000000E+00  0.00000000000E+00  0.45593999997E+02  0.45594000000E+02  0.51100000000E-03 0.  1.
         11   -1    0    0    0    0 -0.00000000000E+00 -0.00000000000E+00 -0.45593999997E+02  0.45594000000E+02  0.51100000000E-03 0. -1.
    9900012    2    1    2    0    0  0.41703647641E+02  0.16218523451E+02 -0.51844597125E+01  0.46142319275E+02  0.10000013803E+02 0.  0.
         12    1    1    2    0    0 -0.41703647641E+02 -0.16218523451E+02  0.51844597125E+01  0.45045680725E+02  0.00000000000E+00 0. -1.
         11    1    3    3    0    0  0.92720507468E+01  0.33068474977E+01 -0.22757513224E+01  0.10103722570E+02  0.51100000000E-03 0. -1.
        -11    1    3    3    0    0  0.29669859719E+02  0.90254811776E+01 -0.14229458013E+01  0.31044881401E+02  0.51100000000E-03 0.  1.
         12    1    3    3    0    0  0.27617371753E+01  0.38861947761E+01 -0.14857625888E+01  0.49937153036E+01  0.00000000000E+00 0. -1.
</event>
<event>
 7    1  0.2250716E-008  0.4614232E+02  0.7816164E-02  0.1320468E+00
        -11   -1    0    0    0    0  0.00000000000E+00  0.00000000000E+00  0.45593999997E+02  0.45594000000E+02  0.51100000000E-03 0. -1.
         11   -1    0    0    0    0 -0.00000000000E+00 -0.00000000000E+00 -0.45593999997E+02  0.45594000000E+02  0.51100000000E-03 0.  1.
    9900012    2    1    2    0    0 -0.25863719767E+02  0.14570078741E+02  0.33880587945E+02  0.46142318363E+02  0.10000005485E+02 0.  0.
         12    1    1    2    0    0  0.25863719767E+02 -0.14570078741E+02 -0.33880587945E+02  0.45045681637E+02  0.00000000000E+00 0. -1.
         11    1    3    3    0    0 -0.25150240953E+01  0.14370293572E+01  0.14456675596E+01  0.32373375677E+01  0.51100000000E-03 0.  1.
        -11    1    3    3    0    0 -0.76716807786E+01  0.89570626602E+01  0.12184011119E+02  0.16956821184E+02  0.51100000000E-03 0. -1.
        -12    1    3    3    0    0 -0.15677014893E+02  0.41759867235E+01  0.20250909266E+02  0.25948159610E+02  0.00000000000E+00 0.  1.
</event>
<event>
 7    1  0.2250716E-008  0.4614232E+02  0.7816164E-02  0.1320468E+00
        -11   -1    0    0    0    0  0.00000000000E+00  0.00000000000E+00  0.45593999997E+02  0.45594000000E+02  0.51100000000E-03 0.  1.
         11   -1    0    0    0    0 -0.00000000000E+00 -0.00000000000E+00 -0.45593999997E+02  0.45594000000E+02  0.51100000000E-03 0. -1.
    9900012    2    1    2    0    0  0.51449905539E+01  0.33739706593E+02  0.29398549679E+02  0.46142318164E+02  0.10000003677E+02 0.  0.
         12    1    1    2    0    0 -0.51449905539E+01 -0.33739706593E+02 -0.29398549679E+02  0.45045681836E+02  0.00000000000E+00 0. -1.
         11    1    3    3    0    0 -0.17263978020E+01  0.24581851759E+01  0.10947471825E+01  0.31971229855E+01  0.51100000000E-03 0. -1.
        -11    1    3    3    0    0  0.59526027639E+01  0.29666941915E+02  0.25440286190E+02  0.39531874278E+02  0.51100000000E-03 0.  1.
        -12    1    3    3    0    0  0.91878559198E+00  0.16145795026E+01  0.28635163062E+01  0.34133209005E+01  0.00000000000E+00 0.  1.
</event>
<event>
 7    1  0.2250716E-008  0.4614232E+02  0.7816164E-02  0.1320468E+00
        -11   -1    0    0    0    0  0.00000000000E+00  0.00000000000E+00  0.45593999997E+02  0.45594000000E+02  0.51100000000E-03 0. -1.
         11   -1    0    0    0    0 -0.00000000000E+00 -0.00000000000E+00 -0.45593999997E+02  0.45594000000E+02  0.51100000000E-03 0.  1.
    9900012    2    1    2    0    0  0.33185127884E+02 -0.28379880051E+02  0.11065397746E+02  0.46142319501E+02  0.10000015862E+02 0.  0.
         12    1    1    2    0    0 -0.33185127884E+02  0.28379880051E+02 -0.11065397746E+02  0.45045680499E+02  0.00000000000E+00 0. -1.
         11    1    3    3    0    0  0.17489768609E+02 -0.13740563611E+02  0.89530021351E+01  0.23976057680E+02  0.51100000000E-03 0.  1.
        -11    1    3    3    0    0  0.20921023726E+01 -0.46178913915E+01  0.13806971587E+01  0.52543446924E+01  0.51100000000E-03 0. -1.
        -12    1    3    3    0    0  0.13603256902E+02 -0.10021425048E+02  0.73169845228E+00  0.16911917129E+02  0.00000000000E+00 0.  1.
</event>
<event>
 7    1  0.2250716E-008  0.4614232E+02  0.7816164E-02  0.1320468E+00
        -11   -1    0    0    0    0  0.00000000000E+00  0.00000000000E+00  0.45593999997E+02  0.45594000000E+02  0.51100000000E-03 0. -1.
         11   -1    0    0    0    0 -0.00000000000E+00 -0.00000000000E+00 -0.45593999997E+02  0.45594000000E+02  0.51100000000E-03 0.  1.
    9900012    2    1    2    0    0  0.37410660335E+02  0.93436208071E+01  0.23286321055E+02  0.46142317579E+02  0.99999983409E+01 0.  0.
         12    1    1    2    0    0 -0.37410660335E+02 -0.93436208071E+01 -0.23286321055E+02  0.45045682421E+02  0.00000000000E+00 0. -1.
         11    1    3    3    0    0  0.17450261175E+02  0.21741676982E+01  0.98809469032E+01  0.20171061752E+02  0.51100000000E-03 0. -1.
        -11    1    3    3    0    0  0.20353147625E+02  0.68227535274E+01  0.12281485990E+02  0.24731265280E+02  0.51100000000E-03 0.  1.
         12    1    3    3    0    0 -0.39274846522E+00  0.34669958149E+00  0.11238881618E+01  0.12399905471E+01  0.00000000000E+00 0. -1.
</event>
<event>
 7    1  0.2250716E-008  0.4614232E+02  0.7816164E-02  0.1320468E+00
        -11   -1    0    0    0    0  0.00000000000E+00  0.00000000000E+00  0.45593999997E+02  0.45594000000E+02  0.51100000000E-03 0.  1.
         11   -1    0    0    0    0 -0.00000000000E+00 -0.00000000000E+00 -0.45593999997E+02  0.45594000000E+02  0.51100000000E-03 0. -1.
    9900012    2    1    2    0    0 -0.25243470439E+02 -0.29015285320E+02  0.23451948853E+02  0.46142317777E+02  0.10000000142E+02 0.  0.
         12    1    1    2    0    0  0.25243470439E+02  0.29015285320E+02 -0.23451948853E+02  0.45045682223E+02  0.00000000000E+00 0. -1.
         11    1    3    3    0    0 -0.25414337074E+00 -0.34054825134E+01  0.21558734330E+01  0.40385257857E+01  0.51100000000E-03 0. -1.
        -11    1    3    3    0    0 -0.12897376220E+02 -0.14580526463E+02  0.81170320211E+01  0.21090762774E+02  0.51100000000E-03 0.  1.
         12    1    3    3    0    0 -0.12091950848E+02 -0.11029276343E+02  0.13179043399E+02  0.21013029217E+02  0.00000000000E+00 0. -1.
</event>
<event>
 7    1  0.2250716E-008  0.4614232E+02  0.7816164E-02  0.1320468E+00
        -11   -1    0    0    0    0  0.00000000000E+00  0.00000000000E+00  0.45593999997E+02  0.45594000000E+02  0.51100000000E-03 0.  1.
         11   -1    0    0    0    0 -0.00000000000E+00 -0.00000000000E+00 -0.45593999997E+02  0.45594000000E+02  0.51100000000E-03 0. -1.
    9900012    2    1    2    0    0  0.40295504162E+02 -0.75000280621E+01  0.18685156920E+02  0.46142321343E+02  0.10000032658E+02 0.  0.
         12    1    1    2    0    0 -0.40295504162E+02  0.75000280621E+01 -0.18685156920E+02  0.45045678657E+02  0.00000000000E+00 0. -1.
         11    1    3    3    0    0  0.95261189623E+01 -0.18336000728E+01  0.78465429885E+01  0.12477069722E+02  0.51100000000E-03 0. -1.
        -11    1    3    3    0    0  0.85583954262E+01  0.11558971129E+01  0.30833888372E+01  0.91700336635E+01  0.51100000000E-03 0.  1.
        -12    1    3    3    0    0  0.22210989773E+02 -0.68223251022E+01  0.77552250944E+01  0.24495217957E+02  0.00000000000E+00 0.  1.
</event>
<event>
 7    1  0.2250716E-008  0.4614232E+02  0.7816164E-02  0.1320468E+00
        -11   -1    0    0    0    0  0.00000000000E+00  0.00000000000E+00  0.45593999997E+02  0.45594000000E+02  0.51100000000E-03 0. -1.
         11   -1    0    0    0    0 -0.00000000000E+00 -0.00000000000E+00 -0.45593999997E+02  0.45594000000E+02  0.51100000000E-03 0.  1.
    9900012    2    1    2    0    0  0.17863300516E+02  0.41319746647E+02 -0.16415743459E+01  0.46142315027E+02  0.99999750720E+01 0.  0.
         12    1    1    2    0    0 -0.17863300516E+02 -0.41319746647E+02  0.16415743459E+01  0.45045684973E+02  0.00000000000E+00 0. -1.
         11    1    3    3    0    0  0.91699338005E+00  0.45914238892E+01  0.17023889859E+01  0.49819854185E+01  0.51100000000E-03 0. -1.
        -11    1    3    3    0    0  0.24923873087E+01  0.16154840747E+01 -0.92970798666E+00  0.31122564955E+01  0.51100000000E-03 0.  1.
        -12    1    3    3    0    0  0.14453919827E+02  0.35112838684E+02 -0.24142553451E+01  0.38048073113E+02  0.00000000000E+00 0.  1.
</event>
<event>
 7    1  0.2250716E-008  0.4614232E+02  0.7816164E-02  0.1320468E+00
        -11   -1    0    0    0    0  0.00000000000E+00  0.00000000000E+00  0.45593999997E+02  0.45594000000E+02  0.51100000000E-03 0.  1.
         11   -1    0    0    0    0 -0.00000000000E+00 -0.00000000000E+00 -0.45593999997E+02  0.45594000000E+02  0.51100000000E-03 0. -1.
    9900012    2    1    2    0    0 -0.11646597486E+02  0.43122340015E+02  0.58252940942E+01  0.46142317714E+02  0.99999995686E+01 0.  0.
         12    1    1    2    0    0  0.11646597486E+02 -0.43122340015E+02 -0.58252940942E+01  0.45045682286E+02  0.00000000000E+00 0. -1.
         11    1    3    3    0    0 -0.49715968909E+00  0.29991055371E+01  0.26442375011E+01  0.40291182662E+01  0.51100000000E-03 0. -1.
        -11    1    3    3    0    0 -0.56020163039E+01  0.13111052373E+02  0.28254733637E+01  0.14534977846E+02  0.51100000000E-03 0.  1.
         12    1    3    3    0    0 -0.55474214932E+01  0.27012182104E+02  0.35558322941E+00  0.27578221602E+02  0.00000000000E+00 0. -1.
</event>
<event>
 7    1  0.2250716E-008  0.4614232E+02  0.7816164E-02  0.1320468E+00
        -11   -1    0    0    0    0  0.00000000000E+00  0.00000000000E+00  0.45593999997E+02  0.45594000000E+02  0.51100000000E-03 0.  1.
         11   -1    0    0    0    0 -0.00000000000E+00 -0.00000000000E+00 -0.45593999997E+02  0.45594000000E+02  0.51100000000E-03 0. -1.
    9900012    2    1    2    0    0 -0.99484370787E+01  0.23399345061E+02  0.37183502367E+02  0.46142316546E+02  0.99999889196E+01 0.  0.
         12    1    1    2    0    0  0.99484370787E+01 -0.23399345061E+02 -0.37183502367E+02  0.45045683454E+02  0.00000000000E+00 0. -1.
         11    1    3    3    0    0 -0.21627194994E+01 -0.35604858760E+00  0.30721373719E+01  0.37738779157E+01  0.51100000000E-03 0.  1.
        -11    1    3    3    0    0 -0.46366371754E+00  0.45746159608E+01  0.63709395417E+01  0.78569056337E+01  0.51100000000E-03 0. -1.
        -12    1    3    3    0    0 -0.73220538618E+01  0.19180777687E+02  0.27740425453E+02  0.34511532997E+02  0.00000000000E+00 0.  1.
</event>
<event>
 7    1  0.2250716E-008  0.4614232E+02  0.7816164E-02  0.1320468E+00
        -11   -1    0    0    0    0  0.00000000000E+00  0.00000000000E+00  0.45593999997E+02  0.45594000000E+02  0.51100000000E-03 0.  1.
         11   -1    0    0    0    0 -0.00000000000E+00 -0.00000000000E+00 -0.45593999997E+02  0.45594000000E+02  0.51100000000E-03 0. -1.
    9900012    2    1    2    0    0  0.92269108762E+01  0.42880974691E+02  0.10256681774E+02  0.46142318788E+02  0.10000009368E+02 0.  0.
         12    1    1    2    0    0 -0.92269108762E+01 -0.42880974691E+02 -0.10256681774E+02  0.45045681212E+02  0.00000000000E+00 0. -1.
         11    1    3    3    0    0  0.31483408197E+00  0.10534651658E+02  0.13188732192E+01  0.10621555107E+02  0.51100000000E-03 0. -1.
        -11    1    3    3    0    0  0.45489181518E+01  0.23613587700E+02  0.33706186977E+01  0.24282818022E+02  0.51100000000E-03 0.  1.
         12    1    3    3    0    0  0.43631586424E+01  0.87327353326E+01  0.55671898574E+01  0.11237945659E+02  0.00000000000E+00 0. -1.
</event>
<event>
 7    1  0.2250716E-008  0.4614232E+02  0.7816164E-02  0.1320468E+00
        -11   -1    0    0    0    0  0.00000000000E+00  0.00000000000E+00  0.45593999997E+02  0.45594000000E+02  0.51100000000E-03 0.  1.
         11   -1    0    0    0    0 -0.00000000000E+00 -0.00000000000E+00 -0.45593999997E+02  0.45594000000E+02  0.51100000000E-03 0. -1.
    9900012    2    1    2    0    0  0.39521833102E+02  0.12783415120E+02 -0.17427633704E+02  0.46142318626E+02  0.10000007889E+02 0.  0.
         12    1    1    2    0    0 -0.39521833102E+02 -0.12783415120E+02  0.17427633704E+02  0.45045681374E+02  0.00000000000E+00 0. -1.
         11    1    3    3    0    0  0.48265417847E+01  0.33958669726E+01 -0.54502727478E+01  0.80332366690E+01  0.51100000000E-03 0. -1.
        -11    1    3    3    0    0  0.68885954222E+01  0.34843531638E+01 -0.32198870835E+01  0.83642774317E+01  0.51100000000E-03 0.  1.
         12    1    3    3    0    0  0.27806695895E+02  0.59031949835E+01 -0.87574738731E+01  0.29744804526E+02  0.00000000000E+00 0. -1.
</event>
<event>
 7    1  0.2250716E-008  0.4614232E+02  0.7816164E-02  0.1320468E+00
        -11   -1    0    0    0    0  0.00000000000E+00  0.00000000000E+00  0.45593999997E+02  0.45594000000E+02  0.51100000000E-03 0.  1.
         11   -1    0    0    0    0 -0.00000000000E+00 -0.00000000000E+00 -0.45593999997E+02  0.45594000000E+02  0.51100000000E-03 0. -1.
    9900012    2    1    2    0    0 -0.13198434415E+02 -0.15124777677E+02  0.40325622847E+02  0.46142318423E+02  0.10000006031E+02 0.  0.
         12    1    1    2    0    0  0.13198434415E+02  0.15124777677E+02 -0.40325622847E+02  0.45045681577E+02  0.00000000000E+00 0. -1.
         11    1    3    3    0    0  0.17925285315E+00 -0.10437155797E+01  0.51722397458E+01  0.52795395676E+01  0.51100000000E-03 0. -1.
        -11    1    3    3    0    0  0.58564291178E+00 -0.90113896912E+00  0.50051586051E+01  0.51192423253E+01  0.51100000000E-03 0.  1.
        -12    1    3    3    0    0 -0.13963330180E+02 -0.13179923128E+02  0.30148224496E+02  0.35743536530E+02  0.00000000000E+00 0.  1.
</event>
<event>
 7    1  0.2250716E-008  0.4614232E+02  0.7816164E-02  0.1320468E+00
        -11   -1    0    0    0    0  0.00000000000E+00  0.00000000000E+00  0.45593999997E+02  0.45594000000E+02  0.51100000000E-03 0.  1.
         11   -1    0    0    0    0 -0.00000000000E+00 -0.00000000000E+00 -0.45593999997E+02  0.45594000000E+02  0.51100000000E-03 0. -1.
    9900012    2    1    2    0    0  0.20567731420E+02 -0.34244366313E+02  0.20818388380E+02  0.46142317691E+02  0.99999993611E+01 0.  0.
         12    1    1    2    0    0 -0.20567731420E+02  0.34244366313E+02 -0.20818388380E+02  0.45045682309E+02  0.00000000000E+00 0. -1.
         11    1    3    3    0    0  0.57523464435E+01 -0.97471622418E+01  0.94397643434E+01  0.14737903938E+02  0.51100000000E-03 0. -1.
        -11    1    3    3    0    0  0.13944585039E+00 -0.35223665467E+01  0.24489849075E+01  0.42923232140E+01  0.51100000000E-03 0.  1.
         12    1    3    3    0    0  0.14675939126E+02 -0.20974837524E+02  0.89296391291E+01  0.27112090539E+02  0.00000000000E+00 0. -1.
</event>
<event>
 7    1  0.2250716E-008  0.4614232E+02  0.7816164E-02  0.1320468E+00
        -11   -1    0    0    0    0  0.00000000000E+00  0.00000000000E+00  0.45593999997E+02  0.45594000000E+02  0.51100000000E-03 0.  1.
         11   -1    0    0    0    0 -0.00000000000E+00 -0.00000000000E+00 -0.45593999997E+02  0.45594000000E+02  0.51100000000E-03 0. -1.
    9900012    2    1    2    0    0 -0.27103457475E+02  0.29897014936E+02  0.20017106199E+02  0.46142318190E+02  0.10000003909E+02 0.  0.
         12    1    1    2    0    0  0.27103457475E+02 -0.29897014936E+02 -0.20017106199E+02  0.45045681810E+02  0.00000000000E+00 0. -1.
         11    1    3    3    0    0 -0.54939432710E+01  0.35696591243E+01  0.70043179173E+01  0.95909513958E+01  0.51100000000E-03 0. -1.
        -11    1    3    3    0    0 -0.15335965724E+02  0.16859198400E+02  0.90492951403E+01  0.24521707897E+02  0.51100000000E-03 0.  1.
        -12    1    3    3    0    0 -0.62735484799E+01  0.94681574116E+01  0.39634931413E+01  0.12029658897E+02  0.00000000000E+00 0.  1.
</event>
<event>
 7    1  0.2250716E-008  0.4614232E+02  0.7816164E-02  0.1320468E+00
        -11   -1    0    0    0    0  0.00000000000E+00  0.00000000000E+00  0.45593999997E+02  0.45594000000E+02  0.51100000000E-03 0. -1.
         11   -1    0    0    0    0 -0.00000000000E+00 -0.00000000000E+00 -0.45593999997E+02  0.45594000000E+02  0.51100000000E-03 0.  1.
    9900012    2    1    2    0    0 -0.36381740082E+02  0.20512124139E+02 -0.16874098442E+02  0.46142318228E+02  0.10000004255E+02 0.  0.
         12    1    1    2    0    0  0.36381740082E+02 -0.20512124139E+02  0.16874098442E+02  0.45045681772E+02  0.00000000000E+00 0. -1.
         11    1    3    3    0    0 -0.66933901881E+01  0.65112627417E+01 -0.73721040560E+01  0.11897307812E+02  0.51100000000E-03 0. -1.
        -11    1    3    3    0    0 -0.16843511863E+02  0.89925801143E+01 -0.49287572034E+01  0.19719610463E+02  0.51100000000E-03 0.  1.
        -12    1    3    3    0    0 -0.12844838030E+02  0.50082812835E+01 -0.45732371827E+01  0.14525399952E+02  0.00000000000E+00 0.  1.
</event>
<event>
 7    1  0.2250716E-008  0.4614232E+02  0.7816164E-02  0.1320468E+00
        -11   -1    0    0    0    0  0.00000000000E+00  0.00000000000E+00  0.45593999997E+02  0.45594000000E+02  0.51100000000E-03 0.  1.
         11   -1    0    0    0    0 -0.00000000000E+00 -0.00000000000E+00 -0.45593999997E+02  0.45594000000E+02  0.51100000000E-03 0. -1.
    9900012    2    1    2    0    0 -0.17727437918E+02 -0.30192527913E+02  0.28341890841E+02  0.46142316818E+02  0.99999913982E+01 0.  0.
         12    1    1    2    0    0  0.17727437918E+02  0.30192527913E+02 -0.28341890841E+02  0.45045683182E+02  0.00000000000E+00 0. -1.
         11    1    3    3    0    0 -0.92021992042E+01 -0.12920798029E+02  0.97728141455E+01  0.18631569673E+02  0.51100000000E-03 0. -1.
        -11    1    3    3    0    0 -0.78333826017E+01 -0.16593274742E+02  0.19031854376E+02  0.26436908497E+02  0.51100000000E-03 0.  1.
        -12    1    3    3    0    0 -0.69185611180E+00 -0.67845514254E+00 -0.46277768041E+00  0.10738386477E+01  0.00000000000E+00 0.  1.
</event>
<event>
 7    1  0.2250716E-008  0.4614232E+02  0.7816164E-02  0.1320468E+00
        -11   -1    0    0    0    0  0.00000000000E+00  0.00000000000E+00  0.45593999997E+02  0.45594000000E+02  0.51100000000E-03 0.  1.
         11   -1    0    0    0    0 -0.00000000000E+00 -0.00000000000E+00 -0.45593999997E+02  0.45594000000E+02  0.51100000000E-03 0. -1.
    9900012    2    1    2    0    0  0.15878775015E+02  0.16369007034E+02  0.38846280761E+02  0.46142318562E+02  0.10000007305E+02 0.  0.
         12    1    1    2    0    0 -0.15878775015E+02 -0.16369007034E+02 -0.38846280761E+02  0.45045681438E+02  0.00000000000E+00 0. -1.
         11    1    3    3    0    0  0.44233585207E+01  0.97471322078E+01  0.18363547819E+02  0.21255412855E+02  0.51100000000E-03 0. -1.
        -11    1    3    3    0    0  0.90591346449E+01  0.66161403198E+01  0.19013371329E+02  0.22075994265E+02  0.51100000000E-03 0.  1.
         12    1    3    3    0    0  0.23962818491E+01  0.57345059200E-02  0.14693616137E+01  0.28109114423E+01  0.00000000000E+00 0. -1.
</event>
<event>
 7    1  0.2250716E-008  0.4614232E+02  0.7816164E-02  0.1320468E+00
        -11   -1    0    0    0    0  0.00000000000E+00  0.00000000000E+00  0.45593999997E+02  0.45594000000E+02  0.51100000000E-03 0.  1.
         11   -1    0    0    0    0 -0.00000000000E+00 -0.00000000000E+00 -0.45593999997E+02  0.45594000000E+02  0.51100000000E-03 0. -1.
    9900012    2    1    2    0    0  0.22270650737E+02  0.83980066902E+01  0.38244020276E+02  0.46142317770E+02  0.10000000085E+02 0.  0.
         12    1    1    2    0    0 -0.22270650737E+02 -0.83980066902E+01 -0.38244020276E+02  0.45045682230E+02  0.00000000000E+00 0. -1.
         11    1    3    3    0    0  0.30258955886E+01  0.12688961587E+00  0.14795964955E+01  0.33706603415E+01  0.51100000000E-03 0. -1.
        -11    1    3    3    0    0  0.15904397902E+01  0.22266513384E+01  0.22782425023E+01  0.35605988358E+01  0.51100000000E-03 0.  1.
        -12    1    3    3    0    0  0.17654315359E+02  0.60444657359E+01  0.34486181279E+02  0.39211058593E+02  0.00000000000E+00 0.  1.
</event>
<event>
 7    1  0.2250716E-008  0.4614232E+02  0.7816164E-02  0.1320468E+00
        -11   -1    0    0    0    0  0.00000000000E+00  0.00000000000E+00  0.45593999997E+02  0.45594000000E+02  0.51100000000E-03 0.  1.
         11   -1    0    0    0    0 -0.00000000000E+00 -0.00000000000E+00 -0.45593999997E+02  0.45594000000E+02  0.51100000000E-03 0. -1.
    9900012    2    1    2    0    0  0.18086876778E+02 -0.32561453123E+02  0.25332382174E+02  0.46142323985E+02  0.10000056753E+02 0.  0.
         12    1    1    2    0    0 -0.18086876778E+02  0.32561453123E+02 -0.25332382174E+02  0.45045676015E+02  0.00000000000E+00 0. -1.
         11    1    3    3    0    0  0.58910689270E+01 -0.83753185602E+01  0.11036550860E+02  0.15055102432E+02  0.51100000000E-03 0. -1.
        -11    1    3    3    0    0  0.47838580556E+01 -0.12484812586E+02  0.96079211429E+01  0.16464142618E+02  0.51100000000E-03 0.  1.
         12    1    3    3    0    0  0.74119497952E+01 -0.11701321976E+02  0.46879101717E+01  0.14623078935E+02  0.00000000000E+00 0. -1.
</event>
<event>
 7    1  0.2250716E-008  0.4614232E+02  0.7816164E-02  0.1320468E+00
        -11   -1    0    0    0    0  0.00000000000E+00  0.00000000000E+00  0.45593999997E+02  0.45594000000E+02  0.51100000000E-03 0.  1.
         11   -1    0    0    0    0 -0.00000000000E+00 -0.00000000000E+00 -0.45593999997E+02  0.45594000000E+02  0.51100000000E-03 0. -1.
    9900012    2    1    2    0    0  0.85044532335E+01  0.31536700499E+02  0.31019740054E+02  0.46142317896E+02  0.10000001233E+02 0.  0.
         12    1    1    2    0    0 -0.85044532335E+01 -0.31536700499E+02 -0.31019740054E+02  0.45045682104E+02  0.00000000000E+00 0. -1.
         11    1    3    3    0    0 -0.17911614325E-01  0.11939178610E+01  0.67726223358E+00  0.13727509166E+01  0.51100000000E-03 0. -1.
        -11    1    3    3    0    0  0.53955200135E+01  0.19832764565E+02  0.13223802282E+02  0.24440113207E+02  0.51100000000E-03 0.  1.
        -12    1    3    3    0    0  0.31268448343E+01  0.10510018073E+02  0.17118675539E+02  0.20329453773E+02  0.00000000000E+00 0.  1.
</event>
<event>
 7    1  0.2250716E-008  0.4614232E+02  0.7816164E-02  0.1320468E+00
        -11   -1    0    0    0    0  0.00000000000E+00  0.00000000000E+00  0.45593999997E+02  0.45594000000E+02  0.51100000000E-03 0.  1.
         11   -1    0    0    0    0 -0.00000000000E+00 -0.00000000000E+00 -0.45593999997E+02  0.45594000000E+02  0.51100000000E-03 0. -1.
    9900012    2    1    2    0    0 -0.72573947130E+00 -0.14191327159E+02  0.42745678738E+02  0.46142317464E+02  0.99999972900E+01 0.  0.
         12    1    1    2    0    0  0.72573947130E+00  0.14191327159E+02 -0.42745678738E+02  0.45045682536E+02  0.00000000000E+00 0. -1.
         11    1    3    3    0    0 -0.28788450543E+01 -0.14419713975E+01  0.65825562920E+01  0.73278290071E+01  0.51100000000E-03 0. -1.
        -11    1    3    3    0    0  0.12741234283E+01 -0.28099093573E-01  0.22908924307E+01  0.26215202573E+01  0.51100000000E-03 0.  1.
        -12    1    3    3    0    0  0.87898215474E+00 -0.12721256668E+02  0.33872230016E+02  0.36192968200E+02  0.00000000000E+00 0.  1.
</event>
<event>
 7    1  0.2250716E-008  0.4614232E+02  0.7816164E-02  0.1320468E+00
        -11   -1    0    0    0    0  0.00000000000E+00  0.00000000000E+00  0.45593999997E+02  0.45594000000E+02  0.51100000000E-03 0.  1.
         11   -1    0    0    0    0 -0.00000000000E+00 -0.00000000000E+00 -0.45593999997E+02  0.45594000000E+02  0.51100000000E-03 0. -1.
    9900012    2    1    2    0    0  0.10433656219E+02  0.43745957816E+02  0.25580253345E+01  0.46142317621E+02  0.99999987242E+01 0.  0.
         12    1    1    2    0    0 -0.10433656219E+02 -0.43745957816E+02 -0.25580253345E+01  0.45045682379E+02  0.00000000000E+00 0. -1.
         11    1    3    3    0    0  0.69497987690E+01  0.32022720634E+02  0.40970189227E+01  0.33023323638E+02  0.51100000000E-03 0. -1.
        -11    1    3    3    0    0  0.25265753828E+01  0.86455685617E+01  0.93537929809E+00  0.90556266272E+01  0.51100000000E-03 0.  1.
         12    1    3    3    0    0  0.95728206757E+00  0.30776686201E+01 -0.24743728863E+01  0.40633673564E+01  0.00000000000E+00 0. -1.
</event>
<event>
 7    1  0.2250716E-008  0.4614232E+02  0.7816164E-02  0.1320468E+00
        -11   -1    0    0    0    0  0.00000000000E+00  0.00000000000E+00  0.45593999997E+02  0.45594000000E+02  0.51100000000E-03 0.  1.
         11   -1    0    0    0    0 -0.00000000000E+00 -0.00000000000E+00 -0.45593999997E+02  0.45594000000E+02  0.51100000000E-03 0. -1.
    9900012    2    1    2    0    0  0.38455096845E+02  0.10127087019E+02  0.21160368450E+02  0.46142316990E+02  0.99999929715E+01 0.  0.
         12    1    1    2    0    0 -0.38455096845E+02 -0.10127087019E+02 -0.21160368450E+02  0.45045683010E+02  0.00000000000E+00 0. -1.
         11    1    3    3    0    0  0.10361377574E+02  0.27016384924E+01  0.15377084029E+01  0.10817649614E+02  0.51100000000E-03 0. -1.
        -11    1    3    3    0    0  0.18087340745E+02  0.30150369305E+01  0.10858751786E+02  0.21310908792E+02  0.51100000000E-03 0.  1.
        -12    1    3    3    0    0  0.10006378525E+02  0.44104115962E+01  0.87639082613E+01  0.14013758584E+02  0.00000000000E+00 0.  1.
</event>
<event>
 7    1  0.2250716E-008  0.4614232E+02  0.7816164E-02  0.1320468E+00
        -11   -1    0    0    0    0  0.00000000000E+00  0.00000000000E+00  0.45593999997E+02  0.45594000000E+02  0.51100000000E-03 0.  1.
         11   -1    0    0    0    0 -0.00000000000E+00 -0.00000000000E+00 -0.45593999997E+02  0.45594000000E+02  0.51100000000E-03 0. -1.
    9900012    2    1    2    0    0 -0.25422178921E+02 -0.29047202319E+02  0.23218234051E+02  0.46142317232E+02  0.99999951718E+01 0.  0.
         12    1    1    2    0    0  0.25422178921E+02  0.29047202319E+02 -0.23218234051E+02  0.45045682768E+02  0.00000000000E+00 0. -1.
         11    1    3    3    0    0 -0.19710348897E+01 -0.42891054281E+01  0.12700889111E+01  0.48882031477E+01  0.51100000000E-03 0. -1.
        -11    1    3    3    0    0 -0.20737910382E+02 -0.24481405159E+02  0.19241494931E+02  0.37411699413E+02  0.51100000000E-03 0.  1.
         12    1    3    3    0    0 -0.27132336489E+01 -0.27669173225E+00  0.27066502091E+01  0.38424146708E+01  0.00000000000E+00 0. -1.
</event>
<event>
 7    1  0.2250716E-008  0.4614232E+02  0.7816164E-02  0.1320468E+00
        -11   -1    0    0    0    0  0.00000000000E+00  0.00000000000E+00  0.45593999997E+02  0.45594000000E+02  0.51100000000E-03 0.  1.
         11   -1    0    0    0    0 -0.00000000000E+00 -0.00000000000E+00 -0.45593999997E+02  0.45594000000E+02  0.51100000000E-03 0. -1.
    9900012    2    1    2    0    0 -0.25607276039E+02 -0.77060696939E+01  0.36249102115E+02  0.46142317628E+02  0.99999987819E+01 0.  0.
         12    1    1    2    0    0  0.25607276039E+02  0.77060696939E+01 -0.36249102115E+02  0.45045682372E+02  0.00000000000E+00 0. -1.
         11    1    3    3    0    0 -0.99239400449E+00  0.29357275408E+00  0.34389476647E+01  0.35912939345E+01  0.51100000000E-03 0.  1.
        -11    1    3    3    0    0 -0.14447854072E+02 -0.71389131379E+01  0.14951100485E+02  0.21982719897E+02  0.51100000000E-03 0. -1.
        -12    1    3    3    0    0 -0.10167027963E+02 -0.86072931008E+00  0.17859053965E+02  0.20568303796E+02  0.00000000000E+00 0.  1.
</event>
<event>
 7    1  0.2250716E-008  0.4614233E+02  0.7816164E-02  0.1320468E+00
        -11   -1    0    0    0    0  0.00000000000E+00  0.00000000000E+00  0.45593999997E+02  0.45594000000E+02  0.51100000000E-03 0.  1.
         11   -1    0    0    0    0 -0.00000000000E+00 -0.00000000000E+00 -0.45593999997E+02  0.45594000000E+02  0.51100000000E-03 0. -1.
    9900012    2    1    2    0    0  0.33184783437E+02  0.16575319261E+02  0.25556636612E+02  0.46142326120E+02  0.10000076224E+02 0.  0.
         12    1    1    2    0    0 -0.33184783437E+02 -0.16575319261E+02 -0.25556636612E+02  0.45045673880E+02  0.00000000000E+00 0. -1.
         11    1    3    3    0    0 -0.31034791363E+00  0.82056687407E-01  0.31549453492E-01  0.32255969460E+00  0.51100000000E-03 0. -1.
        -11    1    3    3    0    0  0.46513369577E+01  0.41184582022E+01  0.70616289332E+01  0.94054897219E+01  0.51100000000E-03 0.  1.
        -12    1    3    3    0    0  0.28843794393E+02  0.12374804371E+02  0.18463458226E+02  0.36414276704E+02  0.00000000000E+00 0.  1.
</event>
<event>
 7    1  0.2250716E-008  0.4614232E+02  0.7816164E-02  0.1320468E+00
        -11   -1    0    0    0    0  0.00000000000E+00  0.00000000000E+00  0.45593999997E+02  0.45594000000E+02  0.51100000000E-03 0.  1.
         11   -1    0    0    0    0 -0.00000000000E+00 -0.00000000000E+00 -0.45593999997E+02  0.45594000000E+02  0.51100000000E-03 0. -1.
    9900012    2    1    2    0    0 -0.67726794826E+01  0.35642438334E+02  0.26699455691E+02  0.46142317277E+02  0.99999955871E+01 0.  0.
         12    1    1    2    0    0  0.67726794826E+01 -0.35642438334E+02 -0.26699455691E+02  0.45045682723E+02  0.00000000000E+00 0. -1.
         11    1    3    3    0    0 -0.56037946323E+01  0.27258978183E+02  0.19954572640E+02  0.34243822441E+02  0.51100000000E-03 0. -1.
        -11    1    3    3    0    0 -0.27124314610E+01  0.37666215879E+01  0.47387861002E+01  0.66333111325E+01  0.51100000000E-03 0.  1.
        -12    1    3    3    0    0  0.15435466107E+01  0.46168385626E+01  0.20060969509E+01  0.52651837033E+01  0.00000000000E+00 0.  1.
</event>
<event>
 7    1  0.2250716E-008  0.4614232E+02  0.7816164E-02  0.1320468E+00
        -11   -1    0    0    0    0  0.00000000000E+00  0.00000000000E+00  0.45593999997E+02  0.45594000000E+02  0.51100000000E-03 0.  1.
         11   -1    0    0    0    0 -0.00000000000E+00 -0.00000000000E+00 -0.45593999997E+02  0.45594000000E+02  0.51100000000E-03 0. -1.
    9900012    2    1    2    0    0  0.36371083160E+02 -0.80818844171E+01  0.25316811013E+02  0.46142318011E+02  0.10000002283E+02 0.  0.
         12    1    1    2    0    0 -0.36371083160E+02  0.80818844171E+01 -0.25316811013E+02  0.45045681989E+02  0.00000000000E+00 0. -1.
         11    1    3    3    0    0  0.48740215963E+01 -0.23125646409E+01  0.72082721850E+01  0.90035120866E+01  0.51100000000E-03 0. -1.
        -11    1    3    3    0    0  0.18425820073E+02 -0.58767704093E+01  0.11317442439E+02  0.22408297112E+02  0.51100000000E-03 0.  1.
        -12    1    3    3    0    0  0.13071241490E+02  0.10745063312E+00  0.67910963881E+01  0.14730508813E+02  0.00000000000E+00 0.  1.
</event>
<event>
 7    1  0.2250716E-008  0.4614232E+02  0.7816164E-02  0.1320468E+00
        -11   -1    0    0    0    0  0.00000000000E+00  0.00000000000E+00  0.45593999997E+02  0.45594000000E+02  0.51100000000E-03 0. -1.
         11   -1    0    0    0    0 -0.00000000000E+00 -0.00000000000E+00 -0.45593999997E+02  0.45594000000E+02  0.51100000000E-03 0.  1.
    9900012    2    1    2    0    0 -0.44114431016E+01  0.44391782838E+02 -0.62467838597E+01  0.46142317383E+02  0.99999965556E+01 0.  0.
         12    1    1    2    0    0  0.44114431016E+01 -0.44391782838E+02  0.62467838597E+01  0.45045682617E+02  0.00000000000E+00 0. -1.
         11    1    3    3    0    0  0.93152894241E+00  0.21761964834E+01 -0.96457911175E+00  0.25561671363E+01  0.51100000000E-03 0. -1.
        -11    1    3    3    0    0 -0.28811142133E+01  0.33462340141E+02 -0.70624637701E+01  0.34320655903E+02  0.51100000000E-03 0.  1.
        -12    1    3    3    0    0 -0.24618578307E+01  0.87532462140E+01  0.17802590221E+01  0.92654943444E+01  0.00000000000E+00 0.  1.
</event>
<event>
 7    1  0.2250716E-008  0.4614232E+02  0.7816164E-02  0.1320468E+00
        -11   -1    0    0    0    0  0.00000000000E+00  0.00000000000E+00  0.45593999997E+02  0.45594000000E+02  0.51100000000E-03 0.  1.
         11   -1    0    0    0    0 -0.00000000000E+00 -0.00000000000E+00 -0.45593999997E+02  0.45594000000E+02  0.51100000000E-03 0. -1.
    9900012    2    1    2    0    0 -0.23716194961E+02  0.52503093983E+01  0.37935336608E+02  0.46142318567E+02  0.10000007352E+02 0.  0.
         12    1    1    2    0    0  0.23716194961E+02 -0.52503093983E+01 -0.37935336608E+02  0.45045681433E+02  0.00000000000E+00 0. -1.
         11    1    3    3    0    0 -0.38749117538E+01 -0.20566199842E+01  0.55865069372E+01  0.71030758746E+01  0.51100000000E-03 0. -1.
        -11    1    3    3    0    0 -0.19408606792E+01  0.27752315805E+01  0.52387113332E+01  0.62380243022E+01  0.51100000000E-03 0.  1.
        -12    1    3    3    0    0 -0.17900422528E+02  0.45316978020E+01  0.27110118337E+02  0.32801218391E+02  0.00000000000E+00 0.  1.
</event>
<event>
 7    1  0.2250716E-008  0.4614232E+02  0.7816164E-02  0.1320468E+00
        -11   -1    0    0    0    0  0.00000000000E+00  0.00000000000E+00  0.45593999997E+02  0.45594000000E+02  0.51100000000E-03 0.  1.
         11   -1    0    0    0    0 -0.00000000000E+00 -0.00000000000E+00 -0.45593999997E+02  0.45594000000E+02  0.51100000000E-03 0. -1.
    9900012    2    1    2    0    0  0.13077791162E+01  0.44939463677E+02 -0.28014048613E+01  0.46142317066E+02  0.99999936627E+01 0.  0.
         12    1    1    2    0    0 -0.13077791162E+01 -0.44939463677E+02  0.28014048613E+01  0.45045682934E+02  0.00000000000E+00 0. -1.
         11    1    3    3    0    0  0.46457790819E+00  0.13545690043E+02  0.36151891317E+01  0.14027513824E+02  0.51100000000E-03 0. -1.
        -11    1    3    3    0    0 -0.38211094896E+00  0.11145946360E+02 -0.29476548119E+01  0.11535458300E+02  0.51100000000E-03 0.  1.
         12    1    3    3    0    0  0.12253121569E+01  0.20247827274E+02 -0.34689391811E+01  0.20579344942E+02  0.00000000000E+00 0. -1.
</event>
<event>
 7    1  0.2250716E-008  0.4614233E+02  0.7816164E-02  0.1320468E+00
        -11   -1    0    0    0    0  0.00000000000E+00  0.00000000000E+00  0.45593999997E+02  0.45594000000E+02  0.51100000000E-03 0.  1.
         11   -1    0    0    0    0 -0.00000000000E+00 -0.00000000000E+00 -0.45593999997E+02  0.45594000000E+02  0.51100000000E-03 0. -1.
    9900012    2    1    2    0    0 -0.23514689593E+02 -0.70316001726E+01  0.37772062710E+02  0.46142325968E+02  0.10000074839E+02 0.  0.
         12    1    1    2    0    0  0.23514689593E+02  0.70316001726E+01 -0.37772062710E+02  0.45045674032E+02  0.00000000000E+00 0. -1.
         11    1    3    3    0    0 -0.16021900240E+02 -0.26916110541E+01  0.19774861520E+02  0.25592795974E+02  0.51100000000E-03 0. -1.
        -11    1    3    3    0    0 -0.67389092517E+01 -0.30319220249E+01  0.17438769978E+02  0.18939803264E+02  0.51100000000E-03 0.  1.
         12    1    3    3    0    0 -0.75388010085E+00 -0.13080670937E+01  0.55843121179E+00  0.16097267303E+01  0.00000000000E+00 0. -1.
</event>
<event>
 7    1  0.2250716E-008  0.4614232E+02  0.7816164E-02  0.1320468E+00
        -11   -1    0    0    0    0  0.00000000000E+00  0.00000000000E+00  0.45593999997E+02  0.45594000000E+02  0.51100000000E-03 0.  1.
         11   -1    0    0    0    0 -0.00000000000E+00 -0.00000000000E+00 -0.45593999997E+02  0.45594000000E+02  0.51100000000E-03 0. -1.
    9900012    2    1    2    0    0  0.23012529963E+02  0.35073025936E+02  0.16414010877E+02  0.46142318334E+02  0.10000005228E+02 0.  0.
         12    1    1    2    0    0 -0.23012529963E+02 -0.35073025936E+02 -0.16414010877E+02  0.45045681666E+02  0.00000000000E+00 0. -1.
         11    1    3    3    0    0  0.39046733732E+01  0.81649492900E+01  0.58135740059E+01  0.10756882171E+02  0.51100000000E-03 0. -1.
        -11    1    3    3    0    0  0.16317953112E+02  0.26216165012E+02  0.98838581589E+01  0.32423040481E+02  0.51100000000E-03 0.  1.
         12    1    3    3    0    0  0.27899034780E+01  0.69191163470E+00  0.71657871237E+00  0.29623956822E+01  0.00000000000E+00 0. -1.
</event>
<event>
 7    1  0.2250716E-008  0.4614232E+02  0.7816164E-02  0.1320468E+00
        -11   -1    0    0    0    0  0.00000000000E+00  0.00000000000E+00  0.45593999997E+02  0.45594000000E+02  0.51100000000E-03 0.  1.
         11   -1    0    0    0    0 -0.00000000000E+00 -0.00000000000E+00 -0.45593999997E+02  0.45594000000E+02  0.51100000000E-03 0. -1.
    9900012    2    1    2    0    0  0.29149597117E+02 -0.23011130401E+02  0.25493184353E+02  0.46142316712E+02  0.99999904345E+01 0.  0.
         12    1    1    2    0    0 -0.29149597117E+02  0.23011130401E+02 -0.25493184353E+02  0.45045683288E+02  0.00000000000E+00 0. -1.
         11    1    3    3    0    0  0.53447666922E+01 -0.88511731417E+00  0.48223070686E+01  0.72529035137E+01  0.51100000000E-03 0. -1.
        -11    1    3    3    0    0  0.95423283448E+01 -0.71485759405E+01  0.49451182339E+01  0.12907841137E+02  0.51100000000E-03 0.  1.
         12    1    3    3    0    0  0.14262502080E+02 -0.14977437147E+02  0.15725759050E+02  0.25981572061E+02  0.00000000000E+00 0. -1.
</event>
<event>
 7    1  0.2250716E-008  0.4614232E+02  0.7816164E-02  0.1320468E+00
        -11   -1    0    0    0    0  0.00000000000E+00  0.00000000000E+00  0.45593999997E+02  0.45594000000E+02  0.51100000000E-03 0. -1.
         11   -1    0    0    0    0 -0.00000000000E+00 -0.00000000000E+00 -0.45593999997E+02  0.45594000000E+02  0.51100000000E-03 0.  1.
    9900012    2    1    2    0    0  0.12742878731E+02  0.41839313914E+02  0.10779814950E+02  0.46142316994E+02  0.99999930036E+01 0.  0.
         12    1    1    2    0    0 -0.12742878731E+02 -0.41839313914E+02 -0.10779814950E+02  0.45045683006E+02  0.00000000000E+00 0. -1.
         11    1    3    3    0    0  0.30456978149E+01  0.41279342074E+01  0.24925647824E+00  0.51359755698E+01  0.51100000000E-03 0. -1.
        -11    1    3    3    0    0 -0.81018934569E+00  0.10125161274E+01  0.10619952221E+01  0.16761353755E+01  0.51100000000E-03 0.  1.
         12    1    3    3    0    0  0.10507370261E+02  0.36698863579E+02  0.94685632499E+01  0.39330206049E+02  0.00000000000E+00 0. -1.
</event>
<event>
 7    1  0.2250716E-008  0.4614232E+02  0.7816164E-02  0.1320468E+00
        -11   -1    0    0    0    0  0.00000000000E+00  0.00000000000E+00  0.45593999997E+02  0.45594000000E+02  0.51100000000E-03 0.  1.
         11   -1    0    0    0    0 -0.00000000000E+00 -0.00000000000E+00 -0.45593999997E+02  0.45594000000E+02  0.51100000000E-03 0. -1.
    9900012    2    1    2    0    0  0.11065785760E+02 -0.16728487280E+02  0.40333852040E+02  0.46142317392E+02  0.99999966362E+01 0.  0.
         12    1    1    2    0    0 -0.11065785760E+02  0.16728487280E+02 -0.40333852040E+02  0.45045682608E+02  0.00000000000E+00 0. -1.
         11    1    3    3    0    0 -0.84594821827E+00 -0.57058311890E+00  0.36929499495E+01  0.38313278474E+01  0.51100000000E-03 0.  1.
        -11    1    3    3    0    0  0.65601997129E+01 -0.58694640775E+01  0.10423431654E+02  0.13643121216E+02  0.51100000000E-03 0. -1.
        -12    1    3    3    0    0  0.53515342659E+01 -0.10288440084E+02  0.26217470437E+02  0.28667868328E+02  0.00000000000E+00 0.  1.
</event>
<event>
 7    1  0.2250716E-008  0.4614232E+02  0.7816164E-02  0.1320468E+00
        -11   -1    0    0    0    0  0.00000000000E+00  0.00000000000E+00  0.45593999997E+02  0.45594000000E+02  0.51100000000E-03 0.  1.
         11   -1    0    0    0    0 -0.00000000000E+00 -0.00000000000E+00 -0.45593999997E+02  0.45594000000E+02  0.51100000000E-03 0. -1.
    9900012    2    1    2    0    0 -0.26235097310E+02 -0.32164092466E+02  0.17501549850E+02  0.46142318495E+02  0.10000006696E+02 0.  0.
         12    1    1    2    0    0  0.26235097310E+02  0.32164092466E+02 -0.17501549850E+02  0.45045681505E+02  0.00000000000E+00 0. -1.
         11    1    3    3    0    0 -0.18233520804E+02 -0.24696593064E+02  0.81912065270E+01  0.31772296966E+02  0.51100000000E-03 0.  1.
        -11    1    3    3    0    0 -0.11064303663E+01 -0.11023235007E+01  0.12961629914E+01  0.20296167168E+01  0.51100000000E-03 0. -1.
        -12    1    3    3    0    0 -0.68951461401E+01 -0.63651759020E+01  0.80141803314E+01  0.12340404813E+02  0.00000000000E+00 0.  1.
</event>
<event>
 7    1  0.2250716E-008  0.4614232E+02  0.7816164E-02  0.1320468E+00
        -11   -1    0    0    0    0  0.00000000000E+00  0.00000000000E+00  0.45593999997E+02  0.45594000000E+02  0.51100000000E-03 0.  1.
         11   -1    0    0    0    0 -0.00000000000E+00 -0.00000000000E+00 -0.45593999997E+02  0.45594000000E+02  0.51100000000E-03 0. -1.
    9900012    2    1    2    0    0  0.17131822130E+02  0.33793435067E+02  0.24364275190E+02  0.46142317758E+02  0.99999999750E+01 0.  0.
         12    1    1    2    0    0 -0.17131822130E+02 -0.33793435067E+02 -0.24364275190E+02  0.45045682242E+02  0.00000000000E+00 0. -1.
         11    1    3    3    0    0  0.36586623530E+01  0.10841951967E+02  0.35995503789E+01  0.11995436460E+02  0.51100000000E-03 0. -1.
        -11    1    3    3    0    0  0.13672229335E+02  0.22426204325E+02  0.19346129508E+02  0.32621116207E+02  0.51100000000E-03 0.  1.
        -12    1    3    3    0    0 -0.19906955787E+00  0.52527877429E+00  0.14185953033E+01  0.15257650914E+01  0.00000000000E+00 0.  1.
</event>
<event>
 7    1  0.2250716E-008  0.4614232E+02  0.7816164E-02  0.1320468E+00
        -11   -1    0    0    0    0  0.00000000000E+00  0.00000000000E+00  0.45593999997E+02  0.45594000000E+02  0.51100000000E-03 0. -1.
         11   -1    0    0    0    0 -0.00000000000E+00 -0.00000000000E+00 -0.45593999997E+02  0.45594000000E+02  0.51100000000E-03 0.  1.
    9900012    2    1    2    0    0  0.36251436785E+02 -0.25098693541E+02 -0.92196766998E+01  0.46142317356E+02  0.99999963039E+01 0.  0.
         12    1    1    2    0    0 -0.36251436785E+02  0.25098693541E+02  0.92196766998E+01  0.45045682644E+02  0.00000000000E+00 0. -1.
         11    1    3    3    0    0  0.12052374300E+02 -0.59350880888E+01 -0.15851028272E+00  0.13435405564E+02  0.51100000000E-03 0. -1.
        -11    1    3    3    0    0  0.20966510672E+02 -0.16723618827E+02 -0.56414223154E+01  0.27406197154E+02  0.51100000000E-03 0.  1.
        -12    1    3    3    0    0  0.32325518122E+01 -0.24399866254E+01 -0.34197441018E+01  0.53007146379E+01  0.00000000000E+00 0.  1.
</event>
<event>
 7    1  0.2250716E-008  0.4614232E+02  0.7816164E-02  0.1320468E+00
        -11   -1    0    0    0    0  0.00000000000E+00  0.00000000000E+00  0.45593999997E+02  0.45594000000E+02  0.51100000000E-03 0.  1.
         11   -1    0    0    0    0 -0.00000000000E+00 -0.00000000000E+00 -0.45593999997E+02  0.45594000000E+02  0.51100000000E-03 0. -1.
    9900012    2    1    2    0    0  0.56493266929E+01 -0.42125099064E+02  0.14922291686E+02  0.46142315940E+02  0.99999833957E+01 0.  0.
         12    1    1    2    0    0 -0.56493266929E+01  0.42125099064E+02 -0.14922291686E+02  0.45045684060E+02  0.00000000000E+00 0. -1.
         11    1    3    3    0    0  0.38258376710E+01 -0.25717707249E+02  0.45910679619E+01  0.26402943119E+02  0.51100000000E-03 0. -1.
        -11    1    3    3    0    0 -0.80063327049E+00 -0.58048475144E+01  0.42435577621E+01  0.72349879780E+01  0.51100000000E-03 0.  1.
         12    1    3    3    0    0  0.26241222923E+01 -0.10602544301E+02  0.60876659619E+01  0.12504384844E+02  0.00000000000E+00 0. -1.
</event>
<event>
 7    1  0.2250716E-008  0.4614232E+02  0.7816164E-02  0.1320468E+00
        -11   -1    0    0    0    0  0.00000000000E+00  0.00000000000E+00  0.45593999997E+02  0.45594000000E+02  0.51100000000E-03 0.  1.
         11   -1    0    0    0    0 -0.00000000000E+00 -0.00000000000E+00 -0.45593999997E+02  0.45594000000E+02  0.51100000000E-03 0. -1.
    9900012    2    1    2    0    0 -0.22488579797E+02 -0.37623492829E+02  0.10385083418E+02  0.46142318836E+02  0.10000009798E+02 0.  0.
         12    1    1    2    0    0  0.22488579797E+02  0.37623492829E+02 -0.10385083418E+02  0.45045681164E+02  0.00000000000E+00 0. -1.
         11    1    3    3    0    0 -0.52659166843E+01 -0.15116018926E+02  0.49518518882E+01  0.16755439239E+02  0.51100000000E-03 0. -1.
        -11    1    3    3    0    0 -0.36002263104E+00 -0.33047396488E+01  0.58580504640E+00  0.33755130357E+01  0.51100000000E-03 0.  1.
        -12    1    3    3    0    0 -0.16862640482E+02 -0.19202734254E+02  0.48474264834E+01  0.26011366561E+02  0.00000000000E+00 0.  1.
</event>
<event>
 7    1  0.2250716E-008  0.4614231E+02  0.7816164E-02  0.1320468E+00
        -11   -1    0    0    0    0  0.00000000000E+00  0.00000000000E+00  0.45593999997E+02  0.45594000000E+02  0.51100000000E-03 0.  1.
         11   -1    0    0    0    0 -0.00000000000E+00 -0.00000000000E+00 -0.45593999997E+02  0.45594000000E+02  0.51100000000E-03 0. -1.
    9900012    2    1    2    0    0 -0.26352089562E+02  0.68939452251E+01  0.35876939154E+02  0.46142313546E+02  0.99999615624E+01 0.  0.
         12    1    1    2    0    0  0.26352089562E+02 -0.68939452251E+01 -0.35876939154E+02  0.45045686454E+02  0.00000000000E+00 0. -1.
         11    1    3    3    0    0 -0.11260247172E+02  0.55296926748E+01  0.17199475526E+02  0.21288321355E+02  0.51100000000E-03 0. -1.
        -11    1    3    3    0    0 -0.15167041116E+02  0.24017044811E+01  0.17419235693E+02  0.23221479130E+02  0.51100000000E-03 0.  1.
         12    1    3    3    0    0  0.75198726181E-01 -0.10374519308E+01  0.12582279352E+01  0.16325130609E+01  0.00000000000E+00 0. -1.
</event>
<event>
 7    1  0.2250716E-008  0.4614232E+02  0.7816164E-02  0.1320468E+00
        -11   -1    0    0    0    0  0.00000000000E+00  0.00000000000E+00  0.45593999997E+02  0.45594000000E+02  0.51100000000E-03 0.  1.
         11   -1    0    0    0    0 -0.00000000000E+00 -0.00000000000E+00 -0.45593999997E+02  0.45594000000E+02  0.51100000000E-03 0. -1.
    9900012    2    1    2    0    0 -0.26650434343E+02  0.14008259490E+02  0.33505766895E+02  0.46142318744E+02  0.10000008961E+02 0.  0.
         12    1    1    2    0    0  0.26650434343E+02 -0.14008259490E+02 -0.33505766895E+02  0.45045681256E+02  0.00000000000E+00 0. -1.
         11    1    3    3    0    0 -0.18963716967E+01  0.28107133487E+01  0.20615956038E+01  0.39681874748E+01  0.51100000000E-03 0. -1.
        -11    1    3    3    0    0 -0.16872290526E+01  0.30419620578E+01  0.55472905683E+01  0.65477254026E+01  0.51100000000E-03 0.  1.
         12    1    3    3    0    0 -0.23066833593E+02  0.81555840834E+01  0.25896880723E+02  0.35626405866E+02  0.00000000000E+00 0. -1.
</event>
<event>
 7    1  0.2250716E-008  0.4614232E+02  0.7816164E-02  0.1320468E+00
        -11   -1    0    0    0    0  0.00000000000E+00  0.00000000000E+00  0.45593999997E+02  0.45594000000E+02  0.51100000000E-03 0.  1.
         11   -1    0    0    0    0 -0.00000000000E+00 -0.00000000000E+00 -0.45593999997E+02  0.45594000000E+02  0.51100000000E-03 0. -1.
    9900012    2    1    2    0    0 -0.18090426314E+02 -0.37177703838E+02  0.17879267108E+02  0.46142318973E+02  0.10000011054E+02 0.  0.
         12    1    1    2    0    0  0.18090426314E+02  0.37177703838E+02 -0.17879267108E+02  0.45045681027E+02  0.00000000000E+00 0. -1.
         11    1    3    3    0    0 -0.45728271057E+01 -0.14353432050E+02  0.39744913197E+01  0.15579741361E+02  0.51100000000E-03 0. -1.
        -11    1    3    3    0    0 -0.10637839933E+02 -0.20632680779E+02  0.10112300908E+02  0.25320540762E+02  0.51100000000E-03 0.  1.
         12    1    3    3    0    0 -0.28797592746E+01 -0.21915910090E+01  0.37924748795E+01  0.52420368505E+01  0.00000000000E+00 0. -1.
</event>
<event>
 7    1  0.2250716E-008  0.4614232E+02  0.7816164E-02  0.1320468E+00
        -11   -1    0    0    0    0  0.00000000000E+00  0.00000000000E+00  0.45593999997E+02  0.45594000000E+02  0.51100000000E-03 0. -1.
         11   -1    0    0    0    0 -0.00000000000E+00 -0.00000000000E+00 -0.45593999997E+02  0.45594000000E+02  0.51100000000E-03 0.  1.
    9900012    2    1    2    0    0  0.44543318481E+01 -0.39183734685E+02 -0.21769412897E+02  0.46142317921E+02  0.10000001459E+02 0.  0.
         12    1    1    2    0    0 -0.44543318481E+01  0.39183734685E+02  0.21769412897E+02  0.45045682079E+02  0.00000000000E+00 0. -1.
         11    1    3    3    0    0 -0.26093495653E+00 -0.11748745770E+01 -0.10196981651E+00  0.12078143184E+01  0.51100000000E-03 0. -1.
        -11    1    3    3    0    0  0.55729924804E+01 -0.27134759224E+02 -0.19330738750E+02  0.33779148364E+02  0.51100000000E-03 0.  1.
        -12    1    3    3    0    0 -0.85772567579E+00 -0.10874100884E+02 -0.23367043308E+01  0.11155355238E+02  0.00000000000E+00 0.  1.
</event>
<event>
 7    1  0.2250716E-008  0.4614232E+02  0.7816164E-02  0.1320468E+00
        -11   -1    0    0    0    0  0.00000000000E+00  0.00000000000E+00  0.45593999997E+02  0.45594000000E+02  0.51100000000E-03 0.  1.
         11   -1    0    0    0    0 -0.00000000000E+00 -0.00000000000E+00 -0.45593999997E+02  0.45594000000E+02  0.51100000000E-03 0. -1.
    9900012    2    1    2    0    0 -0.17835006208E+02 -0.41362903485E+02 -0.36921826031E+00  0.46142317041E+02  0.99999934298E+01 0.  0.
         12    1    1    2    0    0  0.17835006208E+02  0.41362903485E+02  0.36921826031E+00  0.45045682959E+02  0.00000000000E+00 0. -1.
         11    1    3    3    0    0 -0.10315543982E+02 -0.19687434611E+02 -0.37437589359E+01  0.22539326974E+02  0.51100000000E-03 0. -1.
        -11    1    3    3    0    0 -0.55323305317E+01 -0.93732047403E+01  0.11558037595E+01  0.10945297200E+02  0.51100000000E-03 0.  1.
         12    1    3    3    0    0 -0.19871316939E+01 -0.12302264134E+02  0.22187369162E+01  0.12657692866E+02  0.00000000000E+00 0. -1.
</event>
<event>
 7    1  0.2250716E-008  0.4614232E+02  0.7816164E-02  0.1320468E+00
        -11   -1    0    0    0    0  0.00000000000E+00  0.00000000000E+00  0.45593999997E+02  0.45594000000E+02  0.51100000000E-03 0.  1.
         11   -1    0    0    0    0 -0.00000000000E+00 -0.00000000000E+00 -0.45593999997E+02  0.45594000000E+02  0.51100000000E-03 0. -1.
    9900012    2    1    2    0    0  0.40044945039E+02 -0.36907598275E+01  0.20295177209E+02  0.46142317085E+02  0.99999938363E+01 0.  0.
         12    1    1    2    0    0 -0.40044945039E+02  0.36907598275E+01 -0.20295177209E+02  0.45045682915E+02  0.00000000000E+00 0. -1.
         11    1    3    3    0    0  0.12227089178E+02 -0.37041252114E+00  0.32583797830E+01  0.12659224079E+02  0.51100000000E-03 0. -1.
        -11    1    3    3    0    0  0.88979656021E+01  0.19329181039E+01  0.66014463729E+01  0.11246735470E+02  0.51100000000E-03 0.  1.
         12    1    3    3    0    0  0.18919890259E+02 -0.52532654103E+01  0.10435351053E+02  0.22236357537E+02  0.00000000000E+00 0. -1.
</event>
<event>
 7    1  0.2250716E-008  0.4614232E+02  0.7816164E-02  0.1320468E+00
        -11   -1    0    0    0    0  0.00000000000E+00  0.00000000000E+00  0.45593999997E+02  0.45594000000E+02  0.51100000000E-03 0. -1.
         11   -1    0    0    0    0 -0.00000000000E+00 -0.00000000000E+00 -0.45593999997E+02  0.45594000000E+02  0.51100000000E-03 0.  1.
    9900012    2    1    2    0    0  0.43059374086E+02  0.38748625222E+01  0.12648682104E+02  0.46142318574E+02  0.10000007409E+02 0.  0.
         12    1    1    2    0    0 -0.43059374086E+02 -0.38748625222E+01 -0.12648682104E+02  0.45045681426E+02  0.00000000000E+00 0. -1.
         11    1    3    3    0    0  0.13185693726E+02  0.10533096875E+00 -0.33719582817E+00  0.13190425124E+02  0.51100000000E-03 0. -1.
        -11    1    3    3    0    0  0.14569459926E+02  0.20372662188E+00  0.61890449090E+01  0.15830822601E+02  0.51100000000E-03 0.  1.
         12    1    3    3    0    0  0.15304220434E+02  0.35658049316E+01  0.67968330228E+01  0.17121070849E+02  0.00000000000E+00 0. -1.
</event>
<event>
 7    1  0.2250716E-008  0.4614232E+02  0.7816164E-02  0.1320468E+00
        -11   -1    0    0    0    0  0.00000000000E+00  0.00000000000E+00  0.45593999997E+02  0.45594000000E+02  0.51100000000E-03 0. -1.
         11   -1    0    0    0    0 -0.00000000000E+00 -0.00000000000E+00 -0.45593999997E+02  0.45594000000E+02  0.51100000000E-03 0.  1.
    9900012    2    1    2    0    0 -0.11802536627E+02 -0.35974119207E+02 -0.24406482327E+02  0.46142317597E+02  0.99999985069E+01 0.  0.
         12    1    1    2    0    0  0.11802536627E+02  0.35974119207E+02  0.24406482327E+02  0.45045682403E+02  0.00000000000E+00 0. -1.
         11    1    3    3    0    0 -0.55124280097E+01 -0.89909058987E+01 -0.71079066409E+01  0.12717923908E+02  0.51100000000E-03 0. -1.
        -11    1    3    3    0    0 -0.25718665961E+01 -0.44268527090E+01 -0.61132823051E+01  0.79739415284E+01  0.51100000000E-03 0.  1.
         12    1    3    3    0    0 -0.37182420217E+01 -0.22556360599E+02 -0.11185293381E+02  0.25450452161E+02  0.00000000000E+00 0. -1.
</event>
<event>
 7    1  0.2250716E-008  0.4614232E+02  0.7816164E-02  0.1320468E+00
        -11   -1    0    0    0    0  0.00000000000E+00  0.00000000000E+00  0.45593999997E+02  0.45594000000E+02  0.51100000000E-03 0.  1.
         11   -1    0    0    0    0 -0.00000000000E+00 -0.00000000000E+00 -0.45593999997E+02  0.45594000000E+02  0.51100000000E-03 0. -1.
    9900012    2    1    2    0    0  0.29742014197E+02  0.24937209105E+02  0.22861794828E+02  0.46142317974E+02  0.10000001941E+02 0.  0.
         12    1    1    2    0    0 -0.29742014197E+02 -0.24937209105E+02 -0.22861794828E+02  0.45045682026E+02  0.00000000000E+00 0. -1.
         11    1    3    3    0    0  0.26695649575E+01  0.72775954141E+00 -0.95405683768E-01  0.27686302602E+01  0.51100000000E-03 0. -1.
        -11    1    3    3    0    0  0.71436339802E+01  0.55818404599E+01  0.29129167806E+01  0.95222651609E+01  0.51100000000E-03 0.  1.
        -12    1    3    3    0    0  0.19928815259E+02  0.18627609103E+02  0.20044283731E+02  0.33851422553E+02  0.00000000000E+00 0.  1.
</event>
<event>
 7    1  0.2250716E-008  0.4614232E+02  0.7816164E-02  0.1320468E+00
        -11   -1    0    0    0    0  0.00000000000E+00  0.00000000000E+00  0.45593999997E+02  0.45594000000E+02  0.51100000000E-03 0.  1.
         11   -1    0    0    0    0 -0.00000000000E+00 -0.00000000000E+00 -0.45593999997E+02  0.45594000000E+02  0.51100000000E-03 0. -1.
    9900012    2    1    2    0    0 -0.46444447605E+01  0.68198832777E+01  0.44283539021E+02  0.46142317596E+02  0.99999984924E+01 0.  0.
         12    1    1    2    0    0  0.46444447605E+01 -0.68198832777E+01 -0.44283539021E+02  0.45045682404E+02  0.00000000000E+00 0. -1.
         11    1    3    3    0    0  0.26462061418E+00  0.16025623945E+01  0.11314554516E+01  0.19795004415E+01  0.51100000000E-03 0. -1.
        -11    1    3    3    0    0 -0.33482280789E+00  0.10988793019E+01  0.24387276206E+02  0.24414317173E+02  0.51100000000E-03 0.  1.
         12    1    3    3    0    0 -0.45742425668E+01  0.41184415812E+01  0.18764807363E+02  0.19748499981E+02  0.00000000000E+00 0. -1.
</event>
<event>
 7    1  0.2250716E-008  0.4614232E+02  0.7816164E-02  0.1320468E+00
        -11   -1    0    0    0    0  0.00000000000E+00  0.00000000000E+00  0.45593999997E+02  0.45594000000E+02  0.51100000000E-03 0. -1.
         11   -1    0    0    0    0 -0.00000000000E+00 -0.00000000000E+00 -0.45593999997E+02  0.45594000000E+02  0.51100000000E-03 0.  1.
    9900012    2    1    2    0    0  0.35324806668E+02 -0.11051829306E+01 -0.27929374552E+02  0.46142319205E+02  0.10000013166E+02 0.  0.
         12    1    1    2    0    0 -0.35324806668E+02  0.11051829306E+01  0.27929374552E+02  0.45045680795E+02  0.00000000000E+00 0. -1.
         11    1    3    3    0    0  0.88905749154E+00  0.42284090831E+00 -0.90522525919E-02  0.98453027450E+00  0.51100000000E-03 0. -1.
        -11    1    3    3    0    0  0.55251574333E+01 -0.14295339117E-01 -0.97947344033E+00  0.56113222596E+01  0.51100000000E-03 0.  1.
        -12    1    3    3    0    0  0.28910591743E+02 -0.15137284998E+01 -0.26940848859E+02  0.39546466671E+02  0.00000000000E+00 0.  1.
</event>
<event>
 7    1  0.2250716E-008  0.4614232E+02  0.7816164E-02  0.1320468E+00
        -11   -1    0    0    0    0  0.00000000000E+00  0.00000000000E+00  0.45593999997E+02  0.45594000000E+02  0.51100000000E-03 0.  1.
         11   -1    0    0    0    0 -0.00000000000E+00 -0.00000000000E+00 -0.45593999997E+02  0.45594000000E+02  0.51100000000E-03 0. -1.
    9900012    2    1    2    0    0 -0.16476102325E+02 -0.15604473237E+02  0.38912104820E+02  0.46142318361E+02  0.10000005472E+02 0.  0.
         12    1    1    2    0    0  0.16476102325E+02  0.15604473237E+02 -0.38912104820E+02  0.45045681639E+02  0.00000000000E+00 0. -1.
         11    1    3    3    0    0 -0.96806183791E+01 -0.83566515972E+01  0.21223910335E+02  0.24779071175E+02  0.51100000000E-03 0. -1.
        -11    1    3    3    0    0 -0.81419506487E+01 -0.59719894753E+01  0.15440686710E+02  0.18449141579E+02  0.51100000000E-03 0.  1.
         12    1    3    3    0    0  0.13464667031E+01 -0.12758321644E+01  0.22475077742E+01  0.29141056071E+01  0.00000000000E+00 0. -1.
</event>
<event>
 7    1  0.2250716E-008  0.4614232E+02  0.7816164E-02  0.1320468E+00
        -11   -1    0    0    0    0  0.00000000000E+00  0.00000000000E+00  0.45593999997E+02  0.45594000000E+02  0.51100000000E-03 0.  1.
         11   -1    0    0    0    0 -0.00000000000E+00 -0.00000000000E+00 -0.45593999997E+02  0.45594000000E+02  0.51100000000E-03 0. -1.
    9900012    2    1    2    0    0 -0.31595275529E+02  0.23792991800E+02  0.21557958281E+02  0.46142318078E+02  0.10000002891E+02 0.  0.
         12    1    1    2    0    0  0.31595275529E+02 -0.23792991800E+02 -0.21557958281E+02  0.45045681922E+02  0.00000000000E+00 0. -1.
         11    1    3    3    0    0 -0.19877479342E+02  0.16121665561E+02  0.15634881873E+02  0.29991195656E+02  0.51100000000E-03 0. -1.
        -11    1    3    3    0    0 -0.95691431389E+01  0.58374503722E+01  0.68994122504E+01  0.13162302873E+02  0.51100000000E-03 0.  1.
         12    1    3    3    0    0 -0.21486530488E+01  0.18338758665E+01 -0.97633584249E+00  0.29888195488E+01  0.00000000000E+00 0. -1.
</event>
<event>
 7    1  0.2250716E-008  0.4614232E+02  0.7816164E-02  0.1320468E+00
        -11   -1    0    0    0    0  0.00000000000E+00  0.00000000000E+00  0.45593999997E+02  0.45594000000E+02  0.51100000000E-03 0.  1.
         11   -1    0    0    0    0 -0.00000000000E+00 -0.00000000000E+00 -0.45593999997E+02  0.45594000000E+02  0.51100000000E-03 0. -1.
    9900012    2    1    2    0    0 -0.15516119082E+02  0.16694961835E+02  0.38854110431E+02  0.46142316528E+02  0.99999887536E+01 0.  0.
         12    1    1    2    0    0  0.15516119082E+02 -0.16694961835E+02 -0.38854110431E+02  0.45045683472E+02  0.00000000000E+00 0. -1.
         11    1    3    3    0    0 -0.21100786859E+00  0.29514553894E+01  0.24140175018E+01  0.38187817424E+01  0.51100000000E-03 0. -1.
        -11    1    3    3    0    0 -0.11215550571E+02  0.12667393223E+02  0.25578273368E+02  0.30667564207E+02  0.51100000000E-03 0.  1.
        -12    1    3    3    0    0 -0.40895606427E+01  0.10761132229E+01  0.10861819562E+02  0.11655970578E+02  0.00000000000E+00 0.  1.
</event>
<event>
 7    1  0.2250716E-008  0.4614232E+02  0.7816164E-02  0.1320468E+00
        -11   -1    0    0    0    0  0.00000000000E+00  0.00000000000E+00  0.45593999997E+02  0.45594000000E+02  0.51100000000E-03 0. -1.
         11   -1    0    0    0    0 -0.00000000000E+00 -0.00000000000E+00 -0.45593999997E+02  0.45594000000E+02  0.51100000000E-03 0.  1.
    9900012    2    1    2    0    0  0.35539222139E+02  0.16804464262E+02 -0.21992888605E+02  0.46142317870E+02  0.10000000989E+02 0.  0.
         12    1    1    2    0    0 -0.35539222139E+02 -0.16804464262E+02  0.21992888605E+02  0.45045682130E+02  0.00000000000E+00 0. -1.
         11    1    3    3    0    0  0.15005081502E+01 -0.30086820142E+00 -0.18486967314E+01  0.23999429679E+01  0.51100000000E-03 0. -1.
        -11    1    3    3    0    0  0.47856350080E+01  0.42359504573E+01 -0.94636570067E+00  0.64607419858E+01  0.51100000000E-03 0.  1.
        -12    1    3    3    0    0  0.29253078981E+02  0.12869382006E+02 -0.19197826173E+02  0.37281632916E+02  0.00000000000E+00 0.  1.
</event>
<event>
 7    1  0.2250716E-008  0.4614232E+02  0.7816164E-02  0.1320468E+00
        -11   -1    0    0    0    0  0.00000000000E+00  0.00000000000E+00  0.45593999997E+02  0.45594000000E+02  0.51100000000E-03 0.  1.
         11   -1    0    0    0    0 -0.00000000000E+00 -0.00000000000E+00 -0.45593999997E+02  0.45594000000E+02  0.51100000000E-03 0. -1.
    9900012    2    1    2    0    0  0.14877742012E+02  0.39928965281E+02  0.14609722981E+02  0.46142317838E+02  0.10000000704E+02 0.  0.
         12    1    1    2    0    0 -0.14877742012E+02 -0.39928965281E+02 -0.14609722981E+02  0.45045682162E+02  0.00000000000E+00 0. -1.
         11    1    3    3    0    0  0.27513824267E+00  0.17780007956E+01  0.39872097047E+00  0.18428148456E+01  0.51100000000E-03 0. -1.
        -11    1    3    3    0    0  0.30677484354E+01  0.14087804771E+02  0.81539644207E+00  0.14440990110E+02  0.51100000000E-03 0.  1.
         12    1    3    3    0    0  0.11534855334E+02  0.24063159714E+02  0.13395605568E+02  0.29858512883E+02  0.00000000000E+00 0. -1.
</event>
<event>
 7    1  0.2250716E-008  0.4614232E+02  0.7816164E-02  0.1320468E+00
        -11   -1    0    0    0    0  0.00000000000E+00  0.00000000000E+00  0.45593999997E+02  0.45594000000E+02  0.51100000000E-03 0. -1.
         11   -1    0    0    0    0 -0.00000000000E+00 -0.00000000000E+00 -0.45593999997E+02  0.45594000000E+02  0.51100000000E-03 0.  1.
    9900012    2    1    2    0    0  0.68570049701E+01 -0.44328671286E+02 -0.41308553375E+01  0.46142316733E+02  0.99999906280E+01 0.  0.
         12    1    1    2    0    0 -0.68570049701E+01  0.44328671286E+02  0.41308553375E+01  0.45045683267E+02  0.00000000000E+00 0. -1.
         11    1    3    3    0    0  0.24475653578E+01 -0.75439160694E+01  0.11987953026E+01  0.80211193908E+01  0.51100000000E-03 0. -1.
        -11    1    3    3    0    0  0.47203883330E+01 -0.37040776152E+02 -0.52175470727E+01  0.37703102812E+02  0.51100000000E-03 0.  1.
         12    1    3    3    0    0 -0.31094872061E+00  0.25602093555E+00 -0.11210356744E+00  0.41809453013E+00  0.00000000000E+00 0. -1.
</event>
<event>
 7    1  0.2250716E-008  0.4614232E+02  0.7816164E-02  0.1320468E+00
        -11   -1    0    0    0    0  0.00000000000E+00  0.00000000000E+00  0.45593999997E+02  0.45594000000E+02  0.51100000000E-03 0.  1.
         11   -1    0    0    0    0 -0.00000000000E+00 -0.00000000000E+00 -0.45593999997E+02  0.45594000000E+02  0.51100000000E-03 0. -1.
    9900012    2    1    2    0    0 -0.25253471092E+01 -0.24592077411E+01  0.44907553561E+02  0.46142318213E+02  0.10000004125E+02 0.  0.
         12    1    1    2    0    0  0.25253471092E+01  0.24592077411E+01 -0.44907553561E+02  0.45045681787E+02  0.00000000000E+00 0. -1.
         11    1    3    3    0    0  0.22531184989E+00  0.19257427093E+01  0.82929067241E+01  0.85165458143E+01  0.51100000000E-03 0. -1.
        -11    1    3    3    0    0  0.12688538793E+01 -0.39678298254E+01  0.12526853932E+02  0.13201353468E+02  0.51100000000E-03 0.  1.
         12    1    3    3    0    0 -0.40195128383E+01 -0.41712062499E+00  0.24087792905E+02  0.24424418931E+02  0.00000000000E+00 0. -1.
</event>
<event>
 7    1  0.2250716E-008  0.4614232E+02  0.7816164E-02  0.1320468E+00
        -11   -1    0    0    0    0  0.00000000000E+00  0.00000000000E+00  0.45593999997E+02  0.45594000000E+02  0.51100000000E-03 0.  1.
         11   -1    0    0    0    0 -0.00000000000E+00 -0.00000000000E+00 -0.45593999997E+02  0.45594000000E+02  0.51100000000E-03 0. -1.
    9900012    2    1    2    0    0 -0.43236437101E+02  0.10620161612E+02 -0.68509914494E+01  0.46142318634E+02  0.10000007960E+02 0.  0.
         12    1    1    2    0    0  0.43236437101E+02 -0.10620161612E+02  0.68509914494E+01  0.45045681366E+02  0.00000000000E+00 0. -1.
         11    1    3    3    0    0 -0.32909047481E+01  0.26440623017E+00 -0.26873520355E+01  0.42569738006E+01  0.51100000000E-03 0. -1.
        -11    1    3    3    0    0 -0.26004386413E+02  0.39364054437E+01 -0.18726481938E+01  0.26367218512E+02  0.51100000000E-03 0.  1.
        -12    1    3    3    0    0 -0.13941145940E+02  0.64193499383E+01 -0.22909912200E+01  0.15518126321E+02  0.00000000000E+00 0.  1.
</event>
<event>
 7    1  0.2250716E-008  0.4614231E+02  0.7816164E-02  0.1320468E+00
        -11   -1    0    0    0    0  0.00000000000E+00  0.00000000000E+00  0.45593999997E+02  0.45594000000E+02  0.51100000000E-03 0.  1.
         11   -1    0    0    0    0 -0.00000000000E+00 -0.00000000000E+00 -0.45593999997E+02  0.45594000000E+02  0.51100000000E-03 0. -1.
    9900012    2    1    2    0    0 -0.65940188261E+01 -0.33145697157E+01  0.44436993281E+02  0.46142313985E+02  0.99999655676E+01 0.  0.
         12    1    1    2    0    0  0.65940188261E+01  0.33145697157E+01 -0.44436993281E+02  0.45045686015E+02  0.00000000000E+00 0. -1.
         11    1    3    3    0    0 -0.28498172810E+01 -0.43991018649E+01  0.17477532913E+02  0.18246580850E+02  0.51100000000E-03 0. -1.
        -11    1    3    3    0    0  0.10905836087E+01  0.74191917979E+00  0.13958208989E+02  0.14020392831E+02  0.51100000000E-03 0.  1.
        -12    1    3    3    0    0 -0.48347851537E+01  0.34261296947E+00  0.13001251379E+02  0.13875340304E+02  0.00000000000E+00 0.  1.
</event>
<event>
 7    1  0.2250716E-008  0.4614232E+02  0.7816164E-02  0.1320468E+00
        -11   -1    0    0    0    0  0.00000000000E+00  0.00000000000E+00  0.45593999997E+02  0.45594000000E+02  0.51100000000E-03 0.  1.
         11   -1    0    0    0    0 -0.00000000000E+00 -0.00000000000E+00 -0.45593999997E+02  0.45594000000E+02  0.51100000000E-03 0. -1.
    9900012    2    1    2    0    0 -0.28571647750E+02 -0.31948636460E+02  0.13858536073E+02  0.46142318199E+02  0.10000003997E+02 0.  0.
         12    1    1    2    0    0  0.28571647750E+02  0.31948636460E+02 -0.13858536073E+02  0.45045681801E+02  0.00000000000E+00 0. -1.
         11    1    3    3    0    0 -0.60140435776E+01 -0.43630014334E+01  0.32218956100E+00  0.74369555623E+01  0.51100000000E-03 0. -1.
        -11    1    3    3    0    0 -0.21759320392E+02 -0.23225689209E+02  0.11727700026E+02  0.33918131011E+02  0.51100000000E-03 0.  1.
         12    1    3    3    0    0 -0.79828378044E+00 -0.43599458176E+01  0.18086464860E+01  0.47872316256E+01  0.00000000000E+00 0. -1.
</event>
<event>
 7    1  0.2250716E-008  0.4614232E+02  0.7816164E-02  0.1320468E+00
        -11   -1    0    0    0    0  0.00000000000E+00  0.00000000000E+00  0.45593999997E+02  0.45594000000E+02  0.51100000000E-03 0.  1.
         11   -1    0    0    0    0 -0.00000000000E+00 -0.00000000000E+00 -0.45593999997E+02  0.45594000000E+02  0.51100000000E-03 0. -1.
    9900012    2    1    2    0    0  0.43728151792E+01 -0.66497703257E+01  0.44337032319E+02  0.46142318822E+02  0.10000009673E+02 0.  0.
         12    1    1    2    0    0 -0.43728151792E+01  0.66497703257E+01 -0.44337032319E+02  0.45045681178E+02  0.00000000000E+00 0. -1.
         11    1    3    3    0    0  0.33121685149E+01 -0.13917002661E+01  0.76746039137E+01  0.84738913962E+01  0.51100000000E-03 0. -1.
        -11    1    3    3    0    0 -0.22142275594E+01 -0.33075900093E+01  0.10487670770E+02  0.11217584133E+02  0.51100000000E-03 0.  1.
        -12    1    3    3    0    0  0.32748742237E+01 -0.19504800503E+01  0.26174757635E+02  0.26450843292E+02  0.00000000000E+00 0.  1.
</event>
<event>
 7    1  0.2250716E-008  0.4614231E+02  0.7816164E-02  0.1320468E+00
        -11   -1    0    0    0    0  0.00000000000E+00  0.00000000000E+00  0.45593999997E+02  0.45594000000E+02  0.51100000000E-03 0.  1.
         11   -1    0    0    0    0 -0.00000000000E+00 -0.00000000000E+00 -0.45593999997E+02  0.45594000000E+02  0.51100000000E-03 0. -1.
    9900012    2    1    2    0    0 -0.37571250771E+02  0.15310810861E+01  0.24802634332E+02  0.46142314706E+02  0.99999721406E+01 0.  0.
         12    1    1    2    0    0  0.37571250771E+02 -0.15310810861E+01 -0.24802634332E+02  0.45045685294E+02  0.00000000000E+00 0. -1.
         11    1    3    3    0    0 -0.45092322977E+01 -0.21643670557E+01  0.40277637353E+01  0.64218799144E+01  0.51100000000E-03 0. -1.
        -11    1    3    3    0    0 -0.16588132214E+02 -0.68732763810E+00  0.12434316297E+02  0.20742487114E+02  0.51100000000E-03 0.  1.
        -12    1    3    3    0    0 -0.16473886260E+02  0.43827757799E+01  0.83405542990E+01  0.18977947678E+02  0.00000000000E+00 0.  1.
</event>
<event>
 7    1  0.3391268E-008  0.4614232E+02  0.7816164E-02  0.1320468E+00
        -11   -1    0    0    0    0  0.00000000000E+00  0.00000000000E+00  0.45593999997E+02  0.45594000000E+02  0.51100000000E-03 0. -1.
         11   -1    0    0    0    0 -0.00000000000E+00 -0.00000000000E+00 -0.45593999997E+02  0.45594000000E+02  0.51100000000E-03 0.  1.
    9900012    2    1    2    0    0 -0.41857861020E+02 -0.16492832055E+02  0.22404093638E+01  0.46142317938E+02  0.10000001611E+02 0.  0.
         12    1    1    2    0    0  0.41857861020E+02  0.16492832055E+02 -0.22404093638E+01  0.45045682062E+02  0.00000000000E+00 0. -1.
         11    1    3    3    0    0 -0.16301674227E+01 -0.26991122476E+01  0.84189476887E+00  0.32636543650E+01  0.51100000000E-03 0. -1.
        -11    1    3    3    0    0 -0.92998128595E+01 -0.53512029902E+01 -0.68676212921E+00  0.10751443398E+02  0.51100000000E-03 0.  1.
        -12    1    3    3    0    0 -0.30927880737E+02 -0.84425168172E+01  0.20852767242E+01  0.32127220174E+02  0.00000000000E+00 0.  1.
</event>
<event>
 7    1  0.2250716E-008  0.4614232E+02  0.7816164E-02  0.1320468E+00
        -11   -1    0    0    0    0  0.00000000000E+00  0.00000000000E+00  0.45593999997E+02  0.45594000000E+02  0.51100000000E-03 0. -1.
         11   -1    0    0    0    0 -0.00000000000E+00 -0.00000000000E+00 -0.45593999997E+02  0.45594000000E+02  0.51100000000E-03 0.  1.
    9900012    2    1    2    0    0 -0.37585690349E+02  0.22566608203E+02 -0.10352658830E+02  0.46142317968E+02  0.10000001891E+02 0.  0.
         12    1    1    2    0    0  0.37585690349E+02 -0.22566608203E+02  0.10352658830E+02  0.45045682032E+02  0.00000000000E+00 0. -1.
         11    1    3    3    0    0 -0.69078754279E+01  0.74757304559E+01 -0.53148958157E+01  0.11482743861E+02  0.51100000000E-03 0. -1.
        -11    1    3    3    0    0 -0.21569198206E+02  0.11680345310E+02 -0.28835635189E+01  0.24697686463E+02  0.51100000000E-03 0.  1.
         12    1    3    3    0    0 -0.91086167153E+01  0.34105324374E+01 -0.21541994957E+01  0.99618876444E+01  0.00000000000E+00 0. -1.
</event>
<event>
 7    1  0.2250716E-008  0.4614232E+02  0.7816164E-02  0.1320468E+00
        -11   -1    0    0    0    0  0.00000000000E+00  0.00000000000E+00  0.45593999997E+02  0.45594000000E+02  0.51100000000E-03 0.  1.
         11   -1    0    0    0    0 -0.00000000000E+00 -0.00000000000E+00 -0.45593999997E+02  0.45594000000E+02  0.51100000000E-03 0. -1.
    9900012    2    1    2    0    0  0.18384667220E+02  0.34035790268E+02  0.23079913854E+02  0.46142318392E+02  0.10000005753E+02 0.  0.
         12    1    1    2    0    0 -0.18384667220E+02 -0.34035790268E+02 -0.23079913854E+02  0.45045681608E+02  0.00000000000E+00 0. -1.
         11    1    3    3    0    0  0.79581983094E+01  0.12125892050E+02  0.88969487708E+01  0.17015459913E+02  0.51100000000E-03 0. -1.
        -11    1    3    3    0    0  0.78989552675E+01  0.10947041737E+02  0.43439934209E+01  0.14181025923E+02  0.51100000000E-03 0.  1.
         12    1    3    3    0    0  0.25275136436E+01  0.10962856481E+02  0.98389716625E+01  0.14945832557E+02  0.00000000000E+00 0. -1.
</event>
<event>
 7    1  0.2250716E-008  0.4614232E+02  0.7816164E-02  0.1320468E+00
        -11   -1    0    0    0    0  0.00000000000E+00  0.00000000000E+00  0.45593999997E+02  0.45594000000E+02  0.51100000000E-03 0.  1.
         11   -1    0    0    0    0 -0.00000000000E+00 -0.00000000000E+00 -0.45593999997E+02  0.45594000000E+02  0.51100000000E-03 0. -1.
    9900012    2    1    2    0    0  0.17505847752E+02  0.64424391152E+01  0.41001874574E+02  0.46142318233E+02  0.10000004304E+02 0.  0.
         12    1    1    2    0    0 -0.17505847752E+02 -0.64424391152E+01 -0.41001874574E+02  0.45045681767E+02  0.00000000000E+00 0. -1.
         11    1    3    3    0    0  0.16590989485E+01  0.14241887386E+01  0.86209741959E+00  0.23503478691E+01  0.51100000000E-03 0. -1.
        -11    1    3    3    0    0  0.24113319382E+01  0.43112325222E-01  0.11715246669E+02  0.11960910716E+02  0.51100000000E-03 0.  1.
        -12    1    3    3    0    0  0.13435416865E+02  0.49751380514E+01  0.28424530486E+02  0.31831059648E+02  0.00000000000E+00 0.  1.
</event>
<event>
 7    1  0.2250716E-008  0.4614232E+02  0.7816164E-02  0.1320468E+00
        -11   -1    0    0    0    0  0.00000000000E+00  0.00000000000E+00  0.45593999997E+02  0.45594000000E+02  0.51100000000E-03 0.  1.
         11   -1    0    0    0    0 -0.00000000000E+00 -0.00000000000E+00 -0.45593999997E+02  0.45594000000E+02  0.51100000000E-03 0. -1.
    9900012    2    1    2    0    0  0.83139764084E+01  0.40981782043E+02 -0.16747681201E+02  0.46142317756E+02  0.99999999556E+01 0.  0.
         12    1    1    2    0    0 -0.83139764084E+01 -0.40981782043E+02  0.16747681201E+02  0.45045682244E+02  0.00000000000E+00 0. -1.
         11    1    3    3    0    0  0.45262505982E+01  0.33084820070E+02 -0.12624830043E+02  0.35699840299E+02  0.51100000000E-03 0. -1.
        -11    1    3    3    0    0  0.12266029274E+01  0.65633540532E+01 -0.32497019322E+01  0.74258153814E+01  0.51100000000E-03 0.  1.
         12    1    3    3    0    0  0.25611228829E+01  0.13336079207E+01 -0.87314922644E+00  0.30166620757E+01  0.00000000000E+00 0. -1.
</event>
<event>
 7    1  0.2250716E-008  0.4614232E+02  0.7816164E-02  0.1320468E+00
        -11   -1    0    0    0    0  0.00000000000E+00  0.00000000000E+00  0.45593999997E+02  0.45594000000E+02  0.51100000000E-03 0.  1.
         11   -1    0    0    0    0 -0.00000000000E+00 -0.00000000000E+00 -0.45593999997E+02  0.45594000000E+02  0.51100000000E-03 0. -1.
    9900012    2    1    2    0    0 -0.58362008801E+01  0.21972540158E+02  0.38887784087E+02  0.46142317488E+02  0.99999975136E+01 0.  0.
         12    1    1    2    0    0  0.58362008801E+01 -0.21972540158E+02 -0.38887784087E+02  0.45045682512E+02  0.00000000000E+00 0. -1.
         11    1    3    3    0    0 -0.23713927661E+01  0.98512499791E+00  0.18840510803E+01  0.31849055947E+01  0.51100000000E-03 0. -1.
        -11    1    3    3    0    0 -0.19950375118E+01  0.81569526138E+01  0.10256484270E+02  0.13255622220E+02  0.51100000000E-03 0.  1.
         12    1    3    3    0    0 -0.14697706022E+01  0.12830462546E+02  0.26747248738E+02  0.29701789673E+02  0.00000000000E+00 0. -1.
</event>
<event>
 7    1  0.2250716E-008  0.4614232E+02  0.7816164E-02  0.1320468E+00
        -11   -1    0    0    0    0  0.00000000000E+00  0.00000000000E+00  0.45593999997E+02  0.45594000000E+02  0.51100000000E-03 0.  1.
         11   -1    0    0    0    0 -0.00000000000E+00 -0.00000000000E+00 -0.45593999997E+02  0.45594000000E+02  0.51100000000E-03 0. -1.
    9900012    2    1    2    0    0  0.20960324954E+02 -0.29804634834E+02  0.26485128211E+02  0.46142317675E+02  0.99999992127E+01 0.  0.
         12    1    1    2    0    0 -0.20960324954E+02  0.29804634834E+02 -0.26485128211E+02  0.45045682325E+02  0.00000000000E+00 0. -1.
         11    1    3    3    0    0  0.26339409348E+00  0.14546134029E+00  0.11617128133E+01  0.12000468206E+01  0.51100000000E-03 0. -1.
        -11    1    3    3    0    0  0.67327313794E+01 -0.52500988852E+01  0.38870130092E+01  0.93809424114E+01  0.51100000000E-03 0.  1.
        -12    1    3    3    0    0  0.13964199481E+02 -0.24699997289E+02  0.21436402389E+02  0.35561328443E+02  0.00000000000E+00 0.  1.
</event>
<event>
 7    1  0.2250716E-008  0.4614231E+02  0.7816164E-02  0.1320468E+00
        -11   -1    0    0    0    0  0.00000000000E+00  0.00000000000E+00  0.45593999997E+02  0.45594000000E+02  0.51100000000E-03 0.  1.
         11   -1    0    0    0    0 -0.00000000000E+00 -0.00000000000E+00 -0.45593999997E+02  0.45594000000E+02  0.51100000000E-03 0. -1.
    9900012    2    1    2    0    0 -0.15602647243E+01  0.61115839008E+01  0.44601891128E+02  0.46142305689E+02  0.99998899125E+01 0.  0.
         12    1    1    2    0    0  0.15602647243E+01 -0.61115839008E+01 -0.44601891128E+02  0.45045694311E+02  0.00000000000E+00 0. -1.
         11    1    3    3    0    0  0.15553639183E+01 -0.38927892438E-01  0.19721542124E+02  0.19782818209E+02  0.51100000000E-03 0. -1.
        -11    1    3    3    0    0 -0.32700570662E+01  0.13859487144E+01  0.14628893319E+02  0.15053858211E+02  0.51100000000E-03 0.  1.
         12    1    3    3    0    0  0.15442842359E+00  0.47645630788E+01  0.10251455685E+02  0.11305629268E+02  0.00000000000E+00 0. -1.
</event>
<event>
 7    1  0.2250716E-008  0.4614232E+02  0.7816164E-02  0.1320468E+00
        -11   -1    0    0    0    0  0.00000000000E+00  0.00000000000E+00  0.45593999997E+02  0.45594000000E+02  0.51100000000E-03 0. -1.
         11   -1    0    0    0    0 -0.00000000000E+00 -0.00000000000E+00 -0.45593999997E+02  0.45594000000E+02  0.51100000000E-03 0.  1.
    9900012    2    1    2    0    0  0.11763525172E+01 -0.44575984089E+02  0.63805385332E+01  0.46142318357E+02  0.10000005432E+02 0.  0.
         12    1    1    2    0    0 -0.11763525172E+01  0.44575984089E+02 -0.63805385332E+01  0.45045681643E+02  0.00000000000E+00 0. -1.
         11    1    3    3    0    0  0.69538208865E+00 -0.21912495811E+02  0.78648319361E+01  0.23291556636E+02  0.51100000000E-03 0.  1.
        -11    1    3    3    0    0 -0.49169204885E+00 -0.40358153631E+01 -0.10212802357E+01  0.41919661612E+01  0.51100000000E-03 0. -1.
        -12    1    3    3    0    0  0.97266247741E+00 -0.18627672915E+02 -0.46301316715E+00  0.18658795559E+02  0.00000000000E+00 0.  1.
</event>
<event>
 7    1  0.2250716E-008  0.4614231E+02  0.7816164E-02  0.1320468E+00
        -11   -1    0    0    0    0  0.00000000000E+00  0.00000000000E+00  0.45593999997E+02  0.45594000000E+02  0.51100000000E-03 0.  1.
         11   -1    0    0    0    0 -0.00000000000E+00 -0.00000000000E+00 -0.45593999997E+02  0.45594000000E+02  0.51100000000E-03 0. -1.
    9900012    2    1    2    0    0 -0.37574049069E+02 -0.24830116138E+02  0.87746168760E+00  0.46142314636E+02  0.99999715034E+01 0.  0.
         12    1    1    2    0    0  0.37574049069E+02  0.24830116138E+02 -0.87746168760E+00  0.45045685364E+02  0.00000000000E+00 0. -1.
         11    1    3    3    0    0 -0.70731863955E+01 -0.63494343566E+01 -0.30522434654E+01  0.99830592940E+01  0.51100000000E-03 0. -1.
        -11    1    3    3    0    0 -0.15835361656E+02 -0.11143937988E+02  0.39431609680E+01  0.19760934981E+02  0.51100000000E-03 0.  1.
         12    1    3    3    0    0 -0.14665501018E+02 -0.73367437937E+01 -0.13455815051E-01  0.16398320361E+02  0.00000000000E+00 0. -1.
</event>
<event>
 7    1  0.2250716E-008  0.4614232E+02  0.7816164E-02  0.1320468E+00
        -11   -1    0    0    0    0  0.00000000000E+00  0.00000000000E+00  0.45593999997E+02  0.45594000000E+02  0.51100000000E-03 0.  1.
         11   -1    0    0    0    0 -0.00000000000E+00 -0.00000000000E+00 -0.45593999997E+02  0.45594000000E+02  0.51100000000E-03 0. -1.
    9900012    2    1    2    0    0 -0.29517836941E+02  0.27176340324E+02  0.20475777005E+02  0.46142316355E+02  0.99999871779E+01 0.  0.
         12    1    1    2    0    0  0.29517836941E+02 -0.27176340324E+02 -0.20475777005E+02  0.45045683645E+02  0.00000000000E+00 0. -1.
         11    1    3    3    0    0 -0.54003388262E-01  0.10867887312E+01  0.18288080813E+01  0.21280426150E+01  0.51100000000E-03 0. -1.
        -11    1    3    3    0    0 -0.42776375790E+01  0.15130695672E+01  0.99573113239E+00  0.46453249102E+01  0.51100000000E-03 0.  1.
        -12    1    3    3    0    0 -0.25186195973E+02  0.24576482026E+02  0.17651237792E+02  0.39368948830E+02  0.00000000000E+00 0.  1.
</event>
<event>
 7    1  0.2250716E-008  0.4614232E+02  0.7816164E-02  0.1320468E+00
        -11   -1    0    0    0    0  0.00000000000E+00  0.00000000000E+00  0.45593999997E+02  0.45594000000E+02  0.51100000000E-03 0.  1.
         11   -1    0    0    0    0 -0.00000000000E+00 -0.00000000000E+00 -0.45593999997E+02  0.45594000000E+02  0.51100000000E-03 0. -1.
    9900012    2    1    2    0    0  0.33003361680E+02  0.27949415802E+02  0.12598481529E+02  0.46142318046E+02  0.10000002598E+02 0.  0.
         12    1    1    2    0    0 -0.33003361680E+02 -0.27949415802E+02 -0.12598481529E+02  0.45045681954E+02  0.00000000000E+00 0. -1.
         11    1    3    3    0    0  0.11748315099E+02  0.86220380228E+01 -0.61503353841E-01  0.14572790750E+02  0.51100000000E-03 0. -1.
        -11    1    3    3    0    0  0.81568405699E+01  0.93316293693E+01  0.63491769436E+01  0.13925710140E+02  0.51100000000E-03 0.  1.
        -12    1    3    3    0    0  0.13098206011E+02  0.99957484099E+01  0.63108079397E+01  0.17643817156E+02  0.00000000000E+00 0.  1.
</event>
<event>
 7    1  0.2250716E-008  0.4614232E+02  0.7816164E-02  0.1320468E+00
        -11   -1    0    0    0    0  0.00000000000E+00  0.00000000000E+00  0.45593999997E+02  0.45594000000E+02  0.51100000000E-03 0.  1.
         11   -1    0    0    0    0 -0.00000000000E+00 -0.00000000000E+00 -0.45593999997E+02  0.45594000000E+02  0.51100000000E-03 0. -1.
    9900012    2    1    2    0    0 -0.35957471510E+02  0.39895760799E+01  0.26837604802E+02  0.46142317563E+02  0.99999981932E+01 0.  0.
         12    1    1    2    0    0  0.35957471510E+02 -0.39895760799E+01 -0.26837604802E+02  0.45045682437E+02  0.00000000000E+00 0. -1.
         11    1    3    3    0    0 -0.15511078342E+01  0.13955665661E+01  0.18963944194E+01  0.28195484761E+01  0.51100000000E-03 0. -1.
        -11    1    3    3    0    0 -0.10677107308E+02  0.37531825693E+01  0.10970217504E+02  0.15761747118E+02  0.51100000000E-03 0.  1.
         12    1    3    3    0    0 -0.23729256368E+02 -0.11591730555E+01  0.13970992879E+02  0.27561021969E+02  0.00000000000E+00 0. -1.
</event>
<event>
 7    1  0.2250716E-008  0.4614232E+02  0.7816164E-02  0.1320468E+00
        -11   -1    0    0    0    0  0.00000000000E+00  0.00000000000E+00  0.45593999997E+02  0.45594000000E+02  0.51100000000E-03 0. -1.
         11   -1    0    0    0    0 -0.00000000000E+00 -0.00000000000E+00 -0.45593999997E+02  0.45594000000E+02  0.51100000000E-03 0.  1.
    9900012    2    1    2    0    0 -0.32574914097E+01 -0.34229846258E+02  0.29100172953E+02  0.46142315512E+02  0.99999794898E+01 0.  0.
         12    1    1    2    0    0  0.32574914097E+01  0.34229846258E+02 -0.29100172953E+02  0.45045684488E+02  0.00000000000E+00 0. -1.
         11    1    3    3    0    0 -0.27670843045E+01 -0.38440249861E+01  0.71505463043E+01  0.85769223124E+01  0.51100000000E-03 0. -1.
        -11    1    3    3    0    0 -0.13438996160E+01 -0.11286537018E+02  0.80367386852E+01  0.13920529911E+02  0.51100000000E-03 0.  1.
         12    1    3    3    0    0  0.85349251073E+00 -0.19099284254E+02  0.13912887963E+02  0.23644863289E+02  0.00000000000E+00 0. -1.
</event>
<event>
 7    1  0.2250716E-008  0.4614232E+02  0.7816164E-02  0.1320468E+00
        -11   -1    0    0    0    0  0.00000000000E+00  0.00000000000E+00  0.45593999997E+02  0.45594000000E+02  0.51100000000E-03 0.  1.
         11   -1    0    0    0    0 -0.00000000000E+00 -0.00000000000E+00 -0.45593999997E+02  0.45594000000E+02  0.51100000000E-03 0. -1.
    9900012    2    1    2    0    0 -0.37237973841E+02 -0.19696563887E+02  0.15952815379E+02  0.46142316042E+02  0.99999843235E+01 0.  0.
         12    1    1    2    0    0  0.37237973841E+02  0.19696563887E+02 -0.15952815379E+02  0.45045683958E+02  0.00000000000E+00 0. -1.
         11    1    3    3    0    0 -0.11174599603E+02 -0.41166216558E+01  0.36567347486E+01  0.12457526217E+02  0.51100000000E-03 0.  1.
        -11    1    3    3    0    0 -0.32487996185E+01 -0.22288293755E+01 -0.10434327279E+01  0.40756755839E+01  0.51100000000E-03 0. -1.
        -12    1    3    3    0    0 -0.22814574619E+02 -0.13351112855E+02  0.13339513358E+02  0.29609114241E+02  0.00000000000E+00 0.  1.
</event>
<event>
 7    1  0.2250716E-008  0.4614232E+02  0.7816164E-02  0.1320468E+00
        -11   -1    0    0    0    0  0.00000000000E+00  0.00000000000E+00  0.45593999997E+02  0.45594000000E+02  0.51100000000E-03 0.  1.
         11   -1    0    0    0    0 -0.00000000000E+00 -0.00000000000E+00 -0.45593999997E+02  0.45594000000E+02  0.51100000000E-03 0. -1.
    9900012    2    1    2    0    0 -0.39668885463E+02  0.64218232972E+01  0.20353210882E+02  0.46142317836E+02  0.10000000686E+02 0.  0.
         12    1    1    2    0    0  0.39668885463E+02 -0.64218232972E+01 -0.20353210882E+02  0.45045682164E+02  0.00000000000E+00 0. -1.
         11    1    3    3    0    0 -0.18757163460E+02  0.41745884878E+01  0.13253992766E+02  0.23343664978E+02  0.51100000000E-03 0. -1.
        -11    1    3    3    0    0 -0.12371175316E+02 -0.52995660826E+00  0.59720759369E+01  0.13747455182E+02  0.51100000000E-03 0.  1.
         12    1    3    3    0    0 -0.85405466874E+01  0.27771914176E+01  0.11271421791E+01  0.90511976766E+01  0.00000000000E+00 0. -1.
</event>
<event>
 7    1  0.2250716E-008  0.4614230E+02  0.7816164E-02  0.1320468E+00
        -11   -1    0    0    0    0  0.00000000000E+00  0.00000000000E+00  0.45593999997E+02  0.45594000000E+02  0.51100000000E-03 0.  1.
         11   -1    0    0    0    0 -0.00000000000E+00 -0.00000000000E+00 -0.45593999997E+02  0.45594000000E+02  0.51100000000E-03 0. -1.
    9900012    2    1    2    0    0  0.26464919723E+02 -0.22410869753E+02  0.28748489715E+02  0.46142304092E+02  0.99998753488E+01 0.  0.
         12    1    1    2    0    0 -0.26464919723E+02  0.22410869753E+02 -0.28748489715E+02  0.45045695908E+02  0.00000000000E+00 0. -1.
         11    1    3    3    0    0  0.70778764557E+01 -0.79503249550E+01  0.10545366132E+02  0.14983616023E+02  0.51100000000E-03 0. -1.
        -11    1    3    3    0    0  0.10380358865E+02 -0.33531733987E+01  0.66585793446E+01  0.12780152627E+02  0.51100000000E-03 0.  1.
        -12    1    3    3    0    0  0.90066844017E+01 -0.11107371399E+02  0.11544544238E+02  0.18378535442E+02  0.00000000000E+00 0.  1.
</event>
<event>
 7    1  0.2250716E-008  0.4614232E+02  0.7816164E-02  0.1320468E+00
        -11   -1    0    0    0    0  0.00000000000E+00  0.00000000000E+00  0.45593999997E+02  0.45594000000E+02  0.51100000000E-03 0.  1.
         11   -1    0    0    0    0 -0.00000000000E+00 -0.00000000000E+00 -0.45593999997E+02  0.45594000000E+02  0.51100000000E-03 0. -1.
    9900012    2    1    2    0    0  0.45926221289E+01  0.12039676628E+00  0.44810789248E+02  0.46142317560E+02  0.99999981681E+01 0.  0.
         12    1    1    2    0    0 -0.45926221289E+01 -0.12039676628E+00 -0.44810789248E+02  0.45045682440E+02  0.00000000000E+00 0. -1.
         11    1    3    3    0    0  0.71007498467E+00  0.10437328179E+01  0.12904611132E+01  0.18052353932E+01  0.51100000000E-03 0. -1.
        -11    1    3    3    0    0 -0.18980415995E+00 -0.66918613395E+00  0.73925564763E-01  0.69950050125E+00  0.51100000000E-03 0.  1.
        -12    1    3    3    0    0  0.40723513042E+01 -0.25414991765E+00  0.43446402570E+02  0.43637581666E+02  0.00000000000E+00 0.  1.
</event>
<event>
 7    1  0.2250716E-008  0.4614232E+02  0.7816164E-02  0.1320468E+00
        -11   -1    0    0    0    0  0.00000000000E+00  0.00000000000E+00  0.45593999997E+02  0.45594000000E+02  0.51100000000E-03 0.  1.
         11   -1    0    0    0    0 -0.00000000000E+00 -0.00000000000E+00 -0.45593999997E+02  0.45594000000E+02  0.51100000000E-03 0. -1.
    9900012    2    1    2    0    0 -0.28485009646E+01  0.43442151982E+02  0.11566287920E+02  0.46142317157E+02  0.99999944878E+01 0.  0.
         12    1    1    2    0    0  0.28485009646E+01 -0.43442151982E+02 -0.11566287920E+02  0.45045682843E+02  0.00000000000E+00 0. -1.
         11    1    3    3    0    0 -0.18219472100E+01  0.36769867418E+02  0.89386983552E+01  0.37884600699E+02  0.51100000000E-03 0.  1.
        -11    1    3    3    0    0 -0.24284762995E+01  0.39380419477E+01  0.83813371996E+00  0.47019293819E+01  0.51100000000E-03 0. -1.
        -12    1    3    3    0    0  0.14019225449E+01  0.27342426167E+01  0.17894558452E+01  0.35557870761E+01  0.00000000000E+00 0.  1.
</event>
<event>
 7    1  0.2250716E-008  0.4614232E+02  0.7816164E-02  0.1320468E+00
        -11   -1    0    0    0    0  0.00000000000E+00  0.00000000000E+00  0.45593999997E+02  0.45594000000E+02  0.51100000000E-03 0.  1.
         11   -1    0    0    0    0 -0.00000000000E+00 -0.00000000000E+00 -0.45593999997E+02  0.45594000000E+02  0.51100000000E-03 0. -1.
    9900012    2    1    2    0    0 -0.31357183273E+02 -0.23776028392E+02  0.21921246812E+02  0.46142317291E+02  0.99999957145E+01 0.  0.
         12    1    1    2    0    0  0.31357183273E+02  0.23776028392E+02 -0.21921246812E+02  0.45045682709E+02  0.00000000000E+00 0. -1.
         11    1    3    3    0    0 -0.17929575372E+02 -0.18992583688E+02  0.13097546426E+02  0.29218720554E+02  0.51100000000E-03 0. -1.
        -11    1    3    3    0    0 -0.30176463105E+01 -0.11962503673E+00  0.15455855908E+01  0.33925410070E+01  0.51100000000E-03 0.  1.
        -12    1    3    3    0    0 -0.10409961590E+02 -0.46638196675E+01  0.72781147949E+01  0.13531055730E+02  0.00000000000E+00 0.  1.
</event>
<event>
 7    1  0.2250716E-008  0.4614232E+02  0.7816164E-02  0.1320468E+00
        -11   -1    0    0    0    0  0.00000000000E+00  0.00000000000E+00  0.45593999997E+02  0.45594000000E+02  0.51100000000E-03 0.  1.
         11   -1    0    0    0    0 -0.00000000000E+00 -0.00000000000E+00 -0.45593999997E+02  0.45594000000E+02  0.51100000000E-03 0. -1.
    9900012    2    1    2    0    0  0.38391739796E+02 -0.12460828354E+02  0.19997888225E+02  0.46142318062E+02  0.10000002742E+02 0.  0.
         12    1    1    2    0    0 -0.38391739796E+02  0.12460828354E+02 -0.19997888225E+02  0.45045681938E+02  0.00000000000E+00 0. -1.
         11    1    3    3    0    0  0.53240010416E+01  0.88680160176E+00  0.95134033304E+00  0.54805522406E+01  0.51100000000E-03 0. -1.
        -11    1    3    3    0    0  0.20162338466E+02 -0.60471565015E+01  0.10134012051E+02  0.23362067432E+02  0.51100000000E-03 0.  1.
         12    1    3    3    0    0  0.12905400288E+02 -0.73004734542E+01  0.89125358410E+01  0.17299698390E+02  0.00000000000E+00 0. -1.
</event>
<event>
 7    1  0.2250716E-008  0.4614232E+02  0.7816164E-02  0.1320468E+00
        -11   -1    0    0    0    0  0.00000000000E+00  0.00000000000E+00  0.45593999997E+02  0.45594000000E+02  0.51100000000E-03 0.  1.
         11   -1    0    0    0    0 -0.00000000000E+00 -0.00000000000E+00 -0.45593999997E+02  0.45594000000E+02  0.51100000000E-03 0. -1.
    9900012    2    1    2    0    0  0.12941621106E+02 -0.14757003433E+02  0.40544526466E+02  0.46142319480E+02  0.10000015671E+02 0.  0.
         12    1    1    2    0    0 -0.12941621106E+02  0.14757003433E+02 -0.40544526466E+02  0.45045680520E+02  0.00000000000E+00 0. -1.
         11    1    3    3    0    0 -0.49327539841E+00  0.81859352383E+00  0.42576874842E+01  0.43636359782E+01  0.51100000000E-03 0. -1.
        -11    1    3    3    0    0  0.77338126665E+01 -0.78341497132E+01  0.21224859810E+02  0.23909839696E+02  0.51100000000E-03 0.  1.
         12    1    3    3    0    0  0.57010838376E+01 -0.77414472436E+01  0.15061979173E+02  0.17868843805E+02  0.00000000000E+00 0. -1.
</event>
<event>
 7    1  0.2250716E-008  0.4614232E+02  0.7816164E-02  0.1320468E+00
        -11   -1    0    0    0    0  0.00000000000E+00  0.00000000000E+00  0.45593999997E+02  0.45594000000E+02  0.51100000000E-03 0.  1.
         11   -1    0    0    0    0 -0.00000000000E+00 -0.00000000000E+00 -0.45593999997E+02  0.45594000000E+02  0.51100000000E-03 0. -1.
    9900012    2    1    2    0    0  0.85720049451E+01  0.11318918090E+01  0.44208062760E+02  0.46142320287E+02  0.10000023031E+02 0.  0.
         12    1    1    2    0    0 -0.85720049451E+01 -0.11318918090E+01 -0.44208062760E+02  0.45045679713E+02  0.00000000000E+00 0. -1.
         11    1    3    3    0    0  0.52346581855E+01 -0.53869584686E+00  0.10836427137E+02  0.12046575982E+02  0.51100000000E-03 0. -1.
        -11    1    3    3    0    0  0.73243873533E+00 -0.21937476123E+01  0.99945213372E+01  0.10258628179E+02  0.51100000000E-03 0.  1.
         12    1    3    3    0    0  0.26049080242E+01  0.38643352681E+01  0.23377114286E+02  0.23837116126E+02  0.00000000000E+00 0. -1.
</event>
<event>
 7    1  0.2250716E-008  0.4614232E+02  0.7816164E-02  0.1320468E+00
        -11   -1    0    0    0    0  0.00000000000E+00  0.00000000000E+00  0.45593999997E+02  0.45594000000E+02  0.51100000000E-03 0.  1.
         11   -1    0    0    0    0 -0.00000000000E+00 -0.00000000000E+00 -0.45593999997E+02  0.45594000000E+02  0.51100000000E-03 0. -1.
    9900012    2    1    2    0    0  0.19180078215E+02 -0.55645151547E+01  0.40376653662E+02  0.46142318851E+02  0.10000009939E+02 0.  0.
         12    1    1    2    0    0 -0.19180078215E+02  0.55645151547E+01 -0.40376653662E+02  0.45045681149E+02  0.00000000000E+00 0. -1.
         11    1    3    3    0    0  0.68383487208E+01 -0.21915006970E+01  0.91922598560E+01  0.11664618727E+02  0.51100000000E-03 0. -1.
        -11    1    3    3    0    0 -0.58223103024E+00 -0.10249887948E+01  0.55500168191E+01  0.56738242795E+01  0.51100000000E-03 0.  1.
        -12    1    3    3    0    0  0.12923960524E+02 -0.23480256628E+01  0.25634376987E+02  0.28803875844E+02  0.00000000000E+00 0.  1.
</event>
<event>
 7    1  0.2250716E-008  0.4614232E+02  0.7816164E-02  0.1320468E+00
        -11   -1    0    0    0    0  0.00000000000E+00  0.00000000000E+00  0.45593999997E+02  0.45594000000E+02  0.51100000000E-03 0.  1.
         11   -1    0    0    0    0 -0.00000000000E+00 -0.00000000000E+00 -0.45593999997E+02  0.45594000000E+02  0.51100000000E-03 0. -1.
    9900012    2    1    2    0    0 -0.44524373263E+02 -0.62374953623E+01  0.27905969084E+01  0.46142316589E+02  0.99999893140E+01 0.  0.
         12    1    1    2    0    0  0.44524373263E+02  0.62374953623E+01 -0.27905969084E+01  0.45045683411E+02  0.00000000000E+00 0. -1.
         11    1    3    3    0    0 -0.44987584758E+01 -0.67350642798E+00 -0.60736570198E+00  0.45892626956E+01  0.51100000000E-03 0.  1.
        -11    1    3    3    0    0 -0.12301558324E+02 -0.53010993831E+01 -0.12011177361E+01  0.13448891254E+02  0.51100000000E-03 0. -1.
        -12    1    3    3    0    0 -0.27724056463E+02 -0.26288955124E+00  0.45990803465E+01  0.28104162640E+02  0.00000000000E+00 0.  1.
</event>
<event>
 7    1  0.2250716E-008  0.4614232E+02  0.7816164E-02  0.1320468E+00
        -11   -1    0    0    0    0  0.00000000000E+00  0.00000000000E+00  0.45593999997E+02  0.45594000000E+02  0.51100000000E-03 0.  1.
         11   -1    0    0    0    0 -0.00000000000E+00 -0.00000000000E+00 -0.45593999997E+02  0.45594000000E+02  0.51100000000E-03 0. -1.
    9900012    2    1    2    0    0  0.39929742235E+02 -0.54887791252E+01  0.20114732578E+02  0.46142317877E+02  0.10000001057E+02 0.  0.
         12    1    1    2    0    0 -0.39929742235E+02  0.54887791252E+01 -0.20114732578E+02  0.45045682123E+02  0.00000000000E+00 0. -1.
         11    1    3    3    0    0  0.74464529924E+01  0.52390166540E+00  0.92238242455E+00  0.75216304563E+01  0.51100000000E-03 0. -1.
        -11    1    3    3    0    0  0.32663901079E+02 -0.61382639724E+01  0.18836656208E+02  0.38202465047E+02  0.51100000000E-03 0.  1.
        -12    1    3    3    0    0 -0.18061183668E+00  0.12558318174E+00  0.35569394526E+00  0.41822237361E+00  0.00000000000E+00 0.  1.
</event>
<event>
 7    1  0.2250716E-008  0.4614232E+02  0.7816164E-02  0.1320468E+00
        -11   -1    0    0    0    0  0.00000000000E+00  0.00000000000E+00  0.45593999997E+02  0.45594000000E+02  0.51100000000E-03 0.  1.
         11   -1    0    0    0    0 -0.00000000000E+00 -0.00000000000E+00 -0.45593999997E+02  0.45594000000E+02  0.51100000000E-03 0. -1.
    9900012    2    1    2    0    0 -0.12041962200E+02  0.32734766959E+02  0.28505081532E+02  0.46142317692E+02  0.99999993676E+01 0.  0.
         12    1    1    2    0    0  0.12041962200E+02 -0.32734766959E+02 -0.28505081532E+02  0.45045682308E+02  0.00000000000E+00 0. -1.
         11    1    3    3    0    0  0.92816561414E+00  0.10725272396E+01  0.10446567415E+01  0.17615657966E+01  0.51100000000E-03 0. -1.
        -11    1    3    3    0    0 -0.33236294840E+01  0.32150145507E+01  0.21445104856E+01  0.50972303256E+01  0.51100000000E-03 0.  1.
        -12    1    3    3    0    0 -0.96464983304E+01  0.28447225168E+02  0.25315914305E+02  0.39283521570E+02  0.00000000000E+00 0.  1.
</event>
<event>
 7    1  0.2250716E-008  0.4614232E+02  0.7816164E-02  0.1320468E+00
        -11   -1    0    0    0    0  0.00000000000E+00  0.00000000000E+00  0.45593999997E+02  0.45594000000E+02  0.51100000000E-03 0.  1.
         11   -1    0    0    0    0 -0.00000000000E+00 -0.00000000000E+00 -0.45593999997E+02  0.45594000000E+02  0.51100000000E-03 0. -1.
    9900012    2    1    2    0    0 -0.35848129235E+02  0.18636152265E+02  0.19917805307E+02  0.46142317531E+02  0.99999979003E+01 0.  0.
         12    1    1    2    0    0  0.35848129235E+02 -0.18636152265E+02 -0.19917805307E+02  0.45045682469E+02  0.00000000000E+00 0. -1.
         11    1    3    3    0    0 -0.64121392850E+01  0.64368021916E+01  0.43577314492E+01  0.10076595472E+02  0.51100000000E-03 0. -1.
        -11    1    3    3    0    0 -0.25569157253E+02  0.12147182721E+02  0.15328537361E+02  0.32191612395E+02  0.51100000000E-03 0.  1.
        -12    1    3    3    0    0 -0.38668326972E+01  0.52167351842E-01  0.23153649666E+00  0.38741096642E+01  0.00000000000E+00 0.  1.
</event>
<event>
 7    1  0.2250716E-008  0.4614232E+02  0.7816164E-02  0.1320468E+00
        -11   -1    0    0    0    0  0.00000000000E+00  0.00000000000E+00  0.45593999997E+02  0.45594000000E+02  0.51100000000E-03 0. -1.
         11   -1    0    0    0    0 -0.00000000000E+00 -0.00000000000E+00 -0.45593999997E+02  0.45594000000E+02  0.51100000000E-03 0.  1.
    9900012    2    1    2    0    0  0.81073584266E+01  0.34185672360E+02 -0.28190849734E+02  0.46142318031E+02  0.10000002457E+02 0.  0.
         12    1    1    2    0    0 -0.81073584266E+01 -0.34185672360E+02  0.28190849734E+02  0.45045681969E+02  0.00000000000E+00 0. -1.
         11    1    3    3    0    0 -0.11046572266E+01  0.23544941971E+01 -0.39118761662E+01  0.46975191232E+01  0.51100000000E-03 0. -1.
        -11    1    3    3    0    0  0.23597220356E-01  0.48610914535E+01 -0.53985283297E+01  0.72646318100E+01  0.51100000000E-03 0.  1.
         12    1    3    3    0    0  0.91884184329E+01  0.26970086710E+02 -0.18880445238E+02  0.34180167097E+02  0.00000000000E+00 0. -1.
</event>
<event>
 7    1  0.2250716E-008  0.4614232E+02  0.7816164E-02  0.1320468E+00
        -11   -1    0    0    0    0  0.00000000000E+00  0.00000000000E+00  0.45593999997E+02  0.45594000000E+02  0.51100000000E-03 0. -1.
         11   -1    0    0    0    0 -0.00000000000E+00 -0.00000000000E+00 -0.45593999997E+02  0.45594000000E+02  0.51100000000E-03 0.  1.
    9900012    2    1    2    0    0  0.11425418613E+01  0.23153236353E+02 -0.38622994951E+02  0.46142317693E+02  0.99999993763E+01 0.  0.
         12    1    1    2    0    0 -0.11425418613E+01 -0.23153236353E+02  0.38622994951E+02  0.45045682307E+02  0.00000000000E+00 0. -1.
         11    1    3    3    0    0 -0.10985850363E+01  0.37847571612E+01 -0.97262464215E+01  0.10494338739E+02  0.51100000000E-03 0. -1.
        -11    1    3    3    0    0 -0.11026425088E+01  0.95450866767E-01 -0.63157741995E+00  0.12742926150E+01  0.51100000000E-03 0.  1.
        -12    1    3    3    0    0  0.33437694064E+01  0.19273028325E+02 -0.28265171110E+02  0.34373686339E+02  0.00000000000E+00 0.  1.
</event>
<event>
 7    1  0.2250716E-008  0.4614232E+02  0.7816164E-02  0.1320468E+00
        -11   -1    0    0    0    0  0.00000000000E+00  0.00000000000E+00  0.45593999997E+02  0.45594000000E+02  0.51100000000E-03 0.  1.
         11   -1    0    0    0    0 -0.00000000000E+00 -0.00000000000E+00 -0.45593999997E+02  0.45594000000E+02  0.51100000000E-03 0. -1.
    9900012    2    1    2    0    0 -0.47512028660E+01  0.41172441122E+02  0.17645669034E+02  0.46142317939E+02  0.10000001625E+02 0.  0.
         12    1    1    2    0    0  0.47512028660E+01 -0.41172441122E+02 -0.17645669034E+02  0.45045682061E+02  0.00000000000E+00 0. -1.
         11    1    3    3    0    0 -0.37427970177E+00  0.49482879190E+01  0.39037820535E+01  0.63138857455E+01  0.51100000000E-03 0. -1.
        -11    1    3    3    0    0 -0.49966685902E+01  0.14949955081E+02  0.32283356170E+01  0.16090059200E+02  0.51100000000E-03 0.  1.
        -12    1    3    3    0    0  0.61974542594E+00  0.21274198122E+02  0.10513551364E+02  0.23738372994E+02  0.00000000000E+00 0.  1.
</event>
<event>
 7    1  0.2250716E-008  0.4614231E+02  0.7816164E-02  0.1320468E+00
        -11   -1    0    0    0    0  0.00000000000E+00  0.00000000000E+00  0.45593999997E+02  0.45594000000E+02  0.51100000000E-03 0.  1.
         11   -1    0    0    0    0 -0.00000000000E+00 -0.00000000000E+00 -0.45593999997E+02  0.45594000000E+02  0.51100000000E-03 0. -1.
    9900012    2    1    2    0    0 -0.33696205277E+02  0.27618252713E+02  0.11441674007E+02  0.46142311671E+02  0.99999444638E+01 0.  0.
         12    1    1    2    0    0  0.33696205277E+02 -0.27618252713E+02 -0.11441674007E+02  0.45045688329E+02  0.00000000000E+00 0. -1.
         11    1    3    3    0    0 -0.21035937909E+02  0.13330138046E+02  0.71837619485E+01  0.25919292043E+02  0.51100000000E-03 0. -1.
        -11    1    3    3    0    0 -0.10697883869E+02  0.10167224453E+02  0.13705398260E+01  0.14822130483E+02  0.51100000000E-03 0.  1.
         12    1    3    3    0    0 -0.19623834985E+01  0.41208902132E+01  0.28873722326E+01  0.54008891448E+01  0.00000000000E+00 0. -1.
</event>
<event>
 7    1  0.2250716E-008  0.4614232E+02  0.7816164E-02  0.1320468E+00
        -11   -1    0    0    0    0  0.00000000000E+00  0.00000000000E+00  0.45593999997E+02  0.45594000000E+02  0.51100000000E-03 0. -1.
         11   -1    0    0    0    0 -0.00000000000E+00 -0.00000000000E+00 -0.45593999997E+02  0.45594000000E+02  0.51100000000E-03 0.  1.
    9900012    2    1    2    0    0  0.24793514104E+02 -0.34592823891E+02  0.14755733970E+02  0.46142317727E+02  0.99999996924E+01 0.  0.
         12    1    1    2    0    0 -0.24793514104E+02  0.34592823891E+02 -0.14755733970E+02  0.45045682273E+02  0.00000000000E+00 0. -1.
         11    1    3    3    0    0  0.15007068886E+01 -0.19655458755E+01 -0.67533340958E+00  0.25635068226E+01  0.51100000000E-03 0. -1.
        -11    1    3    3    0    0  0.19127645611E+02 -0.24023097500E+02  0.87973152671E+01  0.31943212053E+02  0.51100000000E-03 0.  1.
        -12    1    3    3    0    0  0.41651616044E+01 -0.86041805160E+01  0.66337521125E+01  0.11635598851E+02  0.00000000000E+00 0.  1.
</event>
<event>
 7    1  0.2250716E-008  0.4614232E+02  0.7816164E-02  0.1320468E+00
        -11   -1    0    0    0    0  0.00000000000E+00  0.00000000000E+00  0.45593999997E+02  0.45594000000E+02  0.51100000000E-03 0. -1.
         11   -1    0    0    0    0 -0.00000000000E+00 -0.00000000000E+00 -0.45593999997E+02  0.45594000000E+02  0.51100000000E-03 0.  1.
    9900012    2    1    2    0    0  0.10209338032E+02  0.30936283389E+02 -0.31109954843E+02  0.46142317595E+02  0.99999984888E+01 0.  0.
         12    1    1    2    0    0 -0.10209338032E+02 -0.30936283389E+02  0.31109954843E+02  0.45045682405E+02  0.00000000000E+00 0. -1.
         11    1    3    3    0    0  0.41745528336E+01  0.54131440946E+01 -0.50460816841E+01  0.84965852537E+01  0.51100000000E-03 0. -1.
        -11    1    3    3    0    0  0.61207341623E+01  0.21073696345E+02 -0.24589323233E+02  0.32957531486E+02  0.51100000000E-03 0.  1.
         12    1    3    3    0    0 -0.85948964315E-01  0.44494429489E+01 -0.14745499266E+01  0.46882008559E+01  0.00000000000E+00 0. -1.
</event>
<event>
 7    1  0.2250716E-008  0.4614232E+02  0.7816164E-02  0.1320468E+00
        -11   -1    0    0    0    0  0.00000000000E+00  0.00000000000E+00  0.45593999997E+02  0.45594000000E+02  0.51100000000E-03 0.  1.
         11   -1    0    0    0    0 -0.00000000000E+00 -0.00000000000E+00 -0.45593999997E+02  0.45594000000E+02  0.51100000000E-03 0. -1.
    9900012    2    1    2    0    0  0.17593029959E+02 -0.20272388588E+02  0.36174977439E+02  0.46142318354E+02  0.10000005411E+02 0.  0.
         12    1    1    2    0    0 -0.17593029959E+02  0.20272388588E+02 -0.36174977439E+02  0.45045681646E+02  0.00000000000E+00 0. -1.
         11    1    3    3    0    0  0.69694604206E+00 -0.19546934565E+01  0.93210098781E+00  0.22749445723E+01  0.51100000000E-03 0. -1.
        -11    1    3    3    0    0  0.15022759605E+02 -0.13814910062E+02  0.23343196605E+02  0.31007093933E+02  0.51100000000E-03 0.  1.
         12    1    3    3    0    0  0.18733243121E+01 -0.45027850689E+01  0.11899679846E+02  0.12860279849E+02  0.00000000000E+00 0. -1.
</event>
<event>
 7    1  0.2250716E-008  0.4614232E+02  0.7816164E-02  0.1320468E+00
        -11   -1    0    0    0    0  0.00000000000E+00  0.00000000000E+00  0.45593999997E+02  0.45594000000E+02  0.51100000000E-03 0.  1.
         11   -1    0    0    0    0 -0.00000000000E+00 -0.00000000000E+00 -0.45593999997E+02  0.45594000000E+02  0.51100000000E-03 0. -1.
    9900012    2    1    2    0    0  0.18704392666E+02  0.47781054259E+01  0.40699248790E+02  0.46142318204E+02  0.10000004035E+02 0.  0.
         12    1    1    2    0    0 -0.18704392666E+02 -0.47781054259E+01 -0.40699248790E+02  0.45045681796E+02  0.00000000000E+00 0. -1.
         11    1    3    3    0    0  0.10757237664E+01 -0.17062247023E+01  0.21171269399E+01  0.29241427970E+01  0.51100000000E-03 0. -1.
        -11    1    3    3    0    0  0.83102102640E+01  0.45825939684E+01  0.14535864603E+02  0.17359467795E+02  0.51100000000E-03 0.  1.
        -12    1    3    3    0    0  0.93184586356E+01  0.19017361597E+01  0.24046257246E+02  0.25858707611E+02  0.00000000000E+00 0.  1.
</event>
<event>
 7    1  0.2250716E-008  0.4614232E+02  0.7816164E-02  0.1320468E+00
        -11   -1    0    0    0    0  0.00000000000E+00  0.00000000000E+00  0.45593999997E+02  0.45594000000E+02  0.51100000000E-03 0.  1.
         11   -1    0    0    0    0 -0.00000000000E+00 -0.00000000000E+00 -0.45593999997E+02  0.45594000000E+02  0.51100000000E-03 0. -1.
    9900012    2    1    2    0    0  0.21023922478E+02  0.36818597742E+02  0.15215088793E+02  0.46142318930E+02  0.10000010659E+02 0.  0.
         12    1    1    2    0    0 -0.21023922478E+02 -0.36818597742E+02 -0.15215088793E+02  0.45045681070E+02  0.00000000000E+00 0. -1.
         11    1    3    3    0    0  0.25496104607E+01  0.89376754398E+01  0.22558901953E+01  0.95640784503E+01  0.51100000000E-03 0. -1.
        -11    1    3    3    0    0  0.96579644231E+01  0.20082775549E+02  0.10095994741E+02  0.24464735041E+02  0.51100000000E-03 0.  1.
         12    1    3    3    0    0  0.88163475943E+01  0.77981467537E+01  0.28632038570E+01  0.12113505439E+02  0.00000000000E+00 0. -1.
</event>
<event>
 7    1  0.2250716E-008  0.4614232E+02  0.7816164E-02  0.1320468E+00
        -11   -1    0    0    0    0  0.00000000000E+00  0.00000000000E+00  0.45593999997E+02  0.45594000000E+02  0.51100000000E-03 0.  1.
         11   -1    0    0    0    0 -0.00000000000E+00 -0.00000000000E+00 -0.45593999997E+02  0.45594000000E+02  0.51100000000E-03 0. -1.
    9900012    2    1    2    0    0 -0.41778190172E+01 -0.38993413646E+02  0.22162423078E+02  0.46142317896E+02  0.10000001234E+02 0.  0.
         12    1    1    2    0    0  0.41778190172E+01  0.38993413646E+02 -0.22162423078E+02  0.45045682104E+02  0.00000000000E+00 0. -1.
         11    1    3    3    0    0  0.16863137912E+01 -0.76324412078E+01  0.68804424543E+01  0.10413371290E+02  0.51100000000E-03 0. -1.
        -11    1    3    3    0    0 -0.20523626827E+01 -0.21678078088E+02  0.11728818329E+02  0.24732902010E+02  0.51100000000E-03 0.  1.
         12    1    3    3    0    0 -0.38117701257E+01 -0.96828943501E+01  0.35531622948E+01  0.10996044597E+02  0.00000000000E+00 0. -1.
</event>
<event>
 7    1  0.2250716E-008  0.4614231E+02  0.7816164E-02  0.1320468E+00
        -11   -1    0    0    0    0  0.00000000000E+00  0.00000000000E+00  0.45593999997E+02  0.45594000000E+02  0.51100000000E-03 0.  1.
         11   -1    0    0    0    0 -0.00000000000E+00 -0.00000000000E+00 -0.45593999997E+02  0.45594000000E+02  0.51100000000E-03 0. -1.
    9900012    2    1    2    0    0 -0.18950461730E+02  0.11068827740E+02  0.39337960015E+02  0.46142311578E+02  0.99999436166E+01 0.  0.
         12    1    1    2    0    0  0.18950461730E+02 -0.11068827740E+02 -0.39337960015E+02  0.45045688422E+02  0.00000000000E+00 0. -1.
         11    1    3    3    0    0 -0.96682045271E+01  0.47195318389E+01  0.20347818450E+02  0.23016991018E+02  0.51100000000E-03 0.  1.
        -11    1    3    3    0    0 -0.95552772414E+01  0.34989190245E+01  0.16176618955E+02  0.19110959122E+02  0.51100000000E-03 0. -1.
         12    1    3    3    0    0  0.27302003889E+00  0.28503768768E+01  0.28135226092E+01  0.40143614379E+01  0.00000000000E+00 0. -1.
</event>
<event>
 7    1  0.2250716E-008  0.4614232E+02  0.7816164E-02  0.1320468E+00
        -11   -1    0    0    0    0  0.00000000000E+00  0.00000000000E+00  0.45593999997E+02  0.45594000000E+02  0.51100000000E-03 0. -1.
         11   -1    0    0    0    0 -0.00000000000E+00 -0.00000000000E+00 -0.45593999997E+02  0.45594000000E+02  0.51100000000E-03 0.  1.
    9900012    2    1    2    0    0 -0.19164295313E+02  0.29573250159E+02 -0.28058261924E+02  0.46142318720E+02  0.10000008744E+02 0.  0.
         12    1    1    2    0    0  0.19164295313E+02 -0.29573250159E+02  0.28058261924E+02  0.45045681280E+02  0.00000000000E+00 0. -1.
         11    1    3    3    0    0 -0.66472806868E+01  0.54867833663E+01 -0.99997125947E+01  0.13201718997E+02  0.51100000000E-03 0. -1.
        -11    1    3    3    0    0 -0.45604643755E+01  0.80489429723E+01 -0.88747384503E+01  0.12819684127E+02  0.51100000000E-03 0.  1.
         12    1    3    3    0    0 -0.79565502503E+01  0.16037523820E+02 -0.91838108791E+01  0.20120915596E+02  0.00000000000E+00 0. -1.
</event>
<event>
 7    1  0.2532573E-008  0.4614232E+02  0.7816164E-02  0.1320468E+00
        -11   -1    0    0    0    0  0.00000000000E+00  0.00000000000E+00  0.45593999997E+02  0.45594000000E+02  0.51100000000E-03 0.  1.
         11   -1    0    0    0    0 -0.00000000000E+00 -0.00000000000E+00 -0.45593999997E+02  0.45594000000E+02  0.51100000000E-03 0. -1.
    9900012    2    1    2    0    0  0.20138441639E+02 -0.40293054525E+02 -0.16230760580E+00  0.46142318538E+02  0.10000007086E+02 0.  0.
         12    1    1    2    0    0 -0.20138441639E+02  0.40293054525E+02  0.16230760580E+00  0.45045681462E+02  0.00000000000E+00 0. -1.
         11    1    3    3    0    0 -0.75198581743E+00 -0.11030584389E+01 -0.28950642873E+00  0.13660288513E+01  0.51100000000E-03 0. -1.
        -11    1    3    3    0    0  0.15619349032E+01 -0.74607611247E+01  0.11863366965E+00  0.76234291110E+01  0.51100000000E-03 0.  1.
        -12    1    3    3    0    0  0.19328492553E+02 -0.31729234961E+02  0.85651532804E-02  0.37152860576E+02  0.00000000000E+00 0.  1.
</event>
<event>
 7    1  0.2250716E-008  0.4614232E+02  0.7816164E-02  0.1320468E+00
        -11   -1    0    0    0    0  0.00000000000E+00  0.00000000000E+00  0.45593999997E+02  0.45594000000E+02  0.51100000000E-03 0. -1.
         11   -1    0    0    0    0 -0.00000000000E+00 -0.00000000000E+00 -0.45593999997E+02  0.45594000000E+02  0.51100000000E-03 0.  1.
    9900012    2    1    2    0    0  0.34802606963E+02  0.23386522953E+02 -0.16460940927E+02  0.46142317816E+02  0.10000000500E+02 0.  0.
         12    1    1    2    0    0 -0.34802606963E+02 -0.23386522953E+02  0.16460940927E+02  0.45045682184E+02  0.00000000000E+00 0. -1.
         11    1    3    3    0    0  0.25275074795E+01  0.22806626601E+00 -0.18394684297E+00  0.25444341184E+01  0.51100000000E-03 0. -1.
        -11    1    3    3    0    0  0.12612579797E+01  0.33152476189E+01 -0.22347964662E+01  0.41923685397E+01  0.51100000000E-03 0.  1.
        -12    1    3    3    0    0  0.31013841504E+02  0.19843209068E+02 -0.14042197617E+02  0.39405515158E+02  0.00000000000E+00 0.  1.
</event>
<event>
 7    1  0.2250716E-008  0.4614231E+02  0.7816164E-02  0.1320468E+00
        -11   -1    0    0    0    0  0.00000000000E+00  0.00000000000E+00  0.45593999997E+02  0.45594000000E+02  0.51100000000E-03 0.  1.
         11   -1    0    0    0    0 -0.00000000000E+00 -0.00000000000E+00 -0.45593999997E+02  0.45594000000E+02  0.51100000000E-03 0. -1.
    9900012    2    1    2    0    0  0.59786348766E+01 -0.29399862925E+02  0.33600860815E+02  0.46142313609E+02  0.99999621337E+01 0.  0.
         12    1    1    2    0    0 -0.59786348766E+01  0.29399862925E+02 -0.33600860815E+02  0.45045686391E+02  0.00000000000E+00 0. -1.
         11    1    3    3    0    0 -0.51089748800E+00 -0.10925313225E+01  0.24164498699E+01  0.27007167880E+01  0.51100000000E-03 0. -1.
        -11    1    3    3    0    0  0.15302367256E+01 -0.71139738604E+01  0.30985002558E+01  0.79089160205E+01  0.51100000000E-03 0.  1.
         12    1    3    3    0    0  0.49592956390E+01 -0.21193357742E+02  0.28085910689E+02  0.35532680800E+02  0.00000000000E+00 0. -1.
</event>
<event>
 7    1  0.2250716E-008  0.4614232E+02  0.7816164E-02  0.1320468E+00
        -11   -1    0    0    0    0  0.00000000000E+00  0.00000000000E+00  0.45593999997E+02  0.45594000000E+02  0.51100000000E-03 0.  1.
         11   -1    0    0    0    0 -0.00000000000E+00 -0.00000000000E+00 -0.45593999997E+02  0.45594000000E+02  0.51100000000E-03 0. -1.
    9900012    2    1    2    0    0 -0.24329092938E+02  0.17573890693E+02  0.33591173993E+02  0.46142319103E+02  0.10000012234E+02 0.  0.
         12    1    1    2    0    0  0.24329092938E+02 -0.17573890693E+02 -0.33591173993E+02  0.45045680897E+02  0.00000000000E+00 0. -1.
         11    1    3    3    0    0 -0.87534911976E+01  0.44529006623E+01  0.14705493258E+02  0.17683423444E+02  0.51100000000E-03 0. -1.
        -11    1    3    3    0    0 -0.13849001033E+02  0.91443728390E+01  0.16915241066E+02  0.23696830270E+02  0.51100000000E-03 0.  1.
         12    1    3    3    0    0 -0.17266007075E+01  0.39766171912E+01  0.19704396686E+01  0.47620653897E+01  0.00000000000E+00 0. -1.
</event>
<event>
 7    1  0.2250716E-008  0.4614232E+02  0.7816164E-02  0.1320468E+00
        -11   -1    0    0    0    0  0.00000000000E+00  0.00000000000E+00  0.45593999997E+02  0.45594000000E+02  0.51100000000E-03 0.  1.
         11   -1    0    0    0    0 -0.00000000000E+00 -0.00000000000E+00 -0.45593999997E+02  0.45594000000E+02  0.51100000000E-03 0. -1.
    9900012    2    1    2    0    0 -0.37927051929E+02  0.89792207853E+01 -0.22583750875E+02  0.46142317881E+02  0.10000001094E+02 0.  0.
         12    1    1    2    0    0  0.37927051929E+02 -0.89792207853E+01  0.22583750875E+02  0.45045682119E+02  0.00000000000E+00 0. -1.
         11    1    3    3    0    0 -0.12175846522E+02  0.52512505537E+01 -0.56035603470E+01  0.14395372858E+02  0.51100000000E-03 0. -1.
        -11    1    3    3    0    0 -0.11130577890E+02  0.28985975378E+01 -0.39979386743E+01  0.12176828231E+02  0.51100000000E-03 0.  1.
         12    1    3    3    0    0 -0.14620627518E+02  0.82937269384E+00 -0.12982251854E+02  0.19570116793E+02  0.00000000000E+00 0. -1.
</event>
<event>
 7    1  0.2250716E-008  0.4614232E+02  0.7816164E-02  0.1320468E+00
        -11   -1    0    0    0    0  0.00000000000E+00  0.00000000000E+00  0.45593999997E+02  0.45594000000E+02  0.51100000000E-03 0.  1.
         11   -1    0    0    0    0 -0.00000000000E+00 -0.00000000000E+00 -0.45593999997E+02  0.45594000000E+02  0.51100000000E-03 0. -1.
    9900012    2    1    2    0    0  0.76014075090E+01 -0.12317524740E+02  0.42656896337E+02  0.46142316334E+02  0.99999869827E+01 0.  0.
         12    1    1    2    0    0 -0.76014075090E+01  0.12317524740E+02 -0.42656896337E+02  0.45045683666E+02  0.00000000000E+00 0. -1.
         11    1    3    3    0    0  0.17551235795E+00  0.12842649060E+01  0.62500553102E+01  0.63830504133E+01  0.51100000000E-03 0. -1.
        -11    1    3    3    0    0  0.29815414327E+00 -0.34372040436E+01  0.10032158316E+02  0.10608839157E+02  0.51100000000E-03 0.  1.
         12    1    3    3    0    0  0.71277410078E+01 -0.10164585602E+02  0.26374682711E+02  0.29150426763E+02  0.00000000000E+00 0. -1.
</event>
<event>
 7    1  0.2250716E-008  0.4614232E+02  0.7816164E-02  0.1320468E+00
        -11   -1    0    0    0    0  0.00000000000E+00  0.00000000000E+00  0.45593999997E+02  0.45594000000E+02  0.51100000000E-03 0.  1.
         11   -1    0    0    0    0 -0.00000000000E+00 -0.00000000000E+00 -0.45593999997E+02  0.45594000000E+02  0.51100000000E-03 0. -1.
    9900012    2    1    2    0    0  0.30251140444E+02 -0.11280434737E+02  0.31412320510E+02  0.46142316679E+02  0.99999901324E+01 0.  0.
         12    1    1    2    0    0 -0.30251140444E+02  0.11280434737E+02 -0.31412320510E+02  0.45045683321E+02  0.00000000000E+00 0. -1.
         11    1    3    3    0    0 -0.16833116822E+00  0.12954935791E+00  0.30509711619E+00  0.37175654636E+00  0.51100000000E-03 0. -1.
        -11    1    3    3    0    0  0.11091228992E+01  0.10572011151E+01  0.26357027022E+01  0.30487303585E+01  0.51100000000E-03 0.  1.
        -12    1    3    3    0    0  0.29310348713E+02 -0.12467185210E+02  0.28471520692E+02  0.42721829774E+02  0.00000000000E+00 0.  1.
</event>
<event>
 7    1  0.2250716E-008  0.4614232E+02  0.7816164E-02  0.1320468E+00
        -11   -1    0    0    0    0  0.00000000000E+00  0.00000000000E+00  0.45593999997E+02  0.45594000000E+02  0.51100000000E-03 0.  1.
         11   -1    0    0    0    0 -0.00000000000E+00 -0.00000000000E+00 -0.45593999997E+02  0.45594000000E+02  0.51100000000E-03 0. -1.
    9900012    2    1    2    0    0 -0.44820587440E+02  0.43598234853E+01 -0.11045942108E+01  0.46142320433E+02  0.10000024365E+02 0.  0.
         12    1    1    2    0    0  0.44820587440E+02 -0.43598234853E+01  0.11045942108E+01  0.45045679567E+02  0.00000000000E+00 0. -1.
         11    1    3    3    0    0 -0.74775481824E+01  0.14847231892E+01  0.11867657709E+01  0.77153446471E+01  0.51100000000E-03 0. -1.
        -11    1    3    3    0    0 -0.37189007511E+02  0.17580648414E+01 -0.22555708406E+01  0.37298802551E+02  0.51100000000E-03 0.  1.
        -12    1    3    3    0    0 -0.15403174654E+00  0.11170354547E+01 -0.35789141079E-01  0.11281732352E+01  0.00000000000E+00 0.  1.
</event>
<event>
 7    1  0.2250716E-008  0.4614232E+02  0.7816164E-02  0.1320468E+00
        -11   -1    0    0    0    0  0.00000000000E+00  0.00000000000E+00  0.45593999997E+02  0.45594000000E+02  0.51100000000E-03 0.  1.
         11   -1    0    0    0    0 -0.00000000000E+00 -0.00000000000E+00 -0.45593999997E+02  0.45594000000E+02  0.51100000000E-03 0. -1.
    9900012    2    1    2    0    0  0.16035981825E+02  0.40968723430E+02  0.96708060214E+01  0.46142317613E+02  0.99999986527E+01 0.  0.
         12    1    1    2    0    0 -0.16035981825E+02 -0.40968723430E+02 -0.96708060214E+01  0.45045682387E+02  0.00000000000E+00 0. -1.
         11    1    3    3    0    0  0.46112449603E+01  0.76353251071E+01  0.18739291154E+01  0.91144599492E+01  0.51100000000E-03 0. -1.
        -11    1    3    3    0    0  0.18245970317E+01  0.10677435977E+01 -0.83865899993E+00  0.22743306483E+01  0.51100000000E-03 0.  1.
        -12    1    3    3    0    0  0.96001398325E+01  0.32265654725E+02  0.86355359059E+01  0.34753527016E+02  0.00000000000E+00 0.  1.
</event>
<event>
 7    1  0.2250716E-008  0.4614232E+02  0.7816164E-02  0.1320468E+00
        -11   -1    0    0    0    0  0.00000000000E+00  0.00000000000E+00  0.45593999997E+02  0.45594000000E+02  0.51100000000E-03 0. -1.
         11   -1    0    0    0    0 -0.00000000000E+00 -0.00000000000E+00 -0.45593999997E+02  0.45594000000E+02  0.51100000000E-03 0.  1.
    9900012    2    1    2    0    0  0.82073111533E+01 -0.20497628655E+00 -0.44291212836E+02  0.46142317564E+02  0.99999981982E+01 0.  0.
         12    1    1    2    0    0 -0.82073111533E+01  0.20497628655E+00  0.44291212836E+02  0.45045682436E+02  0.00000000000E+00 0. -1.
         11    1    3    3    0    0  0.11359756486E+01  0.21909520709E+01 -0.24164111537E+01  0.34539477089E+01  0.51100000000E-03 0. -1.
        -11    1    3    3    0    0  0.12963863189E+01 -0.12845571326E+01 -0.45376256542E+01  0.48908845165E+01  0.51100000000E-03 0.  1.
        -12    1    3    3    0    0  0.57749491858E+01 -0.11113712249E+01 -0.37337176029E+02  0.37797485338E+02  0.00000000000E+00 0.  1.
</event>
<event>
 7    1  0.2250716E-008  0.4614232E+02  0.7816164E-02  0.1320468E+00
        -11   -1    0    0    0    0  0.00000000000E+00  0.00000000000E+00  0.45593999997E+02  0.45594000000E+02  0.51100000000E-03 0. -1.
         11   -1    0    0    0    0 -0.00000000000E+00 -0.00000000000E+00 -0.45593999997E+02  0.45594000000E+02  0.51100000000E-03 0.  1.
    9900012    2    1    2    0    0  0.36197318627E+02  0.18876315822E+02 -0.19040807587E+02  0.46142317317E+02  0.99999959512E+01 0.  0.
         12    1    1    2    0    0 -0.36197318627E+02 -0.18876315822E+02  0.19040807587E+02  0.45045682683E+02  0.00000000000E+00 0. -1.
         11    1    3    3    0    0  0.68863075396E+00 -0.16399510221E+00  0.84521147862E+00  0.11024923644E+01  0.51100000000E-03 0. -1.
        -11    1    3    3    0    0  0.23532593989E+01  0.78743218878E+00 -0.19564867710E+01  0.31600189868E+01  0.51100000000E-03 0.  1.
        -12    1    3    3    0    0  0.33155428474E+02  0.18252878736E+02 -0.17929532294E+02  0.41879805966E+02  0.00000000000E+00 0.  1.
</event>
<event>
 7    1  0.2250716E-008  0.4614232E+02  0.7816164E-02  0.1320468E+00
        -11   -1    0    0    0    0  0.00000000000E+00  0.00000000000E+00  0.45593999997E+02  0.45594000000E+02  0.51100000000E-03 0.  1.
         11   -1    0    0    0    0 -0.00000000000E+00 -0.00000000000E+00 -0.45593999997E+02  0.45594000000E+02  0.51100000000E-03 0. -1.
    9900012    2    1    2    0    0 -0.39320958780E+01  0.35418660834E+01  0.44733737023E+02  0.46142318505E+02  0.10000006779E+02 0.  0.
         12    1    1    2    0    0  0.39320958780E+01 -0.35418660834E+01 -0.44733737023E+02  0.45045681495E+02  0.00000000000E+00 0. -1.
         11    1    3    3    0    0  0.21452746797E+01 -0.63519078950E+00  0.45670199268E+01  0.50856014456E+01  0.51100000000E-03 0. -1.
        -11    1    3    3    0    0 -0.44852396023E+01  0.26393260612E+01  0.16854701449E+02  0.17639851970E+02  0.51100000000E-03 0.  1.
        -12    1    3    3    0    0 -0.15921309554E+01  0.15377308117E+01  0.23312015648E+02  0.23416865089E+02  0.00000000000E+00 0.  1.
</event>
<event>
 7    1  0.2250716E-008  0.4614232E+02  0.7816164E-02  0.1320468E+00
        -11   -1    0    0    0    0  0.00000000000E+00  0.00000000000E+00  0.45593999997E+02  0.45594000000E+02  0.51100000000E-03 0. -1.
         11   -1    0    0    0    0 -0.00000000000E+00 -0.00000000000E+00 -0.45593999997E+02  0.45594000000E+02  0.51100000000E-03 0.  1.
    9900012    2    1    2    0    0  0.94698624835E+01 -0.12668933521E+02 -0.42177405100E+02  0.46142315712E+02  0.99999813153E+01 0.  0.
         12    1    1    2    0    0 -0.94698624835E+01  0.12668933521E+02  0.42177405100E+02  0.45045684288E+02  0.00000000000E+00 0. -1.
         11    1    3    3    0    0 -0.97828261170E-01  0.17686710386E+00  0.10374575570E-01  0.20238634848E+00  0.51100000000E-03 0. -1.
        -11    1    3    3    0    0  0.37658246664E+00 -0.60761700490E+01 -0.91901854434E+01  0.11023663890E+02  0.51100000000E-03 0.  1.
         12    1    3    3    0    0  0.91911082780E+01 -0.67696305755E+01 -0.32997594232E+02  0.34916265473E+02  0.00000000000E+00 0. -1.
</event>
<event>
 7    1  0.2250716E-008  0.4614232E+02  0.7816164E-02  0.1320468E+00
        -11   -1    0    0    0    0  0.00000000000E+00  0.00000000000E+00  0.45593999997E+02  0.45594000000E+02  0.51100000000E-03 0. -1.
         11   -1    0    0    0    0 -0.00000000000E+00 -0.00000000000E+00 -0.45593999997E+02  0.45594000000E+02  0.51100000000E-03 0.  1.
    9900012    2    1    2    0    0  0.44386140381E+02  0.19255777449E+01 -0.74347959743E+01  0.46142317645E+02  0.99999989446E+01 0.  0.
         12    1    1    2    0    0 -0.44386140381E+02 -0.19255777449E+01  0.74347959743E+01  0.45045682355E+02  0.00000000000E+00 0. -1.
         11    1    3    3    0    0  0.21450374166E+02  0.23787189627E+01 -0.79737031308E+01  0.23007755163E+02  0.51100000000E-03 0. -1.
        -11    1    3    3    0    0  0.23362768517E+01 -0.30684105162E+00 -0.80682545286E+00  0.24906442000E+01  0.51100000000E-03 0.  1.
         12    1    3    3    0    0  0.20599489364E+02 -0.14630016619E+00  0.13457326094E+01  0.20643918283E+02  0.00000000000E+00 0. -1.
</event>
<event>
 7    1  0.2250716E-008  0.4614232E+02  0.7816164E-02  0.1320468E+00
        -11   -1    0    0    0    0  0.00000000000E+00  0.00000000000E+00  0.45593999997E+02  0.45594000000E+02  0.51100000000E-03 0.  1.
         11   -1    0    0    0    0 -0.00000000000E+00 -0.00000000000E+00 -0.45593999997E+02  0.45594000000E+02  0.51100000000E-03 0. -1.
    9900012    2    1    2    0    0 -0.12217728920E+02 -0.42529920863E+02  0.84289037472E+01  0.46142317777E+02  0.10000000142E+02 0.  0.
         12    1    1    2    0    0  0.12217728920E+02  0.42529920863E+02 -0.84289037472E+01  0.45045682223E+02  0.00000000000E+00 0. -1.
         11    1    3    3    0    0  0.79092711979E-01 -0.20901316477E+01 -0.33914940461E+00  0.21189451483E+01  0.51100000000E-03 0. -1.
        -11    1    3    3    0    0 -0.92728123976E+01 -0.33589881437E+02  0.38349637788E+01  0.35056698820E+02  0.51100000000E-03 0.  1.
        -12    1    3    3    0    0 -0.30240092344E+01 -0.68499077780E+01  0.49330893730E+01  0.89666738080E+01  0.00000000000E+00 0.  1.
</event>
<event>
 7    1  0.2250716E-008  0.4614232E+02  0.7816164E-02  0.1320468E+00
        -11   -1    0    0    0    0  0.00000000000E+00  0.00000000000E+00  0.45593999997E+02  0.45594000000E+02  0.51100000000E-03 0. -1.
         11   -1    0    0    0    0 -0.00000000000E+00 -0.00000000000E+00 -0.45593999997E+02  0.45594000000E+02  0.51100000000E-03 0.  1.
    9900012    2    1    2    0    0  0.29620765562E+02  0.91371714906E+01 -0.32683873812E+02  0.46142320267E+02  0.10000022847E+02 0.  0.
         12    1    1    2    0    0 -0.29620765562E+02 -0.91371714906E+01  0.32683873812E+02  0.45045679733E+02  0.00000000000E+00 0. -1.
         11    1    3    3    0    0  0.72261582256E+01  0.30895712741E+01 -0.94089874678E+01  0.12259358009E+02  0.51100000000E-03 0. -1.
        -11    1    3    3    0    0  0.21330180264E+02  0.31817321282E+01 -0.20311279173E+02  0.29625125677E+02  0.51100000000E-03 0.  1.
         12    1    3    3    0    0  0.10644270718E+01  0.28658680882E+01 -0.29636071706E+01  0.42578365812E+01  0.00000000000E+00 0. -1.
</event>
<event>
 7    1  0.2250716E-008  0.4614231E+02  0.7816164E-02  0.1320468E+00
        -11   -1    0    0    0    0  0.00000000000E+00  0.00000000000E+00  0.45593999997E+02  0.45594000000E+02  0.51100000000E-03 0. -1.
         11   -1    0    0    0    0 -0.00000000000E+00 -0.00000000000E+00 -0.45593999997E+02  0.45594000000E+02  0.51100000000E-03 0.  1.
    9900012    2    1    2    0    0  0.29444037073E+02  0.34086315215E+02  0.53468032218E+00  0.46142311114E+02  0.99999393904E+01 0.  0.
         12    1    1    2    0    0 -0.29444037073E+02 -0.34086315215E+02 -0.53468032218E+00  0.45045688886E+02  0.00000000000E+00 0. -1.
         11    1    3    3    0    0  0.58359259294E+01  0.32068644915E+01  0.64862139463E+00  0.66904948468E+01  0.51100000000E-03 0. -1.
        -11    1    3    3    0    0  0.16211384907E+02  0.24402333089E+02  0.21074729183E+01  0.29372168853E+02  0.51100000000E-03 0.  1.
         12    1    3    3    0    0  0.73967262370E+01  0.64771176349E+01 -0.22214139908E+01  0.10079647414E+02  0.00000000000E+00 0. -1.
</event>
<event>
 7    1  0.2250716E-008  0.4614232E+02  0.7816164E-02  0.1320468E+00
        -11   -1    0    0    0    0  0.00000000000E+00  0.00000000000E+00  0.45593999997E+02  0.45594000000E+02  0.51100000000E-03 0. -1.
         11   -1    0    0    0    0 -0.00000000000E+00 -0.00000000000E+00 -0.45593999997E+02  0.45594000000E+02  0.51100000000E-03 0.  1.
    9900012    2    1    2    0    0 -0.44528528606E+02 -0.62553883123E+01 -0.26821028284E+01  0.46142318538E+02  0.10000007087E+02 0.  0.
         12    1    1    2    0    0  0.44528528606E+02  0.62553883123E+01  0.26821028284E+01  0.45045681462E+02  0.00000000000E+00 0. -1.
         11    1    3    3    0    0 -0.40723476136E+01 -0.64254193476E-01  0.26317873953E+01  0.48491699127E+01  0.51100000000E-03 0. -1.
        -11    1    3    3    0    0 -0.14259845927E+02 -0.28411777157E+01 -0.18715036987E+01  0.14660082641E+02  0.51100000000E-03 0.  1.
        -12    1    3    3    0    0 -0.26196335065E+02 -0.33499564032E+01 -0.34423865249E+01  0.26633065985E+02  0.00000000000E+00 0.  1.
</event>
<event>
 7    1  0.2250716E-008  0.4614232E+02  0.7816164E-02  0.1320468E+00
        -11   -1    0    0    0    0  0.00000000000E+00  0.00000000000E+00  0.45593999997E+02  0.45594000000E+02  0.51100000000E-03 0. -1.
         11   -1    0    0    0    0 -0.00000000000E+00 -0.00000000000E+00 -0.45593999997E+02  0.45594000000E+02  0.51100000000E-03 0.  1.
    9900012    2    1    2    0    0 -0.17437211804E+02  0.41517262776E+02 -0.11722003935E+01  0.46142317436E+02  0.99999970309E+01 0.  0.
         12    1    1    2    0    0  0.17437211804E+02 -0.41517262776E+02  0.11722003935E+01  0.45045682564E+02  0.00000000000E+00 0. -1.
         11    1    3    3    0    0 -0.92152575233E+01  0.18814761130E+02  0.10047622808E+01  0.20974407145E+02  0.51100000000E-03 0.  1.
        -11    1    3    3    0    0 -0.84622958533E+01  0.21312410816E+02 -0.35443344392E+01  0.23203267287E+02  0.51100000000E-03 0. -1.
         12    1    3    3    0    0  0.24034157232E+00  0.13900908307E+01  0.13673717649E+01  0.19646430038E+01  0.00000000000E+00 0. -1.
</event>
<event>
 7    1  0.2250716E-008  0.4614231E+02  0.7816164E-02  0.1320468E+00
        -11   -1    0    0    0    0  0.00000000000E+00  0.00000000000E+00  0.45593999997E+02  0.45594000000E+02  0.51100000000E-03 0.  1.
         11   -1    0    0    0    0 -0.00000000000E+00 -0.00000000000E+00 -0.45593999997E+02  0.45594000000E+02  0.51100000000E-03 0. -1.
    9900012    2    1    2    0    0  0.31455198642E+02 -0.29659389614E+02  0.12649305454E+02  0.46142313831E+02  0.99999641666E+01 0.  0.
         12    1    1    2    0    0 -0.31455198642E+02  0.29659389614E+02 -0.12649305454E+02  0.45045686169E+02  0.00000000000E+00 0. -1.
         11    1    3    3    0    0  0.33627725748E+01 -0.24864082694E+01  0.16678385279E+01  0.45024605593E+01  0.51100000000E-03 0. -1.
        -11    1    3    3    0    0  0.17821744440E+02 -0.14801919294E+02  0.10798101727E+02  0.25559937223E+02  0.51100000000E-03 0.  1.
        -12    1    3    3    0    0  0.10270681628E+02 -0.12371062050E+02  0.18336519934E+00  0.16079916049E+02  0.00000000000E+00 0.  1.
</event>
<event>
 7    1  0.2250716E-008  0.4614232E+02  0.7816164E-02  0.1320468E+00
        -11   -1    0    0    0    0  0.00000000000E+00  0.00000000000E+00  0.45593999997E+02  0.45594000000E+02  0.51100000000E-03 0.  1.
         11   -1    0    0    0    0 -0.00000000000E+00 -0.00000000000E+00 -0.45593999997E+02  0.45594000000E+02  0.51100000000E-03 0. -1.
    9900012    2    1    2    0    0  0.24477531749E+02 -0.10235075587E+02  0.36403395303E+02  0.46142317384E+02  0.99999965569E+01 0.  0.
         12    1    1    2    0    0 -0.24477531749E+02  0.10235075587E+02 -0.36403395303E+02  0.45045682616E+02  0.00000000000E+00 0. -1.
         11    1    3    3    0    0  0.26724155241E+01 -0.13209325625E+01  0.87692457464E+00  0.31073565195E+01  0.51100000000E-03 0. -1.
        -11    1    3    3    0    0  0.16766840543E+01 -0.15908531791E+01  0.12806375767E+01  0.26423694139E+01  0.51100000000E-03 0.  1.
        -12    1    3    3    0    0  0.20128432170E+02 -0.73232898449E+01  0.34245833152E+02  0.40392591450E+02  0.00000000000E+00 0.  1.
</event>
<event>
 7    1  0.2250716E-008  0.4614232E+02  0.7816164E-02  0.1320468E+00
        -11   -1    0    0    0    0  0.00000000000E+00  0.00000000000E+00  0.45593999997E+02  0.45594000000E+02  0.51100000000E-03 0.  1.
         11   -1    0    0    0    0 -0.00000000000E+00 -0.00000000000E+00 -0.45593999997E+02  0.45594000000E+02  0.51100000000E-03 0. -1.
    9900012    2    1    2    0    0  0.38461401898E+02  0.13599252965E+02  0.19102207041E+02  0.46142318398E+02  0.10000005805E+02 0.  0.
         12    1    1    2    0    0 -0.38461401898E+02 -0.13599252965E+02 -0.19102207041E+02  0.45045681602E+02  0.00000000000E+00 0. -1.
         11    1    3    3    0    0  0.96505143648E+01  0.53753951462E+01  0.62019824336E+01  0.12668539255E+02  0.51100000000E-03 0.  1.
        -11    1    3    3    0    0  0.79976253867E+01  0.32789683088E+01  0.74168014158E+01  0.11389582455E+02  0.51100000000E-03 0. -1.
         12    1    3    3    0    0  0.20813262147E+02  0.49448895099E+01  0.54834231918E+01  0.22084196688E+02  0.00000000000E+00 0. -1.
</event>
<event>
 7    1  0.2250716E-008  0.4614232E+02  0.7816164E-02  0.1320468E+00
        -11   -1    0    0    0    0  0.00000000000E+00  0.00000000000E+00  0.45593999997E+02  0.45594000000E+02  0.51100000000E-03 0.  1.
         11   -1    0    0    0    0 -0.00000000000E+00 -0.00000000000E+00 -0.45593999997E+02  0.45594000000E+02  0.51100000000E-03 0. -1.
    9900012    2    1    2    0    0  0.33042055348E+02 -0.27442100929E+01  0.30492711026E+02  0.46142317228E+02  0.99999951406E+01 0.  0.
         12    1    1    2    0    0 -0.33042055348E+02  0.27442100929E+01 -0.30492711026E+02  0.45045682772E+02  0.00000000000E+00 0. -1.
         11    1    3    3    0    0  0.76820606529E+01 -0.14600554878E+01  0.32437077236E+01  0.84656634684E+01  0.51100000000E-03 0. -1.
        -11    1    3    3    0    0  0.14571630604E+02 -0.33137930448E+01  0.14076193666E+02  0.20529317358E+02  0.51100000000E-03 0.  1.
         12    1    3    3    0    0  0.10788364091E+02  0.20296384396E+01  0.13172809637E+02  0.17147336402E+02  0.00000000000E+00 0. -1.
</event>
<event>
 7    1  0.2250716E-008  0.4614232E+02  0.7816164E-02  0.1320468E+00
        -11   -1    0    0    0    0  0.00000000000E+00  0.00000000000E+00  0.45593999997E+02  0.45594000000E+02  0.51100000000E-03 0.  1.
         11   -1    0    0    0    0 -0.00000000000E+00 -0.00000000000E+00 -0.45593999997E+02  0.45594000000E+02  0.51100000000E-03 0. -1.
    9900012    2    1    2    0    0  0.23401278043E+02 -0.75882234602E+01  0.37734766392E+02  0.46142317144E+02  0.99999943696E+01 0.  0.
         12    1    1    2    0    0 -0.23401278043E+02  0.75882234602E+01 -0.37734766392E+02  0.45045682856E+02  0.00000000000E+00 0. -1.
         11    1    3    3    0    0  0.11599760631E+02 -0.44329729430E+01  0.11216613181E+02  0.16733741582E+02  0.51100000000E-03 0. -1.
        -11    1    3    3    0    0  0.13713911749E+01 -0.15017972966E+01  0.29552469414E+01  0.35874215839E+01  0.51100000000E-03 0.  1.
        -12    1    3    3    0    0  0.10430126236E+02 -0.16534532206E+01  0.23562906270E+02  0.25821153978E+02  0.00000000000E+00 0.  1.
</event>
<event>
 7    1  0.2250716E-008  0.4614232E+02  0.7816164E-02  0.1320468E+00
        -11   -1    0    0    0    0  0.00000000000E+00  0.00000000000E+00  0.45593999997E+02  0.45594000000E+02  0.51100000000E-03 0.  1.
         11   -1    0    0    0    0 -0.00000000000E+00 -0.00000000000E+00 -0.45593999997E+02  0.45594000000E+02  0.51100000000E-03 0. -1.
    9900012    2    1    2    0    0  0.16753448497E+02 -0.25827332017E+02  0.32884409070E+02  0.46142317903E+02  0.10000001298E+02 0.  0.
         12    1    1    2    0    0 -0.16753448497E+02  0.25827332017E+02 -0.32884409070E+02  0.45045682097E+02  0.00000000000E+00 0. -1.
         11    1    3    3    0    0  0.44379985182E+01 -0.76955034874E+01  0.70777688181E+01  0.11358319263E+02  0.51100000000E-03 0. -1.
        -11    1    3    3    0    0  0.10554029015E+02 -0.91038758301E+01  0.17653446554E+02  0.22492493394E+02  0.51100000000E-03 0.  1.
         12    1    3    3    0    0  0.17614209642E+01 -0.90279526998E+01  0.81531936973E+01  0.12291505247E+02  0.00000000000E+00 0. -1.
</event>
<event>
 7    1  0.2250716E-008  0.4614232E+02  0.7816164E-02  0.1320468E+00
        -11   -1    0    0    0    0  0.00000000000E+00  0.00000000000E+00  0.45593999997E+02  0.45594000000E+02  0.51100000000E-03 0.  1.
         11   -1    0    0    0    0 -0.00000000000E+00 -0.00000000000E+00 -0.45593999997E+02  0.45594000000E+02  0.51100000000E-03 0. -1.
    9900012    2    1    2    0    0 -0.41670343271E+01 -0.76954147703E+01  0.44187440468E+02  0.46142317868E+02  0.10000000976E+02 0.  0.
         12    1    1    2    0    0  0.41670343271E+01  0.76954147703E+01 -0.44187440468E+02  0.45045682132E+02  0.00000000000E+00 0. -1.
         11    1    3    3    0    0 -0.23514189253E+01 -0.76913705160E+01  0.29781581880E+02  0.30848484094E+02  0.51100000000E-03 0.  1.
        -11    1    3    3    0    0 -0.94034655445E+00  0.66011054280E+00  0.35846127380E+00  0.12035332638E+01  0.51100000000E-03 0. -1.
         12    1    3    3    0    0 -0.87526884728E+00 -0.66415479713E+00  0.14047397314E+02  0.14090300510E+02  0.00000000000E+00 0. -1.
</event>
<event>
 7    1  0.2250716E-008  0.4614232E+02  0.7816164E-02  0.1320468E+00
        -11   -1    0    0    0    0  0.00000000000E+00  0.00000000000E+00  0.45593999997E+02  0.45594000000E+02  0.51100000000E-03 0.  1.
         11   -1    0    0    0    0 -0.00000000000E+00 -0.00000000000E+00 -0.45593999997E+02  0.45594000000E+02  0.51100000000E-03 0. -1.
    9900012    2    1    2    0    0  0.21331458461E+02  0.28757573177E+02  0.27332843441E+02  0.46142318012E+02  0.10000002292E+02 0.  0.
         12    1    1    2    0    0 -0.21331458461E+02 -0.28757573177E+02 -0.27332843441E+02  0.45045681988E+02  0.00000000000E+00 0. -1.
         11    1    3    3    0    0 -0.39589699545E-01  0.14577231160E+01  0.33571050014E+01  0.36601473029E+01  0.51100000000E-03 0. -1.
        -11    1    3    3    0    0  0.11981802343E+02  0.18311653593E+02  0.12880249369E+02  0.25392539628E+02  0.51100000000E-03 0.  1.
        -12    1    3    3    0    0  0.93892458179E+01  0.89881964685E+01  0.11095489070E+02  0.17089631081E+02  0.00000000000E+00 0.  1.
</event>
<event>
 7    1  0.2250716E-008  0.4614232E+02  0.7816164E-02  0.1320468E+00
        -11   -1    0    0    0    0  0.00000000000E+00  0.00000000000E+00  0.45593999997E+02  0.45594000000E+02  0.51100000000E-03 0.  1.
         11   -1    0    0    0    0 -0.00000000000E+00 -0.00000000000E+00 -0.45593999997E+02  0.45594000000E+02  0.51100000000E-03 0. -1.
    9900012    2    1    2    0    0 -0.30938382677E+02  0.31308186672E+02 -0.95774291608E+01  0.46142320688E+02  0.10000026691E+02 0.  0.
         12    1    1    2    0    0  0.30938382677E+02 -0.31308186672E+02  0.95774291608E+01  0.45045679312E+02  0.00000000000E+00 0. -1.
         11    1    3    3    0    0 -0.82257392425E+01  0.62111540280E+01 -0.60864614380E+01  0.11970222786E+02  0.51100000000E-03 0. -1.
        -11    1    3    3    0    0 -0.88876302808E+01  0.12139645833E+02 -0.15117538040E+01  0.15121057264E+02  0.51100000000E-03 0.  1.
         12    1    3    3    0    0 -0.13825013154E+02  0.12957386811E+02 -0.19792139188E+01  0.19051040638E+02  0.00000000000E+00 0. -1.
</event>
<event>
 7    1  0.2250716E-008  0.4614232E+02  0.7816164E-02  0.1320468E+00
        -11   -1    0    0    0    0  0.00000000000E+00  0.00000000000E+00  0.45593999997E+02  0.45594000000E+02  0.51100000000E-03 0.  1.
         11   -1    0    0    0    0 -0.00000000000E+00 -0.00000000000E+00 -0.45593999997E+02  0.45594000000E+02  0.51100000000E-03 0. -1.
    9900012    2    1    2    0    0 -0.86320726294E+01  0.29015006668E+00  0.44209917003E+02  0.46142316230E+02  0.99999860359E+01 0.  0.
         12    1    1    2    0    0  0.86320726294E+01 -0.29015006668E+00 -0.44209917003E+02  0.45045683770E+02  0.00000000000E+00 0. -1.
         11    1    3    3    0    0 -0.35890009173E+01  0.16725610434E+00  0.46492565005E+01  0.58757542884E+01  0.51100000000E-03 0. -1.
        -11    1    3    3    0    0 -0.41818612881E+01  0.13946927924E+01  0.14414062086E+02  0.15073099147E+02  0.51100000000E-03 0.  1.
        -12    1    3    3    0    0 -0.86121042394E+00 -0.12717988301E+01  0.25146598417E+02  0.25193462795E+02  0.00000000000E+00 0.  1.
</event>
<event>
 7    1  0.2250716E-008  0.4614232E+02  0.7816164E-02  0.1320468E+00
        -11   -1    0    0    0    0  0.00000000000E+00  0.00000000000E+00  0.45593999997E+02  0.45594000000E+02  0.51100000000E-03 0.  1.
         11   -1    0    0    0    0 -0.00000000000E+00 -0.00000000000E+00 -0.45593999997E+02  0.45594000000E+02  0.51100000000E-03 0. -1.
    9900012    2    1    2    0    0  0.19395808965E+02 -0.73673632150E+01  0.39982971339E+02  0.46142318262E+02  0.10000004568E+02 0.  0.
         12    1    1    2    0    0 -0.19395808965E+02  0.73673632150E+01 -0.39982971339E+02  0.45045681738E+02  0.00000000000E+00 0. -1.
         11    1    3    3    0    0  0.13779652295E+01 -0.42482141496E+00 -0.10799323801E+00  0.14460028384E+01  0.51100000000E-03 0. -1.
        -11    1    3    3    0    0  0.81339241495E+01 -0.48228240905E+01  0.22524710910E+02  0.24429141535E+02  0.51100000000E-03 0.  1.
         12    1    3    3    0    0  0.98839195865E+01 -0.21197177096E+01  0.17566253667E+02  0.20267173889E+02  0.00000000000E+00 0. -1.
</event>
<event>
 7    1  0.2250716E-008  0.4614232E+02  0.7816164E-02  0.1320468E+00
        -11   -1    0    0    0    0  0.00000000000E+00  0.00000000000E+00  0.45593999997E+02  0.45594000000E+02  0.51100000000E-03 0.  1.
         11   -1    0    0    0    0 -0.00000000000E+00 -0.00000000000E+00 -0.45593999997E+02  0.45594000000E+02  0.51100000000E-03 0. -1.
    9900012    2    1    2    0    0 -0.26392244486E+02  0.13987258669E+02  0.33718236073E+02  0.46142318542E+02  0.10000007124E+02 0.  0.
         12    1    1    2    0    0  0.26392244486E+02 -0.13987258669E+02 -0.33718236073E+02  0.45045681458E+02  0.00000000000E+00 0. -1.
         11    1    3    3    0    0 -0.25740438177E+01  0.46871566714E+00  0.77709656701E+00  0.27293360526E+01  0.51100000000E-03 0. -1.
        -11    1    3    3    0    0 -0.10199237784E+02  0.91704657905E+01  0.13173320229E+02  0.19017314750E+02  0.51100000000E-03 0.  1.
        -12    1    3    3    0    0 -0.13618962884E+02  0.43480772117E+01  0.19767819277E+02  0.24395667739E+02  0.00000000000E+00 0.  1.
</event>
<event>
 7    1  0.2250716E-008  0.4614233E+02  0.7816164E-02  0.1320468E+00
        -11   -1    0    0    0    0  0.00000000000E+00  0.00000000000E+00  0.45593999997E+02  0.45594000000E+02  0.51100000000E-03 0.  1.
         11   -1    0    0    0    0 -0.00000000000E+00 -0.00000000000E+00 -0.45593999997E+02  0.45594000000E+02  0.51100000000E-03 0. -1.
    9900012    2    1    2    0    0  0.17486010915E+02  0.13780087983E+01  0.41490391207E+02  0.46142333744E+02  0.10000145743E+02 0.  0.
         12    1    1    2    0    0 -0.17486010915E+02 -0.13780087983E+01 -0.41490391207E+02  0.45045666256E+02  0.00000000000E+00 0. -1.
         11    1    3    3    0    0  0.23788181179E+00  0.23506129764E+00 -0.34474588671E+00  0.48030360977E+00  0.51100000000E-03 0. -1.
        -11    1    3    3    0    0  0.12827879854E+02  0.29896545494E+01  0.34196494209E+02  0.36645501120E+02  0.51100000000E-03 0.  1.
        -12    1    3    3    0    0  0.44202492496E+01 -0.18467070487E+01  0.76386428841E+01  0.90165290142E+01  0.00000000000E+00 0.  1.
</event>
<event>
 7    1  0.2250716E-008  0.4614232E+02  0.7816164E-02  0.1320468E+00
        -11   -1    0    0    0    0  0.00000000000E+00  0.00000000000E+00  0.45593999997E+02  0.45594000000E+02  0.51100000000E-03 0.  1.
         11   -1    0    0    0    0 -0.00000000000E+00 -0.00000000000E+00 -0.45593999997E+02  0.45594000000E+02  0.51100000000E-03 0. -1.
    9900012    2    1    2    0    0 -0.10747771250E+01  0.43930026981E+02  0.99051024591E+01  0.46142317952E+02  0.10000001745E+02 0.  0.
         12    1    1    2    0    0  0.10747771250E+01 -0.43930026981E+02 -0.99051024591E+01  0.45045682048E+02  0.00000000000E+00 0. -1.
         11    1    3    3    0    0 -0.40644077854E+01  0.30426748837E+02  0.94101287116E+01  0.32106961520E+02  0.51100000000E-03 0.  1.
        -11    1    3    3    0    0  0.65215927866E+00  0.50212671584E+01 -0.85208107662E+00  0.51346351402E+01  0.51100000000E-03 0. -1.
         12    1    3    3    0    0  0.23374713817E+01  0.84820109859E+01  0.13470548241E+01  0.89007212923E+01  0.00000000000E+00 0. -1.
</event>
<event>
 7    1  0.2250716E-008  0.4614232E+02  0.7816164E-02  0.1320468E+00
        -11   -1    0    0    0    0  0.00000000000E+00  0.00000000000E+00  0.45593999997E+02  0.45594000000E+02  0.51100000000E-03 0. -1.
         11   -1    0    0    0    0 -0.00000000000E+00 -0.00000000000E+00 -0.45593999997E+02  0.45594000000E+02  0.51100000000E-03 0.  1.
    9900012    2    1    2    0    0 -0.37910311222E+02  0.16094627576E+01 -0.24276148582E+02  0.46142318106E+02  0.10000003146E+02 0.  0.
         12    1    1    2    0    0  0.37910311222E+02 -0.16094627576E+01  0.24276148582E+02  0.45045681894E+02  0.00000000000E+00 0. -1.
         11    1    3    3    0    0 -0.39879343660E+01  0.10761174566E+01 -0.10778896873E+01  0.42688986550E+01  0.51100000000E-03 0. -1.
        -11    1    3    3    0    0 -0.19059781434E+02 -0.95231790992E+00 -0.84101325024E+01  0.20854556017E+02  0.51100000000E-03 0.  1.
         12    1    3    3    0    0 -0.14862595422E+02  0.14856632109E+01 -0.14788126392E+02  0.21018863434E+02  0.00000000000E+00 0. -1.
</event>
<event>
 7    1  0.2250716E-008  0.4614232E+02  0.7816164E-02  0.1320468E+00
        -11   -1    0    0    0    0  0.00000000000E+00  0.00000000000E+00  0.45593999997E+02  0.45594000000E+02  0.51100000000E-03 0.  1.
         11   -1    0    0    0    0 -0.00000000000E+00 -0.00000000000E+00 -0.45593999997E+02  0.45594000000E+02  0.51100000000E-03 0. -1.
    9900012    2    1    2    0    0 -0.34290312823E+02 -0.29173520439E+02  0.14810941003E+01  0.46142317765E+02  0.10000000033E+02 0.  0.
         12    1    1    2    0    0  0.34290312823E+02  0.29173520439E+02 -0.14810941003E+01  0.45045682235E+02  0.00000000000E+00 0. -1.
         11    1    3    3    0    0 -0.22304989436E+01 -0.11594373860E-01  0.65111724125E+00  0.23236208576E+01  0.51100000000E-03 0. -1.
        -11    1    3    3    0    0 -0.13563981795E+02 -0.85652350424E+01 -0.10208275800E+01  0.16074418891E+02  0.51100000000E-03 0.  1.
         12    1    3    3    0    0 -0.18495832084E+02 -0.20596691023E+02  0.18508044391E+01  0.27744278016E+02  0.00000000000E+00 0. -1.
</event>
<event>
 7    1  0.2250716E-008  0.4614232E+02  0.7816164E-02  0.1320468E+00
        -11   -1    0    0    0    0  0.00000000000E+00  0.00000000000E+00  0.45593999997E+02  0.45594000000E+02  0.51100000000E-03 0.  1.
         11   -1    0    0    0    0 -0.00000000000E+00 -0.00000000000E+00 -0.45593999997E+02  0.45594000000E+02  0.51100000000E-03 0. -1.
    9900012    2    1    2    0    0 -0.24306549203E+02  0.37782362799E+02 -0.32860577589E+01  0.46142318205E+02  0.10000004044E+02 0.  0.
         12    1    1    2    0    0  0.24306549203E+02 -0.37782362799E+02  0.32860577589E+01  0.45045681795E+02  0.00000000000E+00 0. -1.
         11    1    3    3    0    0 -0.10853886950E+02  0.10436648457E+02 -0.74061679925E+00  0.15075775484E+02  0.51100000000E-03 0. -1.
        -11    1    3    3    0    0 -0.95048857677E+01  0.17745038460E+02  0.83990551577E+00  0.20147820849E+02  0.51100000000E-03 0.  1.
        -12    1    3    3    0    0 -0.39477764858E+01  0.96006758809E+01 -0.33853464755E+01  0.10918721872E+02  0.00000000000E+00 0.  1.
</event>
<event>
 7    1  0.2250716E-008  0.4614232E+02  0.7816164E-02  0.1320468E+00
        -11   -1    0    0    0    0  0.00000000000E+00  0.00000000000E+00  0.45593999997E+02  0.45594000000E+02  0.51100000000E-03 0. -1.
         11   -1    0    0    0    0 -0.00000000000E+00 -0.00000000000E+00 -0.45593999997E+02  0.45594000000E+02  0.51100000000E-03 0.  1.
    9900012    2    1    2    0    0 -0.13877076729E+02  0.34212399086E+01 -0.42718091468E+02  0.46142317857E+02  0.10000000877E+02 0.  0.
         12    1    1    2    0    0  0.13877076729E+02 -0.34212399086E+01  0.42718091468E+02  0.45045682143E+02  0.00000000000E+00 0. -1.
         11    1    3    3    0    0 -0.18346388596E+01  0.73173574662E+00 -0.45473031518E+01  0.49577518255E+01  0.51100000000E-03 0. -1.
        -11    1    3    3    0    0 -0.13353266751E+02  0.36406184201E+01 -0.34470550662E+02  0.37145426349E+02  0.51100000000E-03 0.  1.
         12    1    3    3    0    0  0.13108288811E+01 -0.95111425813E+00 -0.37002376536E+01  0.40391396832E+01  0.00000000000E+00 0. -1.
</event>
<event>
 7    1  0.2250716E-008  0.4614232E+02  0.7816164E-02  0.1320468E+00
        -11   -1    0    0    0    0  0.00000000000E+00  0.00000000000E+00  0.45593999997E+02  0.45594000000E+02  0.51100000000E-03 0.  1.
         11   -1    0    0    0    0 -0.00000000000E+00 -0.00000000000E+00 -0.45593999997E+02  0.45594000000E+02  0.51100000000E-03 0. -1.
    9900012    2    1    2    0    0 -0.47370700425E+01  0.43780875930E+02  0.94820128651E+01  0.46142317656E+02  0.99999990456E+01 0.  0.
         12    1    1    2    0    0  0.47370700425E+01 -0.43780875930E+02 -0.94820128651E+01  0.45045682344E+02  0.00000000000E+00 0. -1.
         11    1    3    3    0    0 -0.99639125125E+00  0.20243266679E+02  0.39675839152E+01  0.20652466288E+02  0.51100000000E-03 0. -1.
        -11    1    3    3    0    0 -0.56232877704E+01  0.19781947101E+02  0.36219631438E+01  0.20882179334E+02  0.51100000000E-03 0.  1.
        -12    1    3    3    0    0  0.18826089791E+01  0.37556621496E+01  0.18924658061E+01  0.46076720345E+01  0.00000000000E+00 0.  1.
</event>
<event>
 7    1  0.2250716E-008  0.4614231E+02  0.7816164E-02  0.1320468E+00
        -11   -1    0    0    0    0  0.00000000000E+00  0.00000000000E+00  0.45593999997E+02  0.45594000000E+02  0.51100000000E-03 0.  1.
         11   -1    0    0    0    0 -0.00000000000E+00 -0.00000000000E+00 -0.45593999997E+02  0.45594000000E+02  0.51100000000E-03 0. -1.
    9900012    2    1    2    0    0 -0.27054440985E+02 -0.28954575453E+02  0.21419700856E+02  0.46142314286E+02  0.99999683097E+01 0.  0.
         12    1    1    2    0    0  0.27054440985E+02  0.28954575453E+02 -0.21419700856E+02  0.45045685714E+02  0.00000000000E+00 0. -1.
         11    1    3    3    0    0 -0.35275213942E+00  0.15292223184E-02 -0.14450593008E+00  0.38120681439E+00  0.51100000000E-03 0. -1.
        -11    1    3    3    0    0 -0.26567778023E+02 -0.26377418211E+02  0.18517501527E+02  0.41767366252E+02  0.51100000000E-03 0.  1.
         12    1    3    3    0    0 -0.13391082214E+00 -0.25786864652E+01  0.30467052587E+01  0.39937412194E+01  0.00000000000E+00 0. -1.
</event>
<event>
 7    1  0.2250716E-008  0.4614232E+02  0.7816164E-02  0.1320468E+00
        -11   -1    0    0    0    0  0.00000000000E+00  0.00000000000E+00  0.45593999997E+02  0.45594000000E+02  0.51100000000E-03 0.  1.
         11   -1    0    0    0    0 -0.00000000000E+00 -0.00000000000E+00 -0.45593999997E+02  0.45594000000E+02  0.51100000000E-03 0. -1.
    9900012    2    1    2    0    0 -0.12014031013E+02 -0.14385769488E+02  0.40961276605E+02  0.46142317787E+02  0.10000000235E+02 0.  0.
         12    1    1    2    0    0  0.12014031013E+02  0.14385769488E+02 -0.40961276605E+02  0.45045682213E+02  0.00000000000E+00 0. -1.
         11    1    3    3    0    0 -0.58122370768E+01 -0.92095631898E+01  0.23821939653E+02  0.26193185432E+02  0.51100000000E-03 0.  1.
        -11    1    3    3    0    0 -0.56028482134E+01 -0.59452752789E+01  0.17125536398E+02  0.18974251064E+02  0.51100000000E-03 0. -1.
         12    1    3    3    0    0 -0.59894572318E+00  0.76906898086E+00  0.13800553689E-01  0.97488129119E+00  0.00000000000E+00 0. -1.
</event>
<event>
 7    1  0.2250716E-008  0.4614232E+02  0.7816164E-02  0.1320468E+00
        -11   -1    0    0    0    0  0.00000000000E+00  0.00000000000E+00  0.45593999997E+02  0.45594000000E+02  0.51100000000E-03 0.  1.
         11   -1    0    0    0    0 -0.00000000000E+00 -0.00000000000E+00 -0.45593999997E+02  0.45594000000E+02  0.51100000000E-03 0. -1.
    9900012    2    1    2    0    0  0.67550186438E+01 -0.14018740674E+02  0.42272429748E+02  0.46142315593E+02  0.99999802258E+01 0.  0.
         12    1    1    2    0    0 -0.67550186438E+01  0.14018740674E+02 -0.42272429748E+02  0.45045684407E+02  0.00000000000E+00 0. -1.
         11    1    3    3    0    0  0.81694810179E-01 -0.10993876108E+01  0.69877605502E+00  0.13052261861E+01  0.51100000000E-03 0. -1.
        -11    1    3    3    0    0  0.31582776886E+01 -0.97085773269E+01  0.17191227304E+02  0.19994236373E+02  0.51100000000E-03 0.  1.
         12    1    3    3    0    0  0.35150461450E+01 -0.32107757359E+01  0.24382426389E+02  0.24842853033E+02  0.00000000000E+00 0. -1.
</event>
<event>
 7    1  0.2250716E-008  0.4614232E+02  0.7816164E-02  0.1320468E+00
        -11   -1    0    0    0    0  0.00000000000E+00  0.00000000000E+00  0.45593999997E+02  0.45594000000E+02  0.51100000000E-03 0. -1.
         11   -1    0    0    0    0 -0.00000000000E+00 -0.00000000000E+00 -0.45593999997E+02  0.45594000000E+02  0.51100000000E-03 0.  1.
    9900012    2    1    2    0    0 -0.35732573487E+02 -0.26557449959E+02  0.68555495033E+01  0.46142317462E+02  0.99999972697E+01 0.  0.
         12    1    1    2    0    0  0.35732573487E+02  0.26557449959E+02 -0.68555495033E+01  0.45045682538E+02  0.00000000000E+00 0. -1.
         11    1    3    3    0    0 -0.10543281270E+02 -0.96162216102E+01 -0.83727403617E+00  0.14294527837E+02  0.51100000000E-03 0. -1.
        -11    1    3    3    0    0 -0.86869634233E+01 -0.91886768843E+01  0.24954864647E+01  0.12888854463E+02  0.51100000000E-03 0.  1.
         12    1    3    3    0    0 -0.16502328794E+02 -0.77525514647E+01  0.51973370747E+01  0.18958935162E+02  0.00000000000E+00 0. -1.
</event>
<event>
 7    1  0.2250716E-008  0.4614233E+02  0.7816164E-02  0.1320468E+00
        -11   -1    0    0    0    0  0.00000000000E+00  0.00000000000E+00  0.45593999997E+02  0.45594000000E+02  0.51100000000E-03 0.  1.
         11   -1    0    0    0    0 -0.00000000000E+00 -0.00000000000E+00 -0.45593999997E+02  0.45594000000E+02  0.51100000000E-03 0. -1.
    9900012    2    1    2    0    0 -0.27849417738E+02 -0.31777700128E+02  0.15610907161E+02  0.46142326332E+02  0.10000078159E+02 0.  0.
         12    1    1    2    0    0  0.27849417738E+02  0.31777700128E+02 -0.15610907161E+02  0.45045673668E+02  0.00000000000E+00 0. -1.
         11    1    3    3    0    0 -0.85148537080E+01 -0.10366272193E+02  0.42857826270E+01  0.14082977876E+02  0.51100000000E-03 0. -1.
        -11    1    3    3    0    0 -0.19213332001E+02 -0.21691358928E+02  0.99299467215E+01  0.30631209915E+02  0.51100000000E-03 0.  1.
         12    1    3    3    0    0 -0.12123202956E+00  0.27993099323E+00  0.13951778126E+01  0.14281385419E+01  0.00000000000E+00 0. -1.
</event>
<event>
 7    1  0.2250716E-008  0.4614232E+02  0.7816164E-02  0.1320468E+00
        -11   -1    0    0    0    0  0.00000000000E+00  0.00000000000E+00  0.45593999997E+02  0.45594000000E+02  0.51100000000E-03 0.  1.
         11   -1    0    0    0    0 -0.00000000000E+00 -0.00000000000E+00 -0.45593999997E+02  0.45594000000E+02  0.51100000000E-03 0. -1.
    9900012    2    1    2    0    0  0.34388118311E+02  0.28777280951E+02  0.42940590345E+01  0.46142317378E+02  0.99999965070E+01 0.  0.
         12    1    1    2    0    0 -0.34388118311E+02 -0.28777280951E+02 -0.42940590345E+01  0.45045682622E+02  0.00000000000E+00 0. -1.
         11    1    3    3    0    0  0.17212714197E+02  0.13759876021E+02  0.39065018950E+01  0.22380180416E+02  0.51100000000E-03 0. -1.
        -11    1    3    3    0    0  0.74494114541E+01  0.42287140938E+01  0.28535852061E+01  0.90287708294E+01  0.51100000000E-03 0.  1.
         12    1    3    3    0    0  0.97259926599E+01  0.10788690836E+02 -0.24660280666E+01  0.14733366132E+02  0.00000000000E+00 0. -1.
</event>
<event>
 7    1  0.2250716E-008  0.4614232E+02  0.7816164E-02  0.1320468E+00
        -11   -1    0    0    0    0  0.00000000000E+00  0.00000000000E+00  0.45593999997E+02  0.45594000000E+02  0.51100000000E-03 0. -1.
         11   -1    0    0    0    0 -0.00000000000E+00 -0.00000000000E+00 -0.45593999997E+02  0.45594000000E+02  0.51100000000E-03 0.  1.
    9900012    2    1    2    0    0  0.38323831985E+02 -0.16691821966E+02 -0.16786317956E+02  0.46142317753E+02  0.99999999266E+01 0.  0.
         12    1    1    2    0    0 -0.38323831985E+02  0.16691821966E+02  0.16786317956E+02  0.45045682247E+02  0.00000000000E+00 0. -1.
         11    1    3    3    0    0  0.10261150040E+02 -0.23070105600E+01 -0.37455719826E+01  0.11164354330E+02  0.51100000000E-03 0.  1.
        -11    1    3    3    0    0  0.19813907613E+02 -0.11514255923E+02 -0.12781880261E+02  0.26240150297E+02  0.51100000000E-03 0. -1.
         12    1    3    3    0    0  0.82487743322E+01 -0.28705554831E+01 -0.25886571227E+00  0.87378131259E+01  0.00000000000E+00 0. -1.
</event>
<event>
 7    1  0.2250716E-008  0.4614232E+02  0.7816164E-02  0.1320468E+00
        -11   -1    0    0    0    0  0.00000000000E+00  0.00000000000E+00  0.45593999997E+02  0.45594000000E+02  0.51100000000E-03 0.  1.
         11   -1    0    0    0    0 -0.00000000000E+00 -0.00000000000E+00 -0.45593999997E+02  0.45594000000E+02  0.51100000000E-03 0. -1.
    9900012    2    1    2    0    0  0.18168966632E+02 -0.36602972569E+02  0.18953215560E+02  0.46142319525E+02  0.10000016089E+02 0.  0.
         12    1    1    2    0    0 -0.18168966632E+02  0.36602972569E+02 -0.18953215560E+02  0.45045680475E+02  0.00000000000E+00 0. -1.
         11    1    3    3    0    0  0.17724610841E+01 -0.41953047113E+01  0.84538326478E+00  0.46321564137E+01  0.51100000000E-03 0. -1.
        -11    1    3    3    0    0 -0.19312894663E+00 -0.69739503867E+01  0.30150102414E+01  0.76002348518E+01  0.51100000000E-03 0.  1.
        -12    1    3    3    0    0  0.16589634494E+02 -0.25433717471E+02  0.15092822054E+02  0.33909928260E+02  0.00000000000E+00 0.  1.
</event>
<event>
 7    1  0.2250716E-008  0.4614232E+02  0.7816164E-02  0.1320468E+00
        -11   -1    0    0    0    0  0.00000000000E+00  0.00000000000E+00  0.45593999997E+02  0.45594000000E+02  0.51100000000E-03 0.  1.
         11   -1    0    0    0    0 -0.00000000000E+00 -0.00000000000E+00 -0.45593999997E+02  0.45594000000E+02  0.51100000000E-03 0. -1.
    9900012    2    1    2    0    0  0.25230726472E+01  0.41348649394E+02  0.17692838096E+02  0.46142320716E+02  0.10000026945E+02 0.  0.
         12    1    1    2    0    0 -0.25230726472E+01 -0.41348649394E+02 -0.17692838096E+02  0.45045679284E+02  0.00000000000E+00 0. -1.
         11    1    3    3    0    0 -0.12460216030E+01  0.36390248408E+01 -0.36536142620E+00  0.38637495856E+01  0.51100000000E-03 0. -1.
        -11    1    3    3    0    0  0.22347018815E+01  0.87612448445E+01  0.25126343608E+01  0.93843825272E+01  0.51100000000E-03 0.  1.
        -12    1    3    3    0    0  0.15343923687E+01  0.28948379708E+02  0.15545565161E+02  0.32894188603E+02  0.00000000000E+00 0.  1.
</event>
<event>
 7    1  0.2250716E-008  0.4614232E+02  0.7816164E-02  0.1320468E+00
        -11   -1    0    0    0    0  0.00000000000E+00  0.00000000000E+00  0.45593999997E+02  0.45594000000E+02  0.51100000000E-03 0.  1.
         11   -1    0    0    0    0 -0.00000000000E+00 -0.00000000000E+00 -0.45593999997E+02  0.45594000000E+02  0.51100000000E-03 0. -1.
    9900012    2    1    2    0    0  0.32800358093E+02 -0.17742885477E+02  0.25267369169E+02  0.46142318511E+02  0.10000006843E+02 0.  0.
         12    1    1    2    0    0 -0.32800358093E+02  0.17742885477E+02 -0.25267369169E+02  0.45045681489E+02  0.00000000000E+00 0. -1.
         11    1    3    3    0    0  0.47985132472E+01 -0.33911296404E+01  0.67572956847E+01  0.89546934539E+01  0.51100000000E-03 0. -1.
        -11    1    3    3    0    0  0.13103768767E+02 -0.29764383312E+01  0.89581174847E+01  0.16149792883E+02  0.51100000000E-03 0.  1.
        -12    1    3    3    0    0  0.14898076078E+02 -0.11375317505E+02  0.95519559994E+01  0.21037832174E+02  0.00000000000E+00 0.  1.
</event>
<event>
 7    1  0.2250716E-008  0.4614232E+02  0.7816164E-02  0.1320468E+00
        -11   -1    0    0    0    0  0.00000000000E+00  0.00000000000E+00  0.45593999997E+02  0.45594000000E+02  0.51100000000E-03 0.  1.
         11   -1    0    0    0    0 -0.00000000000E+00 -0.00000000000E+00 -0.45593999997E+02  0.45594000000E+02  0.51100000000E-03 0. -1.
    9900012    2    1    2    0    0 -0.13888289848E+02 -0.31323580400E+02  0.29241445996E+02  0.46142318210E+02  0.10000004098E+02 0.  0.
         12    1    1    2    0    0  0.13888289848E+02  0.31323580400E+02 -0.29241445996E+02  0.45045681790E+02  0.00000000000E+00 0. -1.
         11    1    3    3    0    0 -0.62538885749E+01 -0.10049310168E+02  0.73301141049E+01  0.13922296154E+02  0.51100000000E-03 0. -1.
        -11    1    3    3    0    0 -0.52877083183E+01 -0.19769910977E+02  0.17141115323E+02  0.26695075840E+02  0.51100000000E-03 0.  1.
         12    1    3    3    0    0 -0.23466929551E+01 -0.15043592545E+01  0.47702165673E+01  0.55249462162E+01  0.00000000000E+00 0. -1.
</event>
<event>
 7    1  0.2250716E-008  0.4614232E+02  0.7816164E-02  0.1320468E+00
        -11   -1    0    0    0    0  0.00000000000E+00  0.00000000000E+00  0.45593999997E+02  0.45594000000E+02  0.51100000000E-03 0.  1.
         11   -1    0    0    0    0 -0.00000000000E+00 -0.00000000000E+00 -0.45593999997E+02  0.45594000000E+02  0.51100000000E-03 0. -1.
    9900012    2    1    2    0    0  0.95997844953E+01  0.40080912741E+02  0.18179054277E+02  0.46142318265E+02  0.10000004599E+02 0.  0.
         12    1    1    2    0    0 -0.95997844953E+01 -0.40080912741E+02 -0.18179054277E+02  0.45045681735E+02  0.00000000000E+00 0. -1.
         11    1    3    3    0    0  0.17820674671E+01  0.22425645549E+01  0.24994235632E+00  0.28752967991E+01  0.51100000000E-03 0. -1.
        -11    1    3    3    0    0  0.48087636898E+01  0.31469077857E+02  0.17203613959E+02  0.36185513716E+02  0.51100000000E-03 0.  1.
         12    1    3    3    0    0  0.30089533385E+01  0.63692703293E+01  0.72549796118E+00  0.70815077499E+01  0.00000000000E+00 0. -1.
</event>
<event>
 7    1  0.2250716E-008  0.4614232E+02  0.7816164E-02  0.1320468E+00
        -11   -1    0    0    0    0  0.00000000000E+00  0.00000000000E+00  0.45593999997E+02  0.45594000000E+02  0.51100000000E-03 0. -1.
         11   -1    0    0    0    0 -0.00000000000E+00 -0.00000000000E+00 -0.45593999997E+02  0.45594000000E+02  0.51100000000E-03 0.  1.
    9900012    2    1    2    0    0 -0.22180886986E+02 -0.37528365692E+02  0.11346517696E+02  0.46142318267E+02  0.10000004613E+02 0.  0.
         12    1    1    2    0    0  0.22180886986E+02  0.37528365692E+02 -0.11346517696E+02  0.45045681733E+02  0.00000000000E+00 0. -1.
         11    1    3    3    0    0 -0.21643752553E+01 -0.66979499320E+01 -0.32141108022E+00  0.70463010780E+01  0.51100000000E-03 0. -1.
        -11    1    3    3    0    0 -0.14930146679E+02 -0.21939845981E+02  0.53819615648E+01  0.27078250167E+02  0.51100000000E-03 0.  1.
         12    1    3    3    0    0 -0.50863650516E+01 -0.88905697784E+01  0.62859672114E+01  0.12017767022E+02  0.00000000000E+00 0. -1.
</event>
<event>
 7    1  0.2250716E-008  0.4614232E+02  0.7816164E-02  0.1320468E+00
        -11   -1    0    0    0    0  0.00000000000E+00  0.00000000000E+00  0.45593999997E+02  0.45594000000E+02  0.51100000000E-03 0.  1.
         11   -1    0    0    0    0 -0.00000000000E+00 -0.00000000000E+00 -0.45593999997E+02  0.45594000000E+02  0.51100000000E-03 0. -1.
    9900012    2    1    2    0    0  0.23942912767E+02  0.30787637281E+02  0.22538228013E+02  0.46142318708E+02  0.10000008632E+02 0.  0.
         12    1    1    2    0    0 -0.23942912767E+02 -0.30787637281E+02 -0.22538228013E+02  0.45045681292E+02  0.00000000000E+00 0. -1.
         11    1    3    3    0    0  0.22063834664E+01  0.31528344149E+01  0.10256450597E+01  0.39825169049E+01  0.51100000000E-03 0. -1.
        -11    1    3    3    0    0  0.16454729711E+02  0.25333365924E+02  0.15990817315E+02  0.34179581589E+02  0.51100000000E-03 0.  1.
         12    1    3    3    0    0  0.52817995905E+01  0.23014369418E+01  0.55217656375E+01  0.79802202142E+01  0.00000000000E+00 0. -1.
</event>
<event>
 7    1  0.2250716E-008  0.4614232E+02  0.7816164E-02  0.1320468E+00
        -11   -1    0    0    0    0  0.00000000000E+00  0.00000000000E+00  0.45593999997E+02  0.45594000000E+02  0.51100000000E-03 0. -1.
         11   -1    0    0    0    0 -0.00000000000E+00 -0.00000000000E+00 -0.45593999997E+02  0.45594000000E+02  0.51100000000E-03 0.  1.
    9900012    2    1    2    0    0  0.85297261952E+01  0.43927446731E+02  0.51707506761E+01  0.46142317989E+02  0.10000002078E+02 0.  0.
         12    1    1    2    0    0 -0.85297261952E+01 -0.43927446731E+02 -0.51707506761E+01  0.45045682011E+02  0.00000000000E+00 0. -1.
         11    1    3    3    0    0  0.13614048855E+01  0.15353263320E+02 -0.94911348667E+00  0.15442698420E+02  0.51100000000E-03 0. -1.
        -11    1    3    3    0    0  0.50142710948E+01  0.24128519482E+02  0.29261843053E+01  0.24817149753E+02  0.51100000000E-03 0.  1.
         12    1    3    3    0    0  0.21540502148E+01  0.44456639287E+01  0.31936798575E+01  0.58824698153E+01  0.00000000000E+00 0. -1.
</event>
<event>
 7    1  0.2250716E-008  0.4614232E+02  0.7816164E-02  0.1320468E+00
        -11   -1    0    0    0    0  0.00000000000E+00  0.00000000000E+00  0.45593999997E+02  0.45594000000E+02  0.51100000000E-03 0.  1.
         11   -1    0    0    0    0 -0.00000000000E+00 -0.00000000000E+00 -0.45593999997E+02  0.45594000000E+02  0.51100000000E-03 0. -1.
    9900012    2    1    2    0    0  0.54440003509E+00  0.42795210803E+02  0.14049449979E+02  0.46142317812E+02  0.10000000462E+02 0.  0.
         12    1    1    2    0    0 -0.54440003509E+00 -0.42795210803E+02 -0.14049449979E+02  0.45045682188E+02  0.00000000000E+00 0. -1.
         11    1    3    3    0    0 -0.20294098667E+01  0.13284594917E+02  0.71716099782E+01  0.15232562373E+02  0.51100000000E-03 0. -1.
        -11    1    3    3    0    0  0.24489185069E+01  0.17244074049E+02  0.66411833078E+01  0.18640295267E+02  0.51100000000E-03 0.  1.
         12    1    3    3    0    0  0.12489139490E+00  0.12266541837E+02  0.23665669320E+00  0.12269460171E+02  0.00000000000E+00 0. -1.
</event>
<event>
 7    1  0.2250716E-008  0.4614232E+02  0.7816164E-02  0.1320468E+00
        -11   -1    0    0    0    0  0.00000000000E+00  0.00000000000E+00  0.45593999997E+02  0.45594000000E+02  0.51100000000E-03 0.  1.
         11   -1    0    0    0    0 -0.00000000000E+00 -0.00000000000E+00 -0.45593999997E+02  0.45594000000E+02  0.51100000000E-03 0. -1.
    9900012    2    1    2    0    0  0.12693174810E+02  0.17443960789E+01  0.43185110025E+02  0.46142319494E+02  0.10000015799E+02 0.  0.
         12    1    1    2    0    0 -0.12693174810E+02 -0.17443960789E+01 -0.43185110025E+02  0.45045680506E+02  0.00000000000E+00 0. -1.
         11    1    3    3    0    0 -0.59576073164E+00 -0.11548357055E+01  0.35965745368E+01  0.38241240848E+01  0.51100000000E-03 0. -1.
        -11    1    3    3    0    0  0.32587113840E+01 -0.18623739474E+01  0.80415771342E+01  0.88743788329E+01  0.51100000000E-03 0.  1.
        -12    1    3    3    0    0  0.10030224158E+02  0.47616057318E+01  0.31546958354E+02  0.33443816576E+02  0.00000000000E+00 0.  1.
</event>
<event>
 7    1  0.2250716E-008  0.4614232E+02  0.7816164E-02  0.1320468E+00
        -11   -1    0    0    0    0  0.00000000000E+00  0.00000000000E+00  0.45593999997E+02  0.45594000000E+02  0.51100000000E-03 0. -1.
         11   -1    0    0    0    0 -0.00000000000E+00 -0.00000000000E+00 -0.45593999997E+02  0.45594000000E+02  0.51100000000E-03 0.  1.
    9900012    2    1    2    0    0  0.30548818013E+02  0.31051622418E+02  0.11475187056E+02  0.46142318135E+02  0.10000003407E+02 0.  0.
         12    1    1    2    0    0 -0.30548818013E+02 -0.31051622418E+02 -0.11475187056E+02  0.45045681865E+02  0.00000000000E+00 0. -1.
         11    1    3    3    0    0 -0.49663614488E+00  0.88623441645E+00 -0.32766573542E+00  0.10674380528E+01  0.51100000000E-03 0. -1.
        -11    1    3    3    0    0  0.41885377720E+01  0.37288366363E+01  0.80434319469E-01  0.56084348323E+01  0.51100000000E-03 0.  1.
         12    1    3    3    0    0  0.26856916386E+02  0.26436551365E+02  0.11722418472E+02  0.39466445250E+02  0.00000000000E+00 0. -1.
</event>
<event>
 7    1  0.2250716E-008  0.4614232E+02  0.7816164E-02  0.1320468E+00
        -11   -1    0    0    0    0  0.00000000000E+00  0.00000000000E+00  0.45593999997E+02  0.45594000000E+02  0.51100000000E-03 0.  1.
         11   -1    0    0    0    0 -0.00000000000E+00 -0.00000000000E+00 -0.45593999997E+02  0.45594000000E+02  0.51100000000E-03 0. -1.
    9900012    2    1    2    0    0  0.25089107210E+02  0.14588402062E+02  0.34450380068E+02  0.46142318052E+02  0.10000002648E+02 0.  0.
         12    1    1    2    0    0 -0.25089107210E+02 -0.14588402062E+02 -0.34450380068E+02  0.45045681948E+02  0.00000000000E+00 0. -1.
         11    1    3    3    0    0  0.10622121319E+02  0.19499090490E+01  0.10763465885E+02  0.15247419609E+02  0.51100000000E-03 0. -1.
        -11    1    3    3    0    0  0.87437104501E+01  0.94918462940E+01  0.12656029371E+02  0.18075472281E+02  0.51100000000E-03 0.  1.
        -12    1    3    3    0    0  0.57232754419E+01  0.31466467192E+01  0.11030884812E+02  0.12819426161E+02  0.00000000000E+00 0.  1.
</event>
<event>
 7    1  0.2250716E-008  0.4614232E+02  0.7816164E-02  0.1320468E+00
        -11   -1    0    0    0    0  0.00000000000E+00  0.00000000000E+00  0.45593999997E+02  0.45594000000E+02  0.51100000000E-03 0. -1.
         11   -1    0    0    0    0 -0.00000000000E+00 -0.00000000000E+00 -0.45593999997E+02  0.45594000000E+02  0.51100000000E-03 0.  1.
    9900012    2    1    2    0    0 -0.42957600088E+02 -0.13544710285E+02  0.54671066040E+00  0.46142317915E+02  0.10000001400E+02 0.  0.
         12    1    1    2    0    0  0.42957600088E+02  0.13544710285E+02 -0.54671066040E+00  0.45045682085E+02  0.00000000000E+00 0. -1.
         11    1    3    3    0    0 -0.24228314852E+01 -0.39007841681E+00  0.15323559771E+01  0.28931624010E+01  0.51100000000E-03 0. -1.
        -11    1    3    3    0    0 -0.69901367799E+01 -0.46193035401E+01  0.16350509533E+01  0.85365900263E+01  0.51100000000E-03 0.  1.
        -12    1    3    3    0    0 -0.33544631823E+02 -0.85353283279E+01 -0.26206962700E+01  0.34712565487E+02  0.00000000000E+00 0.  1.
</event>
<event>
 7    1  0.2250716E-008  0.4614232E+02  0.7816164E-02  0.1320468E+00
        -11   -1    0    0    0    0  0.00000000000E+00  0.00000000000E+00  0.45593999997E+02  0.45594000000E+02  0.51100000000E-03 0. -1.
         11   -1    0    0    0    0 -0.00000000000E+00 -0.00000000000E+00 -0.45593999997E+02  0.45594000000E+02  0.51100000000E-03 0.  1.
    9900012    2    1    2    0    0  0.38870710662E+02 -0.57186855996E+00 -0.22756412341E+02  0.46142317813E+02  0.10000000476E+02 0.  0.
         12    1    1    2    0    0 -0.38870710662E+02  0.57186855996E+00  0.22756412341E+02  0.45045682187E+02  0.00000000000E+00 0. -1.
         11    1    3    3    0    0  0.20319840684E+02  0.27907607338E+01 -0.96288349181E+01  0.22658303843E+02  0.51100000000E-03 0.  1.
        -11    1    3    3    0    0  0.32953178385E+00 -0.10497491271E+01 -0.62946966635E+00  0.12675948676E+01  0.51100000000E-03 0. -1.
        -12    1    3    3    0    0  0.18221338194E+02 -0.23128801667E+01 -0.12498107756E+02  0.22216419103E+02  0.00000000000E+00 0.  1.
</event>
<event>
 7    1  0.2796492E-008  0.4614232E+02  0.7816164E-02  0.1320468E+00
        -11   -1    0    0    0    0  0.00000000000E+00  0.00000000000E+00  0.45593999997E+02  0.45594000000E+02  0.51100000000E-03 0. -1.
         11   -1    0    0    0    0 -0.00000000000E+00 -0.00000000000E+00 -0.45593999997E+02  0.45594000000E+02  0.51100000000E-03 0.  1.
    9900012    2    1    2    0    0 -0.13223596174E+01  0.21871685477E+02 -0.39357263718E+02  0.46142317988E+02  0.10000002069E+02 0.  0.
         12    1    1    2    0    0  0.13223596174E+01 -0.21871685477E+02  0.39357263718E+02  0.45045682012E+02  0.00000000000E+00 0. -1.
         11    1    3    3    0    0  0.68422913558E+00 -0.39308376053E+00 -0.16608590519E+00  0.80639267221E+00  0.51100000000E-03 0. -1.
        -11    1    3    3    0    0 -0.27490231699E+00  0.96437294123E+00 -0.43393392958E+01  0.44537009598E+01  0.51100000000E-03 0.  1.
        -12    1    3    3    0    0 -0.17316864360E+01  0.21300396297E+02 -0.34851838517E+02  0.40882224356E+02  0.00000000000E+00 0.  1.
</event>
<event>
 7    1  0.2250716E-008  0.4614232E+02  0.7816164E-02  0.1320468E+00
        -11   -1    0    0    0    0  0.00000000000E+00  0.00000000000E+00  0.45593999997E+02  0.45594000000E+02  0.51100000000E-03 0.  1.
         11   -1    0    0    0    0 -0.00000000000E+00 -0.00000000000E+00 -0.45593999997E+02  0.45594000000E+02  0.51100000000E-03 0. -1.
    9900012    2    1    2    0    0  0.10353542030E+02  0.12121395720E+01  0.43822921580E+02  0.46142316847E+02  0.99999916608E+01 0.  0.
         12    1    1    2    0    0 -0.10353542030E+02 -0.12121395720E+01 -0.43822921580E+02  0.45045683153E+02  0.00000000000E+00 0. -1.
         11    1    3    3    0    0  0.11967738341E+01  0.98317239859E+00  0.52072287937E+00  0.16340281985E+01  0.51100000000E-03 0. -1.
        -11    1    3    3    0    0 -0.51655634466E-01  0.68584245200E+00  0.77358484523E+01  0.77663633517E+01  0.51100000000E-03 0.  1.
        -12    1    3    3    0    0  0.92084238308E+01 -0.45687527863E+00  0.35566350249E+02  0.36741925296E+02  0.00000000000E+00 0.  1.
</event>
<event>
 7    1  0.2250716E-008  0.4614232E+02  0.7816164E-02  0.1320468E+00
        -11   -1    0    0    0    0  0.00000000000E+00  0.00000000000E+00  0.45593999997E+02  0.45594000000E+02  0.51100000000E-03 0.  1.
         11   -1    0    0    0    0 -0.00000000000E+00 -0.00000000000E+00 -0.45593999997E+02  0.45594000000E+02  0.51100000000E-03 0. -1.
    9900012    2    1    2    0    0 -0.17897891359E+01 -0.30760306986E+02  0.32858999738E+02  0.46142315470E+02  0.99999791037E+01 0.  0.
         12    1    1    2    0    0  0.17897891359E+01  0.30760306986E+02 -0.32858999738E+02  0.45045684530E+02  0.00000000000E+00 0. -1.
         11    1    3    3    0    0 -0.28442536778E+01 -0.79405287960E+01  0.93028825118E+01  0.12557284732E+02  0.51100000000E-03 0. -1.
        -11    1    3    3    0    0 -0.11789158327E-01 -0.21240768103E+02  0.18449585685E+02  0.28134633120E+02  0.51100000000E-03 0.  1.
         12    1    3    3    0    0  0.10662537003E+01 -0.15790100866E+01  0.51065315411E+01  0.54503976174E+01  0.00000000000E+00 0. -1.
</event>
<event>
 7    1  0.2250716E-008  0.4614232E+02  0.7816164E-02  0.1320468E+00
        -11   -1    0    0    0    0  0.00000000000E+00  0.00000000000E+00  0.45593999997E+02  0.45594000000E+02  0.51100000000E-03 0. -1.
         11   -1    0    0    0    0 -0.00000000000E+00 -0.00000000000E+00 -0.45593999997E+02  0.45594000000E+02  0.51100000000E-03 0.  1.
    9900012    2    1    2    0    0  0.34878017743E+02 -0.24238789001E+02 -0.15003950497E+02  0.46142317139E+02  0.99999943265E+01 0.  0.
         12    1    1    2    0    0 -0.34878017743E+02  0.24238789001E+02  0.15003950497E+02  0.45045682861E+02  0.00000000000E+00 0. -1.
         11    1    3    3    0    0  0.42313685148E+00 -0.16934849088E+01 -0.89367888301E+00  0.19610196681E+01  0.51100000000E-03 0.  1.
        -11    1    3    3    0    0  0.33717359490E+02 -0.20232509885E+02 -0.12471208683E+02  0.41252222164E+02  0.51100000000E-03 0. -1.
         12    1    3    3    0    0  0.73752140188E+00 -0.23127942068E+01 -0.16390629306E+01  0.29290753066E+01  0.00000000000E+00 0. -1.
</event>
<event>
 7    1  0.2250716E-008  0.4614232E+02  0.7816164E-02  0.1320468E+00
        -11   -1    0    0    0    0  0.00000000000E+00  0.00000000000E+00  0.45593999997E+02  0.45594000000E+02  0.51100000000E-03 0. -1.
         11   -1    0    0    0    0 -0.00000000000E+00 -0.00000000000E+00 -0.45593999997E+02  0.45594000000E+02  0.51100000000E-03 0.  1.
    9900012    2    1    2    0    0 -0.10626491951E+02 -0.30537590042E+02 -0.31363144255E+02  0.46142317030E+02  0.99999933287E+01 0.  0.
         12    1    1    2    0    0  0.10626491951E+02  0.30537590042E+02  0.31363144255E+02  0.45045682970E+02  0.00000000000E+00 0. -1.
         11    1    3    3    0    0 -0.57298067735E+01 -0.16536696571E+02 -0.12888970748E+02  0.21735192347E+02  0.51100000000E-03 0. -1.
        -11    1    3    3    0    0 -0.42625445964E+01 -0.10550609132E+02 -0.17301714085E+02  0.20708306305E+02  0.51100000000E-03 0.  1.
        -12    1    3    3    0    0 -0.63414058135E+00 -0.34502843391E+01 -0.11724594214E+01  0.36988183778E+01  0.00000000000E+00 0.  1.
</event>
<event>
 7    1  0.2250716E-008  0.4614232E+02  0.7816164E-02  0.1320468E+00
        -11   -1    0    0    0    0  0.00000000000E+00  0.00000000000E+00  0.45593999997E+02  0.45594000000E+02  0.51100000000E-03 0.  1.
         11   -1    0    0    0    0 -0.00000000000E+00 -0.00000000000E+00 -0.45593999997E+02  0.45594000000E+02  0.51100000000E-03 0. -1.
    9900012    2    1    2    0    0 -0.40976048410E+02  0.11745208495E+02  0.14564580747E+02  0.46142317873E+02  0.10000001022E+02 0.  0.
         12    1    1    2    0    0  0.40976048410E+02 -0.11745208495E+02 -0.14564580747E+02  0.45045682127E+02  0.00000000000E+00 0. -1.
         11    1    3    3    0    0  0.24673612180E+00  0.10604478103E+00  0.41847085626E-01  0.27180075254E+00  0.51100000000E-03 0. -1.
        -11    1    3    3    0    0 -0.15930719061E+02  0.80241929442E+01  0.76829010582E+01  0.19421700522E+02  0.51100000000E-03 0.  1.
         12    1    3    3    0    0 -0.25292065471E+02  0.36149707697E+01  0.68398326037E+01  0.26448816599E+02  0.00000000000E+00 0. -1.
</event>
<event>
 7    1  0.2250716E-008  0.4614232E+02  0.7816164E-02  0.1320468E+00
        -11   -1    0    0    0    0  0.00000000000E+00  0.00000000000E+00  0.45593999997E+02  0.45594000000E+02  0.51100000000E-03 0.  1.
         11   -1    0    0    0    0 -0.00000000000E+00 -0.00000000000E+00 -0.45593999997E+02  0.45594000000E+02  0.51100000000E-03 0. -1.
    9900012    2    1    2    0    0 -0.12451773742E+02  0.18837604755E+01  0.43249487835E+02  0.46142318511E+02  0.10000006839E+02 0.  0.
         12    1    1    2    0    0  0.12451773742E+02 -0.18837604755E+01 -0.43249487835E+02  0.45045681489E+02  0.00000000000E+00 0. -1.
         11    1    3    3    0    0 -0.48513100871E+00  0.95265699672E+00  0.96234946691E+01  0.96826937036E+01  0.51100000000E-03 0. -1.
        -11    1    3    3    0    0 -0.38960468098E+01  0.11762512814E+01  0.21563413428E+02  0.21944100500E+02  0.51100000000E-03 0.  1.
         12    1    3    3    0    0 -0.80705959234E+01 -0.24514780263E+00  0.12062579737E+02  0.14515524307E+02  0.00000000000E+00 0. -1.
</event>
<event>
 7    1  0.2250716E-008  0.4614232E+02  0.7816164E-02  0.1320468E+00
        -11   -1    0    0    0    0  0.00000000000E+00  0.00000000000E+00  0.45593999997E+02  0.45594000000E+02  0.51100000000E-03 0.  1.
         11   -1    0    0    0    0 -0.00000000000E+00 -0.00000000000E+00 -0.45593999997E+02  0.45594000000E+02  0.51100000000E-03 0. -1.
    9900012    2    1    2    0    0 -0.27655504824E+02  0.27589955392E+02 -0.22429469014E+02  0.46142315791E+02  0.99999820356E+01 0.  0.
         12    1    1    2    0    0  0.27655504824E+02 -0.27589955392E+02  0.22429469014E+02  0.45045684209E+02  0.00000000000E+00 0. -1.
         11    1    3    3    0    0 -0.32022646132E+01  0.81383237950E+01 -0.44875164732E+01  0.98297821544E+01  0.51100000000E-03 0. -1.
        -11    1    3    3    0    0 -0.19451244437E+02  0.17571850016E+02 -0.14495837725E+02  0.29954133851E+02  0.51100000000E-03 0.  1.
        -12    1    3    3    0    0 -0.50019957742E+01  0.18797815808E+01 -0.34461148155E+01  0.63583997860E+01  0.00000000000E+00 0.  1.
</event>
<event>
 7    1  0.2250716E-008  0.4614232E+02  0.7816164E-02  0.1320468E+00
        -11   -1    0    0    0    0  0.00000000000E+00  0.00000000000E+00  0.45593999997E+02  0.45594000000E+02  0.51100000000E-03 0.  1.
         11   -1    0    0    0    0 -0.00000000000E+00 -0.00000000000E+00 -0.45593999997E+02  0.45594000000E+02  0.51100000000E-03 0. -1.
    9900012    2    1    2    0    0  0.28939324665E+02 -0.34333768532E+02  0.35806948516E+01  0.46142317085E+02  0.99999938344E+01 0.  0.
         12    1    1    2    0    0 -0.28939324665E+02  0.34333768532E+02 -0.35806948516E+01  0.45045682915E+02  0.00000000000E+00 0. -1.
         11    1    3    3    0    0  0.47790559663E+01 -0.26226103882E+01  0.19902643118E+01  0.58033277926E+01  0.51100000000E-03 0. -1.
        -11    1    3    3    0    0  0.62346802591E+01 -0.10624551261E+02 -0.18235773354E+01  0.12453022203E+02  0.51100000000E-03 0.  1.
        -12    1    3    3    0    0  0.17925588440E+02 -0.21086606882E+02  0.34140078753E+01  0.27885967089E+02  0.00000000000E+00 0.  1.
</event>
<event>
 7    1  0.2250716E-008  0.4614232E+02  0.7816164E-02  0.1320468E+00
        -11   -1    0    0    0    0  0.00000000000E+00  0.00000000000E+00  0.45593999997E+02  0.45594000000E+02  0.51100000000E-03 0.  1.
         11   -1    0    0    0    0 -0.00000000000E+00 -0.00000000000E+00 -0.45593999997E+02  0.45594000000E+02  0.51100000000E-03 0. -1.
    9900012    2    1    2    0    0 -0.42399096447E+02 -0.75728905745E+01  0.13193992659E+02  0.46142317705E+02  0.99999994888E+01 0.  0.
         12    1    1    2    0    0  0.42399096447E+02  0.75728905745E+01 -0.13193992659E+02  0.45045682295E+02  0.00000000000E+00 0. -1.
         11    1    3    3    0    0 -0.16134292335E+02 -0.40826149940E+01  0.54955647454E+01  0.17526675853E+02  0.51100000000E-03 0. -1.
        -11    1    3    3    0    0 -0.22383836232E+02 -0.54435472197E+01  0.76411856343E+01  0.24270476900E+02  0.51100000000E-03 0.  1.
         12    1    3    3    0    0 -0.38809678796E+01  0.19532716391E+01  0.57242278991E-01  0.43451649516E+01  0.00000000000E+00 0. -1.
</event>
<event>
 7    1  0.2250716E-008  0.4614232E+02  0.7816164E-02  0.1320468E+00
        -11   -1    0    0    0    0  0.00000000000E+00  0.00000000000E+00  0.45593999997E+02  0.45594000000E+02  0.51100000000E-03 0. -1.
         11   -1    0    0    0    0 -0.00000000000E+00 -0.00000000000E+00 -0.45593999997E+02  0.45594000000E+02  0.51100000000E-03 0.  1.
    9900012    2    1    2    0    0 -0.13730397132E+02 -0.41860125493E+02 -0.93978545263E+01  0.46142316729E+02  0.99999905850E+01 0.  0.
         12    1    1    2    0    0  0.13730397132E+02  0.41860125493E+02  0.93978545263E+01  0.45045683271E+02  0.00000000000E+00 0. -1.
         11    1    3    3    0    0 -0.20389760652E+01 -0.10296430683E+02 -0.48317697770E+01  0.11555081464E+02  0.51100000000E-03 0. -1.
        -11    1    3    3    0    0 -0.49239883579E+01 -0.18234178336E+02 -0.53103987860E+01  0.19619665044E+02  0.51100000000E-03 0.  1.
        -12    1    3    3    0    0 -0.67674327091E+01 -0.13329516474E+02  0.74431403674E+00  0.14967570220E+02  0.00000000000E+00 0.  1.
</event>
<event>
 7    1  0.2250716E-008  0.4614232E+02  0.7816164E-02  0.1320468E+00
        -11   -1    0    0    0    0  0.00000000000E+00  0.00000000000E+00  0.45593999997E+02  0.45594000000E+02  0.51100000000E-03 0. -1.
         11   -1    0    0    0    0 -0.00000000000E+00 -0.00000000000E+00 -0.45593999997E+02  0.45594000000E+02  0.51100000000E-03 0.  1.
    9900012    2    1    2    0    0 -0.41254896134E+02  0.17845846866E+02 -0.29449892147E+01  0.46142315780E+02  0.99999819302E+01 0.  0.
         12    1    1    2    0    0  0.41254896134E+02 -0.17845846866E+02  0.29449892147E+01  0.45045684220E+02  0.00000000000E+00 0. -1.
         11    1    3    3    0    0  0.18414038335E+00 -0.14698847771E+00  0.25274324208E+00  0.34553248892E+00  0.51100000000E-03 0. -1.
        -11    1    3    3    0    0 -0.12866583615E+02  0.22722457145E+01 -0.53645100401E+00  0.13076691266E+02  0.51100000000E-03 0.  1.
         12    1    3    3    0    0 -0.28572452902E+02  0.15720589630E+02 -0.26612814528E+01  0.32720092025E+02  0.00000000000E+00 0. -1.
</event>
<event>
 7    1  0.2250716E-008  0.4614232E+02  0.7816164E-02  0.1320468E+00
        -11   -1    0    0    0    0  0.00000000000E+00  0.00000000000E+00  0.45593999997E+02  0.45594000000E+02  0.51100000000E-03 0.  1.
         11   -1    0    0    0    0 -0.00000000000E+00 -0.00000000000E+00 -0.45593999997E+02  0.45594000000E+02  0.51100000000E-03 0. -1.
    9900012    2    1    2    0    0  0.15661131933E+02 -0.21613285419E+02  0.36286476012E+02  0.46142317617E+02  0.99999986822E+01 0.  0.
         12    1    1    2    0    0 -0.15661131933E+02  0.21613285419E+02 -0.36286476012E+02  0.45045682383E+02  0.00000000000E+00 0. -1.
         11    1    3    3    0    0  0.33900383069E+01 -0.54797898200E+01  0.37312536645E+01  0.74459861915E+01  0.51100000000E-03 0. -1.
        -11    1    3    3    0    0  0.35448303244E+01 -0.40371198982E+01  0.13269261947E+02  0.14315637324E+02  0.51100000000E-03 0.  1.
         12    1    3    3    0    0  0.87262633019E+01 -0.12096375701E+02  0.19285960400E+02  0.24380694101E+02  0.00000000000E+00 0. -1.
</event>
<event>
 7    1  0.2250716E-008  0.4614232E+02  0.7816164E-02  0.1320468E+00
        -11   -1    0    0    0    0  0.00000000000E+00  0.00000000000E+00  0.45593999997E+02  0.45594000000E+02  0.51100000000E-03 0. -1.
         11   -1    0    0    0    0 -0.00000000000E+00 -0.00000000000E+00 -0.45593999997E+02  0.45594000000E+02  0.51100000000E-03 0.  1.
    9900012    2    1    2    0    0  0.15235070546E+02 -0.26301257418E+02  0.33245299742E+02  0.46142317951E+02  0.10000001735E+02 0.  0.
         12    1    1    2    0    0 -0.15235070546E+02  0.26301257418E+02 -0.33245299742E+02  0.45045682049E+02  0.00000000000E+00 0. -1.
         11    1    3    3    0    0  0.11497669781E+02 -0.14485083901E+02  0.25396380380E+02  0.31416400218E+02  0.51100000000E-03 0. -1.
        -11    1    3    3    0    0  0.92971212367E+00 -0.42930125855E+01  0.33265436420E+01  0.55100103952E+01  0.51100000000E-03 0.  1.
         12    1    3    3    0    0  0.28076886407E+01 -0.75231609317E+01  0.45223757200E+01  0.92159073379E+01  0.00000000000E+00 0. -1.
</event>
<event>
 7    1  0.2250716E-008  0.4614232E+02  0.7816164E-02  0.1320468E+00
        -11   -1    0    0    0    0  0.00000000000E+00  0.00000000000E+00  0.45593999997E+02  0.45594000000E+02  0.51100000000E-03 0. -1.
         11   -1    0    0    0    0 -0.00000000000E+00 -0.00000000000E+00 -0.45593999997E+02  0.45594000000E+02  0.51100000000E-03 0.  1.
    9900012    2    1    2    0    0 -0.20330326622E+02  0.40053361501E+02  0.33940479375E+01  0.46142317527E+02  0.99999978631E+01 0.  0.
         12    1    1    2    0    0  0.20330326622E+02 -0.40053361501E+02 -0.33940479375E+01  0.45045682473E+02  0.00000000000E+00 0. -1.
         11    1    3    3    0    0 -0.21475335964E+01  0.20684844703E+01  0.21990919135E+01  0.37049337453E+01  0.51100000000E-03 0. -1.
        -11    1    3    3    0    0 -0.14061279314E+02  0.30454861593E+02  0.29565870819E+01  0.33674316296E+02  0.51100000000E-03 0.  1.
        -12    1    3    3    0    0 -0.41215137111E+01  0.75300154378E+01 -0.17616310579E+01  0.87630674851E+01  0.00000000000E+00 0.  1.
</event>
<event>
 7    1  0.2250716E-008  0.4614232E+02  0.7816164E-02  0.1320468E+00
        -11   -1    0    0    0    0  0.00000000000E+00  0.00000000000E+00  0.45593999997E+02  0.45594000000E+02  0.51100000000E-03 0.  1.
         11   -1    0    0    0    0 -0.00000000000E+00 -0.00000000000E+00 -0.45593999997E+02  0.45594000000E+02  0.51100000000E-03 0. -1.
    9900012    2    1    2    0    0  0.85710998916E+01  0.30131383753E+02  0.32368957822E+02  0.46142317958E+02  0.10000001791E+02 0.  0.
         12    1    1    2    0    0 -0.85710998916E+01 -0.30131383753E+02 -0.32368957822E+02  0.45045682042E+02  0.00000000000E+00 0. -1.
         11    1    3    3    0    0  0.43115894324E+01  0.59216784036E+01  0.32249539109E+01  0.80035246322E+01  0.51100000000E-03 0. -1.
        -11    1    3    3    0    0  0.31851034751E+01  0.20180376772E+02  0.24121267533E+02  0.31610568462E+02  0.51100000000E-03 0.  1.
         12    1    3    3    0    0  0.10744069841E+01  0.40293285770E+01  0.50227363780E+01  0.65282248637E+01  0.00000000000E+00 0. -1.
</event>
<event>
 7    1  0.2250716E-008  0.4614232E+02  0.7816164E-02  0.1320468E+00
        -11   -1    0    0    0    0  0.00000000000E+00  0.00000000000E+00  0.45593999997E+02  0.45594000000E+02  0.51100000000E-03 0.  1.
         11   -1    0    0    0    0 -0.00000000000E+00 -0.00000000000E+00 -0.45593999997E+02  0.45594000000E+02  0.51100000000E-03 0. -1.
    9900012    2    1    2    0    0 -0.43349006282E+02 -0.10981455664E+02  0.54207615813E+01  0.46142319072E+02  0.10000011954E+02 0.  0.
         12    1    1    2    0    0  0.43349006282E+02  0.10981455664E+02 -0.54207615813E+01  0.45045680928E+02  0.00000000000E+00 0. -1.
         11    1    3    3    0    0 -0.13782662362E+02 -0.38476265264E+01  0.57794047546E+01  0.15432677384E+02  0.51100000000E-03 0.  1.
        -11    1    3    3    0    0 -0.21421447745E+02 -0.39502391106E+01  0.12478153751E+01  0.21818337608E+02  0.51100000000E-03 0. -1.
         12    1    3    3    0    0 -0.81448961753E+01 -0.31835900266E+01 -0.16064585484E+01  0.88913040794E+01  0.00000000000E+00 0. -1.
</event>
<event>
 7    1  0.2250716E-008  0.4614232E+02  0.7816164E-02  0.1320468E+00
        -11   -1    0    0    0    0  0.00000000000E+00  0.00000000000E+00  0.45593999997E+02  0.45594000000E+02  0.51100000000E-03 0.  1.
         11   -1    0    0    0    0 -0.00000000000E+00 -0.00000000000E+00 -0.45593999997E+02  0.45594000000E+02  0.51100000000E-03 0. -1.
    9900012    2    1    2    0    0  0.12866742271E+02  0.39498166671E+02  0.17419963895E+02  0.46142319085E+02  0.10000012069E+02 0.  0.
         12    1    1    2    0    0 -0.12866742271E+02 -0.39498166671E+02 -0.17419963895E+02  0.45045680915E+02  0.00000000000E+00 0. -1.
         11    1    3    3    0    0  0.21901648703E+01  0.12842601691E+02  0.49761771068E+01  0.13946023778E+02  0.51100000000E-03 0. -1.
        -11    1    3    3    0    0  0.16857198127E+00  0.90620352321E+01  0.52692594114E+01  0.10483987508E+02  0.51100000000E-03 0.  1.
         12    1    3    3    0    0  0.10508005419E+02  0.17593529748E+02  0.71745273768E+01  0.21712307799E+02  0.00000000000E+00 0. -1.
</event>
<event>
 7    1  0.2250716E-008  0.4614232E+02  0.7816164E-02  0.1320468E+00
        -11   -1    0    0    0    0  0.00000000000E+00  0.00000000000E+00  0.45593999997E+02  0.45594000000E+02  0.51100000000E-03 0. -1.
         11   -1    0    0    0    0 -0.00000000000E+00 -0.00000000000E+00 -0.45593999997E+02  0.45594000000E+02  0.51100000000E-03 0.  1.
    9900012    2    1    2    0    0 -0.72030347045E+01  0.44210086921E+02  0.47642358853E+01  0.46142318319E+02  0.10000005091E+02 0.  0.
         12    1    1    2    0    0  0.72030347045E+01 -0.44210086921E+02 -0.47642358853E+01  0.45045681681E+02  0.00000000000E+00 0. -1.
         11    1    3    3    0    0  0.71103717375E+00  0.11723531949E+02  0.16831173657E+01  0.11865060452E+02  0.51100000000E-03 0. -1.
        -11    1    3    3    0    0 -0.88695018172E+01  0.28358713747E+02  0.38799946379E+01  0.29965631422E+02  0.51100000000E-03 0.  1.
        -12    1    3    3    0    0  0.95542993894E+00  0.41278412248E+01 -0.79887611834E+00  0.43116264446E+01  0.00000000000E+00 0.  1.
</event>
<event>
 7    1  0.2250716E-008  0.4614232E+02  0.7816164E-02  0.1320468E+00
        -11   -1    0    0    0    0  0.00000000000E+00  0.00000000000E+00  0.45593999997E+02  0.45594000000E+02  0.51100000000E-03 0.  1.
         11   -1    0    0    0    0 -0.00000000000E+00 -0.00000000000E+00 -0.45593999997E+02  0.45594000000E+02  0.51100000000E-03 0. -1.
    9900012    2    1    2    0    0  0.12796213663E+02  0.15509953099E+02  0.40308953714E+02  0.46142317867E+02  0.10000000966E+02 0.  0.
         12    1    1    2    0    0 -0.12796213663E+02 -0.15509953099E+02 -0.40308953714E+02  0.45045682133E+02  0.00000000000E+00 0. -1.
         11    1    3    3    0    0  0.52674851384E+01  0.97300667417E+01  0.17440380665E+02  0.20653994202E+02  0.51100000000E-03 0. -1.
        -11    1    3    3    0    0  0.25567173711E+01  0.56279592572E+01  0.14331183311E+02  0.15607483605E+02  0.51100000000E-03 0.  1.
        -12    1    3    3    0    0  0.49720111539E+01  0.15192710054E+00  0.85373897386E+01  0.98808400608E+01  0.00000000000E+00 0.  1.
</event>
<event>
 7    1  0.2250716E-008  0.4614232E+02  0.7816164E-02  0.1320468E+00
        -11   -1    0    0    0    0  0.00000000000E+00  0.00000000000E+00  0.45593999997E+02  0.45594000000E+02  0.51100000000E-03 0. -1.
         11   -1    0    0    0    0 -0.00000000000E+00 -0.00000000000E+00 -0.45593999997E+02  0.45594000000E+02  0.51100000000E-03 0.  1.
    9900012    2    1    2    0    0 -0.81303291923E+01  0.20484042471E+02 -0.39286320136E+02  0.46142320978E+02  0.10000029337E+02 0.  0.
         12    1    1    2    0    0  0.81303291923E+01 -0.20484042471E+02  0.39286320136E+02  0.45045679022E+02  0.00000000000E+00 0. -1.
         11    1    3    3    0    0  0.20822289377E+01  0.35974729764E+01 -0.66261866240E+01  0.78220098825E+01  0.51100000000E-03 0. -1.
        -11    1    3    3    0    0 -0.37561012873E+01  0.61783819129E+01 -0.88645592030E+01  0.11439454098E+02  0.51100000000E-03 0.  1.
        -12    1    3    3    0    0 -0.64564568427E+01  0.10708187582E+02 -0.23795574309E+02  0.26880856998E+02  0.00000000000E+00 0.  1.
</event>
<event>
 7    1  0.2250716E-008  0.4614232E+02  0.7816164E-02  0.1320468E+00
        -11   -1    0    0    0    0  0.00000000000E+00  0.00000000000E+00  0.45593999997E+02  0.45594000000E+02  0.51100000000E-03 0.  1.
         11   -1    0    0    0    0 -0.00000000000E+00 -0.00000000000E+00 -0.45593999997E+02  0.45594000000E+02  0.51100000000E-03 0. -1.
    9900012    2    1    2    0    0 -0.39859589832E+02  0.15914051244E+02  0.13677337028E+02  0.46142317890E+02  0.10000001178E+02 0.  0.
         12    1    1    2    0    0  0.39859589832E+02 -0.15914051244E+02 -0.13677337028E+02  0.45045682110E+02  0.00000000000E+00 0. -1.
         11    1    3    3    0    0 -0.18801097124E+02  0.36310258062E+01  0.91577780494E+01  0.21225703770E+02  0.51100000000E-03 0. -1.
        -11    1    3    3    0    0 -0.13334048846E+01  0.50201811235E+00  0.82387653362E+00  0.16458321832E+01  0.51100000000E-03 0.  1.
         12    1    3    3    0    0 -0.19725087823E+02  0.11781007325E+02  0.36956824451E+01  0.23270781937E+02  0.00000000000E+00 0. -1.
</event>
<event>
 7    1  0.2250716E-008  0.4614232E+02  0.7816164E-02  0.1320468E+00
        -11   -1    0    0    0    0  0.00000000000E+00  0.00000000000E+00  0.45593999997E+02  0.45594000000E+02  0.51100000000E-03 0.  1.
         11   -1    0    0    0    0 -0.00000000000E+00 -0.00000000000E+00 -0.45593999997E+02  0.45594000000E+02  0.51100000000E-03 0. -1.
    9900012    2    1    2    0    0 -0.30829124954E+02  0.23766689558E+02 -0.22667661796E+02  0.46142319083E+02  0.10000012056E+02 0.  0.
         12    1    1    2    0    0  0.30829124954E+02 -0.23766689558E+02  0.22667661796E+02  0.45045680917E+02  0.00000000000E+00 0. -1.
         11    1    3    3    0    0 -0.83959403973E+01  0.59432136839E+01 -0.78833554426E+01  0.12959972891E+02  0.51100000000E-03 0. -1.
        -11    1    3    3    0    0 -0.69146135292E+01  0.18271822589E+01 -0.17470435696E+01  0.73622440031E+01  0.51100000000E-03 0.  1.
        -12    1    3    3    0    0 -0.15518571027E+02  0.15996293615E+02 -0.13037262784E+02  0.25820102189E+02  0.00000000000E+00 0.  1.
</event>
<event>
 7    1  0.2250716E-008  0.4614232E+02  0.7816164E-02  0.1320468E+00
        -11   -1    0    0    0    0  0.00000000000E+00  0.00000000000E+00  0.45593999997E+02  0.45594000000E+02  0.51100000000E-03 0.  1.
         11   -1    0    0    0    0 -0.00000000000E+00 -0.00000000000E+00 -0.45593999997E+02  0.45594000000E+02  0.51100000000E-03 0. -1.
    9900012    2    1    2    0    0  0.16766327223E+02 -0.35564529896E+02  0.21981082895E+02  0.46142317404E+02  0.99999967448E+01 0.  0.
         12    1    1    2    0    0 -0.16766327223E+02  0.35564529896E+02 -0.21981082895E+02  0.45045682596E+02  0.00000000000E+00 0. -1.
         11    1    3    3    0    0  0.53678715503E+01 -0.63383104093E+01  0.74241895025E+01  0.11140323777E+02  0.51100000000E-03 0. -1.
        -11    1    3    3    0    0  0.11294798772E+02 -0.25737820060E+02  0.14209730894E+02  0.31494829942E+02  0.51100000000E-03 0.  1.
         12    1    3    3    0    0  0.10365690128E+00 -0.34883994272E+01  0.34716249869E+00  0.35071636856E+01  0.00000000000E+00 0. -1.
</event>
<event>
 7    1  0.2250716E-008  0.4614232E+02  0.7816164E-02  0.1320468E+00
        -11   -1    0    0    0    0  0.00000000000E+00  0.00000000000E+00  0.45593999997E+02  0.45594000000E+02  0.51100000000E-03 0.  1.
         11   -1    0    0    0    0 -0.00000000000E+00 -0.00000000000E+00 -0.45593999997E+02  0.45594000000E+02  0.51100000000E-03 0. -1.
    9900012    2    1    2    0    0  0.17553150835E+01  0.17850853505E+02  0.41320447698E+02  0.46142317633E+02  0.99999988339E+01 0.  0.
         12    1    1    2    0    0 -0.17553150835E+01 -0.17850853505E+02 -0.41320447698E+02  0.45045682367E+02  0.00000000000E+00 0. -1.
         11    1    3    3    0    0  0.13338619901E+01  0.23375365782E+01  0.13890517290E+01  0.30286515200E+01  0.51100000000E-03 0. -1.
        -11    1    3    3    0    0 -0.19711022242E+01  0.94961346109E+01  0.26030044716E+02  0.27778139691E+02  0.51100000000E-03 0.  1.
         12    1    3    3    0    0  0.23925553176E+01  0.60171823158E+01  0.13901351253E+02  0.15335526422E+02  0.00000000000E+00 0. -1.
</event>
<event>
 7    1  0.2250716E-008  0.4614232E+02  0.7816164E-02  0.1320468E+00
        -11   -1    0    0    0    0  0.00000000000E+00  0.00000000000E+00  0.45593999997E+02  0.45594000000E+02  0.51100000000E-03 0.  1.
         11   -1    0    0    0    0 -0.00000000000E+00 -0.00000000000E+00 -0.45593999997E+02  0.45594000000E+02  0.51100000000E-03 0. -1.
    9900012    2    1    2    0    0  0.11429748601E+00  0.69287090194E+01  0.44509477039E+02  0.46142316312E+02  0.99999867881E+01 0.  0.
         12    1    1    2    0    0 -0.11429748601E+00 -0.69287090194E+01 -0.44509477039E+02  0.45045683688E+02  0.00000000000E+00 0. -1.
         11    1    3    3    0    0  0.18991513790E+01 -0.12990070646E+01  0.10246498515E+02  0.10501663077E+02  0.51100000000E-03 0.  1.
        -11    1    3    3    0    0 -0.29623446164E+01  0.30546796973E+01  0.11348591859E+02  0.12120111020E+02  0.51100000000E-03 0. -1.
        -12    1    3    3    0    0  0.11774907234E+01  0.51730363867E+01  0.22914386665E+02  0.23520542215E+02  0.00000000000E+00 0.  1.
</event>
<event>
 7    1  0.2250716E-008  0.4614232E+02  0.7816164E-02  0.1320468E+00
        -11   -1    0    0    0    0  0.00000000000E+00  0.00000000000E+00  0.45593999997E+02  0.45594000000E+02  0.51100000000E-03 0.  1.
         11   -1    0    0    0    0 -0.00000000000E+00 -0.00000000000E+00 -0.45593999997E+02  0.45594000000E+02  0.51100000000E-03 0. -1.
    9900012    2    1    2    0    0 -0.22387100240E+02  0.36469932365E+02  0.14066814164E+02  0.46142317803E+02  0.10000000384E+02 0.  0.
         12    1    1    2    0    0  0.22387100240E+02 -0.36469932365E+02 -0.14066814164E+02  0.45045682197E+02  0.00000000000E+00 0. -1.
         11    1    3    3    0    0 -0.66224548437E+01  0.57280844153E+01  0.42051508518E+01  0.97134521759E+01  0.51100000000E-03 0. -1.
        -11    1    3    3    0    0 -0.14078050353E+02  0.29295671711E+02  0.10430711351E+02  0.34135430601E+02  0.51100000000E-03 0.  1.
         12    1    3    3    0    0 -0.16865950427E+01  0.14461762384E+01 -0.56904803864E+00  0.22934350265E+01  0.00000000000E+00 0. -1.
</event>
<event>
 7    1  0.2250716E-008  0.4614232E+02  0.7816164E-02  0.1320468E+00
        -11   -1    0    0    0    0  0.00000000000E+00  0.00000000000E+00  0.45593999997E+02  0.45594000000E+02  0.51100000000E-03 0.  1.
         11   -1    0    0    0    0 -0.00000000000E+00 -0.00000000000E+00 -0.45593999997E+02  0.45594000000E+02  0.51100000000E-03 0. -1.
    9900012    2    1    2    0    0 -0.34072997419E+01 -0.43939748851E+02  0.93167758019E+01  0.46142317277E+02  0.99999955856E+01 0.  0.
         12    1    1    2    0    0  0.34072997419E+01  0.43939748851E+02 -0.93167758019E+01  0.45045682723E+02  0.00000000000E+00 0. -1.
         11    1    3    3    0    0  0.15852852006E+01 -0.19456058429E+02  0.13065943261E+01  0.19564215490E+02  0.51100000000E-03 0. -1.
        -11    1    3    3    0    0 -0.14723172630E+01 -0.20568919089E+01  0.77798862494E-01  0.25307262539E+01  0.51100000000E-03 0.  1.
        -12    1    3    3    0    0 -0.35202676794E+01 -0.22426798514E+02  0.79323826133E+01  0.24047375533E+02  0.00000000000E+00 0.  1.
</event>
<event>
 7    1  0.2250716E-008  0.4614232E+02  0.7816164E-02  0.1320468E+00
        -11   -1    0    0    0    0  0.00000000000E+00  0.00000000000E+00  0.45593999997E+02  0.45594000000E+02  0.51100000000E-03 0.  1.
         11   -1    0    0    0    0 -0.00000000000E+00 -0.00000000000E+00 -0.45593999997E+02  0.45594000000E+02  0.51100000000E-03 0. -1.
    9900012    2    1    2    0    0 -0.80080913815E+01  0.14103287078E+02  0.42024769591E+02  0.46142317708E+02  0.99999995187E+01 0.  0.
         12    1    1    2    0    0  0.80080913815E+01 -0.14103287078E+02 -0.42024769591E+02  0.45045682292E+02  0.00000000000E+00 0. -1.
         11    1    3    3    0    0 -0.93916420295E+01  0.12642942818E+02  0.32910197471E+02  0.36484627461E+02  0.51100000000E-03 0.  1.
        -11    1    3    3    0    0  0.21753906944E+00  0.27330873932E+00  0.67899582537E+01  0.67989377304E+01  0.51100000000E-03 0. -1.
        -12    1    3    3    0    0  0.11660115786E+01  0.11870355211E+01  0.23246138659E+01  0.28587525173E+01  0.00000000000E+00 0.  1.
</event>
<event>
 7    1  0.2250716E-008  0.4614232E+02  0.7816164E-02  0.1320468E+00
        -11   -1    0    0    0    0  0.00000000000E+00  0.00000000000E+00  0.45593999997E+02  0.45594000000E+02  0.51100000000E-03 0.  1.
         11   -1    0    0    0    0 -0.00000000000E+00 -0.00000000000E+00 -0.45593999997E+02  0.45594000000E+02  0.51100000000E-03 0. -1.
    9900012    2    1    2    0    0  0.34719719462E+02 -0.23320158943E+02  0.16727967490E+02  0.46142316201E+02  0.99999857698E+01 0.  0.
         12    1    1    2    0    0 -0.34719719462E+02  0.23320158943E+02 -0.16727967490E+02  0.45045683799E+02  0.00000000000E+00 0. -1.
         11    1    3    3    0    0  0.11147103919E+02 -0.45411536500E+01  0.13862948617E+01  0.12116179924E+02  0.51100000000E-03 0. -1.
        -11    1    3    3    0    0  0.83725752566E+01 -0.57346543458E+01  0.33795998208E+01  0.10696166234E+02  0.51100000000E-03 0.  1.
         12    1    3    3    0    0  0.15200040286E+02 -0.13044350947E+02  0.11962072807E+02  0.23329970042E+02  0.00000000000E+00 0. -1.
</event>
<event>
 7    1  0.2250716E-008  0.4614231E+02  0.7816164E-02  0.1320468E+00
        -11   -1    0    0    0    0  0.00000000000E+00  0.00000000000E+00  0.45593999997E+02  0.45594000000E+02  0.51100000000E-03 0.  1.
         11   -1    0    0    0    0 -0.00000000000E+00 -0.00000000000E+00 -0.45593999997E+02  0.45594000000E+02  0.51100000000E-03 0. -1.
    9900012    2    1    2    0    0  0.27628087302E+02  0.34244665539E+02 -0.96491213923E+01  0.46142313531E+02  0.99999614237E+01 0.  0.
         12    1    1    2    0    0 -0.27628087302E+02 -0.34244665539E+02  0.96491213923E+01  0.45045686469E+02  0.00000000000E+00 0. -1.
         11    1    3    3    0    0  0.14071090094E+01  0.60909986423E+01 -0.76940747485E+00  0.62985878059E+01  0.51100000000E-03 0. -1.
        -11    1    3    3    0    0  0.17799323086E+02  0.18785391255E+02 -0.85068820214E+01  0.27241032816E+02  0.51100000000E-03 0.  1.
        -12    1    3    3    0    0  0.84216552070E+01  0.93682756421E+01 -0.37283189610E+00  0.12602692909E+02  0.00000000000E+00 0.  1.
</event>
<event>
 7    1  0.2250716E-008  0.4614232E+02  0.7816164E-02  0.1320468E+00
        -11   -1    0    0    0    0  0.00000000000E+00  0.00000000000E+00  0.45593999997E+02  0.45594000000E+02  0.51100000000E-03 0.  1.
         11   -1    0    0    0    0 -0.00000000000E+00 -0.00000000000E+00 -0.45593999997E+02  0.45594000000E+02  0.51100000000E-03 0. -1.
    9900012    2    1    2    0    0  0.14940823268E+02  0.40677706745E+02 -0.12296726147E+02  0.46142317634E+02  0.99999988377E+01 0.  0.
         12    1    1    2    0    0 -0.14940823268E+02 -0.40677706745E+02  0.12296726147E+02  0.45045682366E+02  0.00000000000E+00 0. -1.
         11    1    3    3    0    0 -0.18201719951E+00  0.52908647474E+00  0.39277384316E+00  0.68361854250E+00  0.51100000000E-03 0. -1.
        -11    1    3    3    0    0  0.26638800793E+01  0.13602448793E+02 -0.10223825778E+01  0.13898494042E+02  0.51100000000E-03 0.  1.
        -12    1    3    3    0    0  0.12458960388E+02  0.26546171477E+02 -0.11667117412E+02  0.31560205049E+02  0.00000000000E+00 0.  1.
</event>
<event>
 7    1  0.2250716E-008  0.4614232E+02  0.7816164E-02  0.1320468E+00
        -11   -1    0    0    0    0  0.00000000000E+00  0.00000000000E+00  0.45593999997E+02  0.45594000000E+02  0.51100000000E-03 0. -1.
         11   -1    0    0    0    0 -0.00000000000E+00 -0.00000000000E+00 -0.45593999997E+02  0.45594000000E+02  0.51100000000E-03 0.  1.
    9900012    2    1    2    0    0  0.15716119935E+02 -0.41610560469E+02  0.71188691580E+01  0.46142318004E+02  0.10000002215E+02 0.  0.
         12    1    1    2    0    0 -0.15716119935E+02  0.41610560469E+02 -0.71188691580E+01  0.45045681996E+02  0.00000000000E+00 0. -1.
         11    1    3    3    0    0  0.46371394421E+01 -0.59141976394E+01  0.20190015421E+01  0.77818483287E+01  0.51100000000E-03 0. -1.
        -11    1    3    3    0    0  0.10240782283E+02 -0.31416357542E+02  0.66984271978E+01  0.33715427776E+02  0.51100000000E-03 0.  1.
        -12    1    3    3    0    0  0.83819821040E+00 -0.42800052883E+01 -0.15985595819E+01  0.46450418992E+01  0.00000000000E+00 0.  1.
</event>
<event>
 7    1  0.2250716E-008  0.4614232E+02  0.7816164E-02  0.1320468E+00
        -11   -1    0    0    0    0  0.00000000000E+00  0.00000000000E+00  0.45593999997E+02  0.45594000000E+02  0.51100000000E-03 0. -1.
         11   -1    0    0    0    0 -0.00000000000E+00 -0.00000000000E+00 -0.45593999997E+02  0.45594000000E+02  0.51100000000E-03 0.  1.
    9900012    2    1    2    0    0 -0.39507511741E+02 -0.13107365677E+02  0.17218216055E+02  0.46142317820E+02  0.10000000533E+02 0.  0.
         12    1    1    2    0    0  0.39507511741E+02  0.13107365677E+02 -0.17218216055E+02  0.45045682180E+02  0.00000000000E+00 0. -1.
         11    1    3    3    0    0 -0.49728809115E+01 -0.50796417172E+00  0.46063463983E+01  0.67974995080E+01  0.51100000000E-03 0. -1.
        -11    1    3    3    0    0 -0.25581339878E+01 -0.40255389460E+00 -0.60218583071E+00  0.26587078015E+01  0.51100000000E-03 0.  1.
        -12    1    3    3    0    0 -0.31976496842E+02 -0.12196847611E+02  0.13214055487E+02  0.36686110510E+02  0.00000000000E+00 0.  1.
</event>
<event>
 7    1  0.2250716E-008  0.4614232E+02  0.7816164E-02  0.1320468E+00
        -11   -1    0    0    0    0  0.00000000000E+00  0.00000000000E+00  0.45593999997E+02  0.45594000000E+02  0.51100000000E-03 0.  1.
         11   -1    0    0    0    0 -0.00000000000E+00 -0.00000000000E+00 -0.45593999997E+02  0.45594000000E+02  0.51100000000E-03 0. -1.
    9900012    2    1    2    0    0 -0.33882190603E+02  0.92568298379E+01  0.28203222350E+02  0.46142317747E+02  0.99999998709E+01 0.  0.
         12    1    1    2    0    0  0.33882190603E+02 -0.92568298379E+01 -0.28203222350E+02  0.45045682253E+02  0.00000000000E+00 0. -1.
         11    1    3    3    0    0 -0.23227383093E+01  0.12268378332E+01  0.10770741274E+01  0.28390726055E+01  0.51100000000E-03 0. -1.
        -11    1    3    3    0    0 -0.52152113322E+01  0.48889539632E+01  0.46120944677E+01  0.85071567362E+01  0.51100000000E-03 0.  1.
         12    1    3    3    0    0 -0.26344240962E+02  0.31410380415E+01  0.22514053755E+02  0.34796088405E+02  0.00000000000E+00 0. -1.
</event>
<event>
 7    1  0.2250716E-008  0.4614232E+02  0.7816164E-02  0.1320468E+00
        -11   -1    0    0    0    0  0.00000000000E+00  0.00000000000E+00  0.45593999997E+02  0.45594000000E+02  0.51100000000E-03 0.  1.
         11   -1    0    0    0    0 -0.00000000000E+00 -0.00000000000E+00 -0.45593999997E+02  0.45594000000E+02  0.51100000000E-03 0. -1.
    9900012    2    1    2    0    0 -0.17442604684E+01 -0.16906472577E+02  0.41716210298E+02  0.46142318063E+02  0.10000002750E+02 0.  0.
         12    1    1    2    0    0  0.17442604684E+01  0.16906472577E+02 -0.41716210298E+02  0.45045681937E+02  0.00000000000E+00 0. -1.
         11    1    3    3    0    0  0.16466222120E+01 -0.11200588313E+02  0.18974011941E+02  0.22094743100E+02  0.51100000000E-03 0. -1.
        -11    1    3    3    0    0 -0.94821472852E+00 -0.24737098028E+01  0.35337722384E+01  0.44165481832E+01  0.51100000000E-03 0.  1.
         12    1    3    3    0    0 -0.24426679518E+01 -0.32321744618E+01  0.19208426119E+02  0.19631026780E+02  0.00000000000E+00 0. -1.
</event>
<event>
 7    1  0.2250716E-008  0.4614232E+02  0.7816164E-02  0.1320468E+00
        -11   -1    0    0    0    0  0.00000000000E+00  0.00000000000E+00  0.45593999997E+02  0.45594000000E+02  0.51100000000E-03 0.  1.
         11   -1    0    0    0    0 -0.00000000000E+00 -0.00000000000E+00 -0.45593999997E+02  0.45594000000E+02  0.51100000000E-03 0. -1.
    9900012    2    1    2    0    0  0.21154400519E+02 -0.11661028833E+02  0.38021378762E+02  0.46142317658E+02  0.99999990556E+01 0.  0.
         12    1    1    2    0    0 -0.21154400519E+02  0.11661028833E+02 -0.38021378762E+02  0.45045682342E+02  0.00000000000E+00 0. -1.
         11    1    3    3    0    0  0.20140786007E+01 -0.41932254012E+01  0.10320697747E+02  0.11320620748E+02  0.51100000000E-03 0. -1.
        -11    1    3    3    0    0  0.79913285759E+00 -0.12460346481E+01  0.36731100155E+01  0.39601708442E+01  0.51100000000E-03 0.  1.
        -12    1    3    3    0    0  0.18341189061E+02 -0.62217687832E+01  0.24027570999E+02  0.30861526066E+02  0.00000000000E+00 0.  1.
</event>
<event>
 7    1  0.2250716E-008  0.4614232E+02  0.7816164E-02  0.1320468E+00
        -11   -1    0    0    0    0  0.00000000000E+00  0.00000000000E+00  0.45593999997E+02  0.45594000000E+02  0.51100000000E-03 0.  1.
         11   -1    0    0    0    0 -0.00000000000E+00 -0.00000000000E+00 -0.45593999997E+02  0.45594000000E+02  0.51100000000E-03 0. -1.
    9900012    2    1    2    0    0 -0.38245659501E+02 -0.40548793760E+01  0.23450820917E+02  0.46142317420E+02  0.99999968859E+01 0.  0.
         12    1    1    2    0    0  0.38245659501E+02  0.40548793760E+01 -0.23450820917E+02  0.45045682580E+02  0.00000000000E+00 0. -1.
         11    1    3    3    0    0 -0.44037664499E+01  0.28141005998E+00  0.37033869360E+01  0.57608528557E+01  0.51100000000E-03 0. -1.
        -11    1    3    3    0    0 -0.33824602034E+02 -0.49138527195E+01  0.18186257312E+02  0.38716787142E+02  0.51100000000E-03 0.  1.
         12    1    3    3    0    0 -0.17291017087E-01  0.57756328358E+00  0.15611766693E+01  0.16646774217E+01  0.00000000000E+00 0. -1.
</event>
<event>
 7    1  0.2250716E-008  0.4614232E+02  0.7816164E-02  0.1320468E+00
        -11   -1    0    0    0    0  0.00000000000E+00  0.00000000000E+00  0.45593999997E+02  0.45594000000E+02  0.51100000000E-03 0.  1.
         11   -1    0    0    0    0 -0.00000000000E+00 -0.00000000000E+00 -0.45593999997E+02  0.45594000000E+02  0.51100000000E-03 0. -1.
    9900012    2    1    2    0    0 -0.14163141284E+02 -0.41981705906E+02 -0.81274380808E+01  0.46142318170E+02  0.10000003727E+02 0.  0.
         12    1    1    2    0    0  0.14163141284E+02  0.41981705906E+02  0.81274380808E+01  0.45045681830E+02  0.00000000000E+00 0. -1.
         11    1    3    3    0    0 -0.70022488596E+01 -0.18663539218E+02 -0.25035210804E+01  0.20090465482E+02  0.51100000000E-03 0. -1.
        -11    1    3    3    0    0 -0.71083640238E+00 -0.12014508546E+02 -0.49690083969E+01  0.13020935016E+02  0.51100000000E-03 0.  1.
        -12    1    3    3    0    0 -0.64500560221E+01 -0.11303658142E+02 -0.65490860348E+00  0.13030917672E+02  0.00000000000E+00 0.  1.
</event>
<event>
 7    1  0.2250716E-008  0.4614232E+02  0.7816164E-02  0.1320468E+00
        -11   -1    0    0    0    0  0.00000000000E+00  0.00000000000E+00  0.45593999997E+02  0.45594000000E+02  0.51100000000E-03 0.  1.
         11   -1    0    0    0    0 -0.00000000000E+00 -0.00000000000E+00 -0.45593999997E+02  0.45594000000E+02  0.51100000000E-03 0. -1.
    9900012    2    1    2    0    0  0.54131589787E+01 -0.44719188111E+02 -0.73156589332E-01  0.46142318439E+02  0.10000006183E+02 0.  0.
         12    1    1    2    0    0 -0.54131589787E+01  0.44719188111E+02  0.73156589332E-01  0.45045681561E+02  0.00000000000E+00 0. -1.
         11    1    3    3    0    0 -0.16041527825E+01 -0.97776939459E+01 -0.26837456080E+01  0.10265432081E+02  0.51100000000E-03 0.  1.
        -11    1    3    3    0    0  0.37225323127E+01 -0.15690805390E+02 -0.30882446324E+00  0.16129289922E+02  0.51100000000E-03 0. -1.
        -12    1    3    3    0    0  0.32947794485E+01 -0.19250688775E+02  0.29194134819E+01  0.19747596436E+02  0.00000000000E+00 0.  1.
</event>
<event>
 7    1  0.2250716E-008  0.4614232E+02  0.7816164E-02  0.1320468E+00
        -11   -1    0    0    0    0  0.00000000000E+00  0.00000000000E+00  0.45593999997E+02  0.45594000000E+02  0.51100000000E-03 0. -1.
         11   -1    0    0    0    0 -0.00000000000E+00 -0.00000000000E+00 -0.45593999997E+02  0.45594000000E+02  0.51100000000E-03 0.  1.
    9900012    2    1    2    0    0 -0.83653522915E+01 -0.54272911595E+01 -0.43928111892E+02  0.46142316270E+02  0.99999864057E+01 0.  0.
         12    1    1    2    0    0  0.83653522915E+01  0.54272911595E+01  0.43928111892E+02  0.45045683730E+02  0.00000000000E+00 0. -1.
         11    1    3    3    0    0 -0.10006191311E+01 -0.36088187856E+00 -0.26482628011E+01  0.28539044309E+01  0.51100000000E-03 0.  1.
        -11    1    3    3    0    0 -0.88299404210E+01 -0.15440276646E+01 -0.32542750903E+02  0.33754740494E+02  0.51100000000E-03 0. -1.
         12    1    3    3    0    0  0.14652072606E+01 -0.35223816163E+01 -0.87370981879E+01  0.95336713449E+01  0.00000000000E+00 0. -1.
</event>
<event>
 7    1  0.2250716E-008  0.4614233E+02  0.7816164E-02  0.1320468E+00
        -11   -1    0    0    0    0  0.00000000000E+00  0.00000000000E+00  0.45593999997E+02  0.45594000000E+02  0.51100000000E-03 0.  1.
         11   -1    0    0    0    0 -0.00000000000E+00 -0.00000000000E+00 -0.45593999997E+02  0.45594000000E+02  0.51100000000E-03 0. -1.
    9900012    2    1    2    0    0 -0.36942047727E+02 -0.17483810641E+02  0.18939744301E+02  0.46142329409E+02  0.10000106214E+02 0.  0.
         12    1    1    2    0    0  0.36942047727E+02  0.17483810641E+02 -0.18939744301E+02  0.45045670591E+02  0.00000000000E+00 0. -1.
         11    1    3    3    0    0 -0.15846505472E+02 -0.58596746400E+01  0.50312910460E+01  0.17628426260E+02  0.51100000000E-03 0. -1.
        -11    1    3    3    0    0 -0.83441921375E+01 -0.69473850042E+01  0.88953001587E+01  0.14036312407E+02  0.51100000000E-03 0.  1.
        -12    1    3    3    0    0 -0.12751350118E+02 -0.46767509972E+01  0.50131530967E+01  0.14477590742E+02  0.00000000000E+00 0.  1.
</event>
<event>
 7    1  0.2250716E-008  0.4614231E+02  0.7816164E-02  0.1320468E+00
        -11   -1    0    0    0    0  0.00000000000E+00  0.00000000000E+00  0.45593999997E+02  0.45594000000E+02  0.51100000000E-03 0. -1.
         11   -1    0    0    0    0 -0.00000000000E+00 -0.00000000000E+00 -0.45593999997E+02  0.45594000000E+02  0.51100000000E-03 0.  1.
    9900012    2    1    2    0    0  0.21880339241E+02  0.37246602419E+02 -0.12769303579E+02  0.46142314846E+02  0.99999734154E+01 0.  0.
         12    1    1    2    0    0 -0.21880339241E+02 -0.37246602419E+02  0.12769303579E+02  0.45045685154E+02  0.00000000000E+00 0. -1.
         11    1    3    3    0    0  0.90296337880E+01  0.23037412875E+02 -0.92358601977E+01  0.26411319395E+02  0.51100000000E-03 0. -1.
        -11    1    3    3    0    0  0.20282292585E+01  0.42028456980E+01 -0.10577960825E+01  0.47850348692E+01  0.51100000000E-03 0.  1.
        -12    1    3    3    0    0  0.10822476195E+02  0.10006343847E+02 -0.24756472993E+01  0.14945960582E+02  0.00000000000E+00 0.  1.
</event>
<event>
 7    1  0.2250716E-008  0.4614232E+02  0.7816164E-02  0.1320468E+00
        -11   -1    0    0    0    0  0.00000000000E+00  0.00000000000E+00  0.45593999997E+02  0.45594000000E+02  0.51100000000E-03 0.  1.
         11   -1    0    0    0    0 -0.00000000000E+00 -0.00000000000E+00 -0.45593999997E+02  0.45594000000E+02  0.51100000000E-03 0. -1.
    9900012    2    1    2    0    0  0.23743204007E+02 -0.38020536900E+02  0.44511338087E+01  0.46142317023E+02  0.99999932661E+01 0.  0.
         12    1    1    2    0    0 -0.23743204007E+02  0.38020536900E+02 -0.44511338087E+01  0.45045682977E+02  0.00000000000E+00 0. -1.
         11    1    3    3    0    0  0.22797520189E+01 -0.76625845259E+01 -0.50970672155E+00  0.80107597697E+01  0.51100000000E-03 0. -1.
        -11    1    3    3    0    0  0.20443818560E+02 -0.25487122514E+02  0.31054724928E+01  0.32820528501E+02  0.51100000000E-03 0.  1.
        -12    1    3    3    0    0  0.10196334275E+01 -0.48708298603E+01  0.18553680375E+01  0.53110287524E+01  0.00000000000E+00 0.  1.
</event>
<event>
 7    1  0.2250716E-008  0.4614232E+02  0.7816164E-02  0.1320468E+00
        -11   -1    0    0    0    0  0.00000000000E+00  0.00000000000E+00  0.45593999997E+02  0.45594000000E+02  0.51100000000E-03 0. -1.
         11   -1    0    0    0    0 -0.00000000000E+00 -0.00000000000E+00 -0.45593999997E+02  0.45594000000E+02  0.51100000000E-03 0.  1.
    9900012    2    1    2    0    0 -0.43125652684E+02 -0.10398590300E+02 -0.78205441572E+01  0.46142317515E+02  0.99999977549E+01 0.  0.
         12    1    1    2    0    0  0.43125652684E+02  0.10398590300E+02  0.78205441572E+01  0.45045682485E+02  0.00000000000E+00 0. -1.
         11    1    3    3    0    0 -0.77760933401E+00  0.35811208093E-01 -0.12536026086E+01  0.14756281647E+01  0.51100000000E-03 0. -1.
        -11    1    3    3    0    0 -0.36857029241E+01 -0.16336779634E+01 -0.26452161148E+01  0.48218749764E+01  0.51100000000E-03 0.  1.
         12    1    3    3    0    0 -0.38662340426E+02 -0.88007235442E+01 -0.39217254337E+01  0.39844814374E+02  0.00000000000E+00 0. -1.
</event>
<event>
 7    1  0.2250716E-008  0.4614232E+02  0.7816164E-02  0.1320468E+00
        -11   -1    0    0    0    0  0.00000000000E+00  0.00000000000E+00  0.45593999997E+02  0.45594000000E+02  0.51100000000E-03 0.  1.
         11   -1    0    0    0    0 -0.00000000000E+00 -0.00000000000E+00 -0.45593999997E+02  0.45594000000E+02  0.51100000000E-03 0. -1.
    9900012    2    1    2    0    0 -0.44315815739E+02  0.53707349126E+01  0.60313432581E+01  0.46142318525E+02  0.10000006963E+02 0.  0.
         12    1    1    2    0    0  0.44315815739E+02 -0.53707349126E+01 -0.60313432581E+01  0.45045681475E+02  0.00000000000E+00 0. -1.
         11    1    3    3    0    0 -0.28553838280E+02  0.38312660330E+01  0.76134752513E+01  0.29798746376E+02  0.51100000000E-03 0. -1.
        -11    1    3    3    0    0 -0.12796784945E+02 -0.19750472287E+00 -0.82635973501E+00  0.12824959404E+02  0.51100000000E-03 0.  1.
         12    1    3    3    0    0 -0.29651925140E+01  0.17369736024E+01 -0.75577225816E+00  0.35186127447E+01  0.00000000000E+00 0. -1.
</event>
<event>
 7    1  0.2250716E-008  0.4614232E+02  0.7816164E-02  0.1320468E+00
        -11   -1    0    0    0    0  0.00000000000E+00  0.00000000000E+00  0.45593999997E+02  0.45594000000E+02  0.51100000000E-03 0.  1.
         11   -1    0    0    0    0 -0.00000000000E+00 -0.00000000000E+00 -0.45593999997E+02  0.45594000000E+02  0.51100000000E-03 0. -1.
    9900012    2    1    2    0    0 -0.71523571881E+01  0.16407531477E+02  0.41337031747E+02  0.46142317674E+02  0.99999992071E+01 0.  0.
         12    1    1    2    0    0  0.71523571881E+01 -0.16407531477E+02 -0.41337031747E+02  0.45045682326E+02  0.00000000000E+00 0. -1.
         11    1    3    3    0    0  0.71921012680E+00 -0.70335722027E+00  0.54840298447E+01  0.55755320988E+01  0.51100000000E-03 0. -1.
        -11    1    3    3    0    0 -0.54189381235E+01  0.91338092491E+01  0.19308658742E+02  0.22036689054E+02  0.51100000000E-03 0.  1.
        -12    1    3    3    0    0 -0.24526291915E+01  0.79770794486E+01  0.16544343160E+02  0.18530096521E+02  0.00000000000E+00 0.  1.
</event>
<event>
 7    1  0.2250716E-008  0.4614232E+02  0.7816164E-02  0.1320468E+00
        -11   -1    0    0    0    0  0.00000000000E+00  0.00000000000E+00  0.45593999997E+02  0.45594000000E+02  0.51100000000E-03 0.  1.
         11   -1    0    0    0    0 -0.00000000000E+00 -0.00000000000E+00 -0.45593999997E+02  0.45594000000E+02  0.51100000000E-03 0. -1.
    9900012    2    1    2    0    0  0.27953874070E+02  0.10026511466E+02  0.33869801653E+02  0.46142317946E+02  0.10000001687E+02 0.  0.
         12    1    1    2    0    0 -0.27953874070E+02 -0.10026511466E+02 -0.33869801653E+02  0.45045682054E+02  0.00000000000E+00 0. -1.
         11    1    3    3    0    0  0.18841633556E+02  0.18312909246E+01  0.22727655012E+02  0.29578828309E+02  0.51100000000E-03 0. -1.
        -11    1    3    3    0    0  0.34685346541E+01  0.30937555949E+01  0.42748674818E+01  0.63147880864E+01  0.51100000000E-03 0.  1.
         12    1    3    3    0    0  0.56437058594E+01  0.51014649470E+01  0.68672791594E+01  0.10248701551E+02  0.00000000000E+00 0. -1.
</event>
<event>
 7    1  0.2250716E-008  0.4614232E+02  0.7816164E-02  0.1320468E+00
        -11   -1    0    0    0    0  0.00000000000E+00  0.00000000000E+00  0.45593999997E+02  0.45594000000E+02  0.51100000000E-03 0.  1.
         11   -1    0    0    0    0 -0.00000000000E+00 -0.00000000000E+00 -0.45593999997E+02  0.45594000000E+02  0.51100000000E-03 0. -1.
    9900012    2    1    2    0    0 -0.33689600916E+02  0.14790924620E+02  0.25987552045E+02  0.46142317385E+02  0.99999965719E+01 0.  0.
         12    1    1    2    0    0  0.33689600916E+02 -0.14790924620E+02 -0.25987552045E+02  0.45045682615E+02  0.00000000000E+00 0. -1.
         11    1    3    3    0    0 -0.83067214038E+01  0.12506117783E+01  0.47530208132E+01  0.96517800126E+01  0.51100000000E-03 0. -1.
        -11    1    3    3    0    0 -0.67472874182E+00  0.11350651024E+01 -0.40523185268E+00  0.13812475438E+01  0.51100000000E-03 0.  1.
        -12    1    3    3    0    0 -0.24708150770E+02  0.12405247739E+02  0.21639763084E+02  0.35109289829E+02  0.00000000000E+00 0.  1.
</event>
<event>
 7    1  0.2250716E-008  0.4614232E+02  0.7816164E-02  0.1320468E+00
        -11   -1    0    0    0    0  0.00000000000E+00  0.00000000000E+00  0.45593999997E+02  0.45594000000E+02  0.51100000000E-03 0.  1.
         11   -1    0    0    0    0 -0.00000000000E+00 -0.00000000000E+00 -0.45593999997E+02  0.45594000000E+02  0.51100000000E-03 0. -1.
    9900012    2    1    2    0    0 -0.14253585266E+02 -0.96689509855E+01  0.41622832164E+02  0.46142318037E+02  0.10000002519E+02 0.  0.
         12    1    1    2    0    0  0.14253585266E+02  0.96689509855E+01 -0.41622832164E+02  0.45045681963E+02  0.00000000000E+00 0. -1.
         11    1    3    3    0    0 -0.49425672040E+01 -0.15763458174E+00  0.14927112640E+02  0.15724900994E+02  0.51100000000E-03 0. -1.
        -11    1    3    3    0    0 -0.96097088699E-01 -0.22089750290E+01  0.16816480488E+01  0.27779031211E+01  0.51100000000E-03 0.  1.
         12    1    3    3    0    0 -0.92149209733E+01 -0.73023413747E+01  0.25014071475E+02  0.27639513922E+02  0.00000000000E+00 0. -1.
</event>
<event>
 7    1  0.2250716E-008  0.4614232E+02  0.7816164E-02  0.1320468E+00
        -11   -1    0    0    0    0  0.00000000000E+00  0.00000000000E+00  0.45593999997E+02  0.45594000000E+02  0.51100000000E-03 0.  1.
         11   -1    0    0    0    0 -0.00000000000E+00 -0.00000000000E+00 -0.45593999997E+02  0.45594000000E+02  0.51100000000E-03 0. -1.
    9900012    2    1    2    0    0 -0.31162968978E+02 -0.21150635922E+00  0.32525962008E+02  0.46142316800E+02  0.99999912354E+01 0.  0.
         12    1    1    2    0    0  0.31162968978E+02  0.21150635922E+00 -0.32525962008E+02  0.45045683200E+02  0.00000000000E+00 0. -1.
         11    1    3    3    0    0 -0.12517263411E+01 -0.71631339427E+00  0.49280593551E+00  0.15240674733E+01  0.51100000000E-03 0. -1.
        -11    1    3    3    0    0 -0.27822438616E+02 -0.17605187178E+01  0.27687738510E+02  0.39291199787E+02  0.51100000000E-03 0.  1.
         12    1    3    3    0    0 -0.20888040207E+01  0.22653257528E+01  0.43454175624E+01  0.53270495394E+01  0.00000000000E+00 0. -1.
</event>
<event>
 7    1  0.2250716E-008  0.4614232E+02  0.7816164E-02  0.1320468E+00
        -11   -1    0    0    0    0  0.00000000000E+00  0.00000000000E+00  0.45593999997E+02  0.45594000000E+02  0.51100000000E-03 0.  1.
         11   -1    0    0    0    0 -0.00000000000E+00 -0.00000000000E+00 -0.45593999997E+02  0.45594000000E+02  0.51100000000E-03 0. -1.
    9900012    2    1    2    0    0 -0.24494155900E+02 -0.28793535226E+02  0.24496572900E+02  0.46142318433E+02  0.10000006124E+02 0.  0.
         12    1    1    2    0    0  0.24494155900E+02  0.28793535226E+02 -0.24496572900E+02  0.45045681567E+02  0.00000000000E+00 0. -1.
         11    1    3    3    0    0 -0.37867778945E+01 -0.48768934430E+01  0.24592839585E+01  0.66461909638E+01  0.51100000000E-03 0. -1.
        -11    1    3    3    0    0 -0.11393293569E+02 -0.18920213539E+02  0.16464092764E+02  0.27547195311E+02  0.51100000000E-03 0.  1.
         12    1    3    3    0    0 -0.93140844362E+01 -0.49964282434E+01  0.55731961777E+01  0.11948932158E+02  0.00000000000E+00 0. -1.
</event>
<event>
 7    1  0.2250716E-008  0.4614232E+02  0.7816164E-02  0.1320468E+00
        -11   -1    0    0    0    0  0.00000000000E+00  0.00000000000E+00  0.45593999997E+02  0.45594000000E+02  0.51100000000E-03 0.  1.
         11   -1    0    0    0    0 -0.00000000000E+00 -0.00000000000E+00 -0.45593999997E+02  0.45594000000E+02  0.51100000000E-03 0. -1.
    9900012    2    1    2    0    0  0.12335167079E+02 -0.31092113629E+02  0.30170144626E+02  0.46142317593E+02  0.99999984653E+01 0.  0.
         12    1    1    2    0    0 -0.12335167079E+02  0.31092113629E+02 -0.30170144626E+02  0.45045682407E+02  0.00000000000E+00 0. -1.
         11    1    3    3    0    0  0.18084418740E+01 -0.17803047122E+01  0.12181640274E-02  0.25377053858E+01  0.51100000000E-03 0. -1.
        -11    1    3    3    0    0  0.93787229470E+01 -0.21188338331E+02  0.23817486520E+02  0.33229185812E+02  0.51100000000E-03 0.  1.
        -12    1    3    3    0    0  0.11480022583E+01 -0.81234705857E+01  0.63514399416E+01  0.10375426395E+02  0.00000000000E+00 0.  1.
</event>
<event>
 7    1  0.2250716E-008  0.4614232E+02  0.7816164E-02  0.1320468E+00
        -11   -1    0    0    0    0  0.00000000000E+00  0.00000000000E+00  0.45593999997E+02  0.45594000000E+02  0.51100000000E-03 0.  1.
         11   -1    0    0    0    0 -0.00000000000E+00 -0.00000000000E+00 -0.45593999997E+02  0.45594000000E+02  0.51100000000E-03 0. -1.
    9900012    2    1    2    0    0 -0.38980695972E+02  0.95224987955E+00  0.22554645536E+02  0.46142317926E+02  0.10000001499E+02 0.  0.
         12    1    1    2    0    0  0.38980695972E+02 -0.95224987955E+00 -0.22554645536E+02  0.45045682074E+02  0.00000000000E+00 0. -1.
         11    1    3    3    0    0 -0.13488414681E+02  0.29845011664E+01  0.79369964831E+01  0.15932372430E+02  0.51100000000E-03 0.  1.
        -11    1    3    3    0    0 -0.13224841701E+01  0.14591156013E+01  0.63280595814E+00  0.20684357277E+01  0.51100000000E-03 0. -1.
        -12    1    3    3    0    0 -0.24169797121E+02 -0.34913668881E+01  0.13984843095E+02  0.28141509767E+02  0.00000000000E+00 0.  1.
</event>
<event>
 7    1  0.2250716E-008  0.4614232E+02  0.7816164E-02  0.1320468E+00
        -11   -1    0    0    0    0  0.00000000000E+00  0.00000000000E+00  0.45593999997E+02  0.45594000000E+02  0.51100000000E-03 0.  1.
         11   -1    0    0    0    0 -0.00000000000E+00 -0.00000000000E+00 -0.45593999997E+02  0.45594000000E+02  0.51100000000E-03 0. -1.
    9900012    2    1    2    0    0 -0.17325190892E+02 -0.32070376736E+02  0.26465867530E+02  0.46142318214E+02  0.10000004134E+02 0.  0.
         12    1    1    2    0    0  0.17325190892E+02  0.32070376736E+02 -0.26465867530E+02  0.45045681786E+02  0.00000000000E+00 0. -1.
         11    1    3    3    0    0 -0.46287615157E+01 -0.72814125825E+01  0.81125341638E+01  0.11843040707E+02  0.51100000000E-03 0.  1.
        -11    1    3    3    0    0 -0.88226051509E+01 -0.22356580750E+02  0.17277999610E+02  0.29600411066E+02  0.51100000000E-03 0. -1.
         12    1    3    3    0    0 -0.38738242251E+01 -0.24323834032E+01  0.10753337557E+01  0.46988664413E+01  0.00000000000E+00 0. -1.
</event>
<event>
 7    1  0.2250716E-008  0.4614232E+02  0.7816164E-02  0.1320468E+00
        -11   -1    0    0    0    0  0.00000000000E+00  0.00000000000E+00  0.45593999997E+02  0.45594000000E+02  0.51100000000E-03 0. -1.
         11   -1    0    0    0    0 -0.00000000000E+00 -0.00000000000E+00 -0.45593999997E+02  0.45594000000E+02  0.51100000000E-03 0.  1.
    9900012    2    1    2    0    0 -0.25425661493E+02  0.20734476178E+02 -0.30866336161E+02  0.46142317934E+02  0.10000001580E+02 0.  0.
         12    1    1    2    0    0  0.25425661493E+02 -0.20734476178E+02  0.30866336161E+02  0.45045682066E+02  0.00000000000E+00 0. -1.
         11    1    3    3    0    0 -0.75057364110E+01  0.30644312056E+01 -0.39177403297E+01  0.90041938694E+01  0.51100000000E-03 0. -1.
        -11    1    3    3    0    0 -0.56654382081E+01  0.51888723561E+01 -0.11325477322E+02  0.13685321453E+02  0.51100000000E-03 0.  1.
        -12    1    3    3    0    0 -0.12254486874E+02  0.12481172617E+02 -0.15623118509E+02  0.23452802612E+02  0.00000000000E+00 0.  1.
</event>
<event>
 7    1  0.2250716E-008  0.4614232E+02  0.7816164E-02  0.1320468E+00
        -11   -1    0    0    0    0  0.00000000000E+00  0.00000000000E+00  0.45593999997E+02  0.45594000000E+02  0.51100000000E-03 0. -1.
         11   -1    0    0    0    0 -0.00000000000E+00 -0.00000000000E+00 -0.45593999997E+02  0.45594000000E+02  0.51100000000E-03 0.  1.
    9900012    2    1    2    0    0 -0.15019724570E+01  0.44240179707E+02  0.83465001274E+01  0.46142317785E+02  0.10000000222E+02 0.  0.
         12    1    1    2    0    0  0.15019724570E+01 -0.44240179707E+02 -0.83465001274E+01  0.45045682215E+02  0.00000000000E+00 0. -1.
         11    1    3    3    0    0  0.50324411911E+00  0.63019643187E+00  0.12068642001E+01  0.14515245932E+01  0.51100000000E-03 0. -1.
        -11    1    3    3    0    0 -0.43043093094E+01  0.27649254969E+02  0.49650455762E+01  0.28419360598E+02  0.51100000000E-03 0.  1.
         12    1    3    3    0    0  0.22990927333E+01  0.15960728306E+02  0.21745903511E+01  0.16271432594E+02  0.00000000000E+00 0. -1.
</event>
<event>
 7    1  0.2250716E-008  0.4614232E+02  0.7816164E-02  0.1320468E+00
        -11   -1    0    0    0    0  0.00000000000E+00  0.00000000000E+00  0.45593999997E+02  0.45594000000E+02  0.51100000000E-03 0.  1.
         11   -1    0    0    0    0 -0.00000000000E+00 -0.00000000000E+00 -0.45593999997E+02  0.45594000000E+02  0.51100000000E-03 0. -1.
    9900012    2    1    2    0    0  0.39749447046E+02 -0.33520316744E+01  0.20925076903E+02  0.46142317630E+02  0.99999988009E+01 0.  0.
         12    1    1    2    0    0 -0.39749447046E+02  0.33520316744E+01 -0.20925076903E+02  0.45045682370E+02  0.00000000000E+00 0. -1.
         11    1    3    3    0    0  0.97428962634E+01  0.86292578254E+00  0.69772259766E+01  0.12014589094E+02  0.51100000000E-03 0. -1.
        -11    1    3    3    0    0  0.12150919054E+02  0.79304689187E+00  0.83206722586E+01  0.14748130198E+02  0.51100000000E-03 0.  1.
         12    1    3    3    0    0  0.17855631728E+02 -0.50080043488E+01  0.56271786679E+01  0.19379598338E+02  0.00000000000E+00 0. -1.
</event>
<event>
 7    1  0.2250716E-008  0.4614232E+02  0.7816164E-02  0.1320468E+00
        -11   -1    0    0    0    0  0.00000000000E+00  0.00000000000E+00  0.45593999997E+02  0.45594000000E+02  0.51100000000E-03 0.  1.
         11   -1    0    0    0    0 -0.00000000000E+00 -0.00000000000E+00 -0.45593999997E+02  0.45594000000E+02  0.51100000000E-03 0. -1.
    9900012    2    1    2    0    0  0.13152367489E+02  0.25666993774E+02  0.34602516483E+02  0.46142317777E+02  0.10000000143E+02 0.  0.
         12    1    1    2    0    0 -0.13152367489E+02 -0.25666993774E+02 -0.34602516483E+02  0.45045682223E+02  0.00000000000E+00 0. -1.
         11    1    3    3    0    0  0.17462974377E+01  0.16587793388E+01  0.39592413805E+00  0.24408727578E+01  0.51100000000E-03 0. -1.
        -11    1    3    3    0    0  0.72083047725E+01  0.20461877653E+02  0.26855514796E+02  0.34523423498E+02  0.51100000000E-03 0.  1.
        -12    1    3    3    0    0  0.41977652791E+01  0.35463367828E+01  0.73510775490E+01  0.91780215214E+01  0.00000000000E+00 0.  1.
</event>
<event>
 7    1  0.2250716E-008  0.4614232E+02  0.7816164E-02  0.1320468E+00
        -11   -1    0    0    0    0  0.00000000000E+00  0.00000000000E+00  0.45593999997E+02  0.45594000000E+02  0.51100000000E-03 0.  1.
         11   -1    0    0    0    0 -0.00000000000E+00 -0.00000000000E+00 -0.45593999997E+02  0.45594000000E+02  0.51100000000E-03 0. -1.
    9900012    2    1    2    0    0  0.76608318530E+01 -0.26735190240E+02  0.35435220593E+02  0.46142316518E+02  0.99999886687E+01 0.  0.
         12    1    1    2    0    0 -0.76608318530E+01  0.26735190240E+02 -0.35435220593E+02  0.45045683482E+02  0.00000000000E+00 0. -1.
         11    1    3    3    0    0  0.38257014302E+00 -0.52669573048E+00  0.14726639990E+00  0.66742487255E+00  0.51100000000E-03 0. -1.
        -11    1    3    3    0    0  0.75084657818E+01 -0.20394663848E+02  0.21785550665E+02  0.30772221075E+02  0.51100000000E-03 0.  1.
        -12    1    3    3    0    0 -0.23020407173E+00 -0.58138306615E+01  0.13502403528E+02  0.14702670571E+02  0.00000000000E+00 0.  1.
</event>
<event>
 7    1  0.2250716E-008  0.4614232E+02  0.7816164E-02  0.1320468E+00
        -11   -1    0    0    0    0  0.00000000000E+00  0.00000000000E+00  0.45593999997E+02  0.45594000000E+02  0.51100000000E-03 0. -1.
         11   -1    0    0    0    0 -0.00000000000E+00 -0.00000000000E+00 -0.45593999997E+02  0.45594000000E+02  0.51100000000E-03 0.  1.
    9900012    2    1    2    0    0  0.52467415943E+01  0.34853268551E+01 -0.44603112555E+02  0.46142318185E+02  0.10000003862E+02 0.  0.
         12    1    1    2    0    0 -0.52467415943E+01 -0.34853268551E+01  0.44603112555E+02  0.45045681815E+02  0.00000000000E+00 0. -1.
         11    1    3    3    0    0  0.46823789566E+01  0.97799607688E-01 -0.87000944020E+01  0.98805809708E+01  0.51100000000E-03 0. -1.
        -11    1    3    3    0    0 -0.40293055194E-01 -0.24389475412E-01 -0.19344035787E+02  0.19344093134E+02  0.51100000000E-03 0.  1.
         12    1    3    3    0    0  0.60465569293E+00  0.34119167228E+01 -0.16558982365E+02  0.16917644080E+02  0.00000000000E+00 0. -1.
</event>
<event>
 7    1  0.2250716E-008  0.4614232E+02  0.7816164E-02  0.1320468E+00
        -11   -1    0    0    0    0  0.00000000000E+00  0.00000000000E+00  0.45593999997E+02  0.45594000000E+02  0.51100000000E-03 0.  1.
         11   -1    0    0    0    0 -0.00000000000E+00 -0.00000000000E+00 -0.45593999997E+02  0.45594000000E+02  0.51100000000E-03 0. -1.
    9900012    2    1    2    0    0 -0.18562149046E+02  0.26308563165E+02  0.31502692531E+02  0.46142317524E+02  0.99999978367E+01 0.  0.
         12    1    1    2    0    0  0.18562149046E+02 -0.26308563165E+02 -0.31502692531E+02  0.45045682476E+02  0.00000000000E+00 0. -1.
         11    1    3    3    0    0 -0.77596194485E+00  0.18794677112E+01  0.33075664339E+01  0.38825908609E+01  0.51100000000E-03 0. -1.
        -11    1    3    3    0    0 -0.51692839831E+01  0.17056647050E+01  0.57572267609E+01  0.79231590431E+01  0.51100000000E-03 0.  1.
        -12    1    3    3    0    0 -0.12616903119E+02  0.22723430748E+02  0.22437899337E+02  0.34336567620E+02  0.00000000000E+00 0.  1.
</event>
<event>
 7    1  0.2250716E-008  0.4614232E+02  0.7816164E-02  0.1320468E+00
        -11   -1    0    0    0    0  0.00000000000E+00  0.00000000000E+00  0.45593999997E+02  0.45594000000E+02  0.51100000000E-03 0.  1.
         11   -1    0    0    0    0 -0.00000000000E+00 -0.00000000000E+00 -0.45593999997E+02  0.45594000000E+02  0.51100000000E-03 0. -1.
    9900012    2    1    2    0    0 -0.24018052719E+02  0.19514484738E+02  0.32732727993E+02  0.46142318155E+02  0.10000003593E+02 0.  0.
         12    1    1    2    0    0  0.24018052719E+02 -0.19514484738E+02 -0.32732727993E+02  0.45045681845E+02  0.00000000000E+00 0. -1.
         11    1    3    3    0    0 -0.15191117917E+01  0.13125211023E+01 -0.14847436967E-01  0.20076436405E+01  0.51100000000E-03 0. -1.
        -11    1    3    3    0    0 -0.20074909133E+02  0.14457629779E+02  0.24852361065E+02  0.35066577910E+02  0.51100000000E-03 0.  1.
         12    1    3    3    0    0 -0.24240317941E+01  0.37443338572E+01  0.78952143645E+01  0.90680966048E+01  0.00000000000E+00 0. -1.
</event>
<event>
 7    1  0.2250716E-008  0.4614232E+02  0.7816164E-02  0.1320468E+00
        -11   -1    0    0    0    0  0.00000000000E+00  0.00000000000E+00  0.45593999997E+02  0.45594000000E+02  0.51100000000E-03 0.  1.
         11   -1    0    0    0    0 -0.00000000000E+00 -0.00000000000E+00 -0.45593999997E+02  0.45594000000E+02  0.51100000000E-03 0. -1.
    9900012    2    1    2    0    0  0.40988451073E+02  0.13195419384E+02  0.13226535214E+02  0.46142318210E+02  0.10000004097E+02 0.  0.
         12    1    1    2    0    0 -0.40988451073E+02 -0.13195419384E+02 -0.13226535214E+02  0.45045681790E+02  0.00000000000E+00 0. -1.
         11    1    3    3    0    0  0.14216502674E+02  0.84353986526E+01  0.30950462760E+01  0.16817972840E+02  0.51100000000E-03 0. -1.
        -11    1    3    3    0    0  0.18535140465E+02  0.20787809898E+01  0.52264886645E+01  0.19369794694E+02  0.51100000000E-03 0.  1.
        -12    1    3    3    0    0  0.82368079335E+01  0.26812397420E+01  0.49050002737E+01  0.99545506766E+01  0.00000000000E+00 0.  1.
</event>
<event>
 7    1  0.2250716E-008  0.4614232E+02  0.7816164E-02  0.1320468E+00
        -11   -1    0    0    0    0  0.00000000000E+00  0.00000000000E+00  0.45593999997E+02  0.45594000000E+02  0.51100000000E-03 0.  1.
         11   -1    0    0    0    0 -0.00000000000E+00 -0.00000000000E+00 -0.45593999997E+02  0.45594000000E+02  0.51100000000E-03 0. -1.
    9900012    2    1    2    0    0 -0.17881147335E+02  0.12997626591E+01  0.41324190122E+02  0.46142317607E+02  0.99999985970E+01 0.  0.
         12    1    1    2    0    0  0.17881147335E+02 -0.12997626591E+01 -0.41324190122E+02  0.45045682393E+02  0.00000000000E+00 0. -1.
         11    1    3    3    0    0 -0.25171769108E+01 -0.12632136962E+01  0.46521109220E+01  0.54382005052E+01  0.51100000000E-03 0. -1.
        -11    1    3    3    0    0 -0.10546508726E+02 -0.21964427999E+01  0.24751517576E+02  0.26994274020E+02  0.51100000000E-03 0.  1.
        -12    1    3    3    0    0 -0.48174616987E+01  0.47594191552E+01  0.11920561624E+02  0.13709843082E+02  0.00000000000E+00 0.  1.
</event>
<event>
 7    1  0.2250716E-008  0.4614232E+02  0.7816164E-02  0.1320468E+00
        -11   -1    0    0    0    0  0.00000000000E+00  0.00000000000E+00  0.45593999997E+02  0.45594000000E+02  0.51100000000E-03 0.  1.
         11   -1    0    0    0    0 -0.00000000000E+00 -0.00000000000E+00 -0.45593999997E+02  0.45594000000E+02  0.51100000000E-03 0. -1.
    9900012    2    1    2    0    0 -0.25723829546E+02  0.34794416298E+01  0.36814285010E+02  0.46142317617E+02  0.99999986830E+01 0.  0.
         12    1    1    2    0    0  0.25723829546E+02 -0.34794416298E+01 -0.36814285010E+02  0.45045682383E+02  0.00000000000E+00 0. -1.
         11    1    3    3    0    0 -0.89481629031E+01 -0.14973615667E+01  0.69123879461E+01  0.11405823880E+02  0.51100000000E-03 0. -1.
        -11    1    3    3    0    0 -0.12649112725E+02  0.30243924870E+01  0.20370575237E+02  0.24168312692E+02  0.51100000000E-03 0.  1.
         12    1    3    3    0    0 -0.41265539178E+01  0.19524107095E+01  0.95313218272E+01  0.10568181044E+02  0.00000000000E+00 0. -1.
</event>
<event>
 7    1  0.2250716E-008  0.4614232E+02  0.7816164E-02  0.1320468E+00
        -11   -1    0    0    0    0  0.00000000000E+00  0.00000000000E+00  0.45593999997E+02  0.45594000000E+02  0.51100000000E-03 0. -1.
         11   -1    0    0    0    0 -0.00000000000E+00 -0.00000000000E+00 -0.45593999997E+02  0.45594000000E+02  0.51100000000E-03 0.  1.
    9900012    2    1    2    0    0 -0.72989519675E+01  0.99513977216E+01 -0.43322147873E+02  0.46142317491E+02  0.99999975330E+01 0.  0.
         12    1    1    2    0    0  0.72989519675E+01 -0.99513977216E+01  0.43322147873E+02  0.45045682509E+02  0.00000000000E+00 0. -1.
         11    1    3    3    0    0 -0.21727680727E+01  0.75529567334E+00 -0.34694449745E+01  0.41627444486E+01  0.51100000000E-03 0. -1.
        -11    1    3    3    0    0 -0.24439236997E+01  0.10023826941E+02 -0.29459791941E+02  0.31214246925E+02  0.51100000000E-03 0.  1.
        -12    1    3    3    0    0 -0.26822601952E+01 -0.82772489283E+00 -0.10392910957E+02  0.10765326117E+02  0.00000000000E+00 0.  1.
</event>
<event>
 7    1  0.2250716E-008  0.4614232E+02  0.7816164E-02  0.1320468E+00
        -11   -1    0    0    0    0  0.00000000000E+00  0.00000000000E+00  0.45593999997E+02  0.45594000000E+02  0.51100000000E-03 0.  1.
         11   -1    0    0    0    0 -0.00000000000E+00 -0.00000000000E+00 -0.45593999997E+02  0.45594000000E+02  0.51100000000E-03 0. -1.
    9900012    2    1    2    0    0  0.17152853698E+02 -0.38326928944E+02  0.16307653336E+02  0.46142318414E+02  0.10000005949E+02 0.  0.
         12    1    1    2    0    0 -0.17152853698E+02  0.38326928944E+02 -0.16307653336E+02  0.45045681586E+02  0.00000000000E+00 0. -1.
         11    1    3    3    0    0  0.63274080917E+01 -0.94320560792E+01  0.70953880071E+01  0.13391949308E+02  0.51100000000E-03 0. -1.
        -11    1    3    3    0    0  0.94160157570E+01 -0.17507598418E+02  0.69229493122E+01  0.21050049466E+02  0.51100000000E-03 0.  1.
         12    1    3    3    0    0  0.14094298495E+01 -0.11387274447E+02  0.22893160167E+01  0.11700319639E+02  0.00000000000E+00 0. -1.
</event>
<event>
 7    1  0.2250716E-008  0.4614232E+02  0.7816164E-02  0.1320468E+00
        -11   -1    0    0    0    0  0.00000000000E+00  0.00000000000E+00  0.45593999997E+02  0.45594000000E+02  0.51100000000E-03 0. -1.
         11   -1    0    0    0    0 -0.00000000000E+00 -0.00000000000E+00 -0.45593999997E+02  0.45594000000E+02  0.51100000000E-03 0.  1.
    9900012    2    1    2    0    0 -0.38114658405E+02 -0.71496469091E+01 -0.22918741410E+02  0.46142319363E+02  0.10000014605E+02 0.  0.
         12    1    1    2    0    0  0.38114658405E+02  0.71496469091E+01  0.22918741410E+02  0.45045680637E+02  0.00000000000E+00 0. -1.
         11    1    3    3    0    0 -0.49663281350E+01 -0.23408781750E+00 -0.50860912842E+01  0.71124916213E+01  0.51100000000E-03 0. -1.
        -11    1    3    3    0    0 -0.25483205228E+02 -0.68357279008E+01 -0.16840045298E+02  0.31300288346E+02  0.51100000000E-03 0.  1.
         12    1    3    3    0    0 -0.76651250413E+01 -0.79831190834E-01 -0.99260482781E+00  0.77295393952E+01  0.00000000000E+00 0. -1.
</event>
<event>
 7    1  0.2250716E-008  0.4614232E+02  0.7816164E-02  0.1320468E+00
        -11   -1    0    0    0    0  0.00000000000E+00  0.00000000000E+00  0.45593999997E+02  0.45594000000E+02  0.51100000000E-03 0.  1.
         11   -1    0    0    0    0 -0.00000000000E+00 -0.00000000000E+00 -0.45593999997E+02  0.45594000000E+02  0.51100000000E-03 0. -1.
    9900012    2    1    2    0    0  0.20805801835E+01  0.39744693203E+02  0.21098437541E+02  0.46142317428E+02  0.99999969599E+01 0.  0.
         12    1    1    2    0    0 -0.20805801835E+01 -0.39744693203E+02 -0.21098437541E+02  0.45045682572E+02  0.00000000000E+00 0. -1.
         11    1    3    3    0    0  0.23312667440E+01  0.35365905821E+01  0.48032190059E+00  0.42629786495E+01  0.51100000000E-03 0. -1.
        -11    1    3    3    0    0  0.20961994026E+00  0.10569013330E+01  0.15470134913E+01  0.18852670767E+01  0.51100000000E-03 0.  1.
        -12    1    3    3    0    0 -0.46030650072E+00  0.35151201288E+02  0.19071102149E+02  0.39994071702E+02  0.00000000000E+00 0.  1.
</event>
<event>
 7    1  0.2250716E-008  0.4614232E+02  0.7816164E-02  0.1320468E+00
        -11   -1    0    0    0    0  0.00000000000E+00  0.00000000000E+00  0.45593999997E+02  0.45594000000E+02  0.51100000000E-03 0.  1.
         11   -1    0    0    0    0 -0.00000000000E+00 -0.00000000000E+00 -0.45593999997E+02  0.45594000000E+02  0.51100000000E-03 0. -1.
    9900012    2    1    2    0    0  0.11029051736E+02  0.34203874747E+02  0.27158210590E+02  0.46142318383E+02  0.10000005668E+02 0.  0.
         12    1    1    2    0    0 -0.11029051736E+02 -0.34203874747E+02 -0.27158210590E+02  0.45045681617E+02  0.00000000000E+00 0. -1.
         11    1    3    3    0    0  0.50005160851E+00  0.38423872160E+00 -0.13431433850E+00  0.64477252500E+00  0.51100000000E-03 0. -1.
        -11    1    3    3    0    0  0.10383690610E+02  0.22521141760E+02  0.15942736217E+02  0.29482091093E+02  0.51100000000E-03 0.  1.
        -12    1    3    3    0    0  0.14530951662E+00  0.11298494265E+02  0.11349788711E+02  0.16015454764E+02  0.00000000000E+00 0.  1.
</event>
<event>
 7    1  0.2250716E-008  0.4614232E+02  0.7816164E-02  0.1320468E+00
        -11   -1    0    0    0    0  0.00000000000E+00  0.00000000000E+00  0.45593999997E+02  0.45594000000E+02  0.51100000000E-03 0.  1.
         11   -1    0    0    0    0 -0.00000000000E+00 -0.00000000000E+00 -0.45593999997E+02  0.45594000000E+02  0.51100000000E-03 0. -1.
    9900012    2    1    2    0    0  0.13104834201E+02 -0.33431344540E+02  0.27197831124E+02  0.46142317687E+02  0.99999993214E+01 0.  0.
         12    1    1    2    0    0 -0.13104834201E+02  0.33431344540E+02 -0.27197831124E+02  0.45045682313E+02  0.00000000000E+00 0. -1.
         11    1    3    3    0    0  0.49193805837E+01 -0.20437105229E+02  0.12052892683E+02  0.24231132820E+02  0.51100000000E-03 0.  1.
        -11    1    3    3    0    0  0.99466506543E-01 -0.26021827985E+01  0.18131417628E+01  0.31731265679E+01  0.51100000000E-03 0. -1.
         12    1    3    3    0    0  0.80859871112E+01 -0.10392056513E+02  0.13331796678E+02  0.18738058298E+02  0.00000000000E+00 0. -1.
</event>
<event>
 7    1  0.2250716E-008  0.4614232E+02  0.7816164E-02  0.1320468E+00
        -11   -1    0    0    0    0  0.00000000000E+00  0.00000000000E+00  0.45593999997E+02  0.45594000000E+02  0.51100000000E-03 0.  1.
         11   -1    0    0    0    0 -0.00000000000E+00 -0.00000000000E+00 -0.45593999997E+02  0.45594000000E+02  0.51100000000E-03 0. -1.
    9900012    2    1    2    0    0 -0.76436443606E+01 -0.39248068686E+02  0.20743127234E+02  0.46142317386E+02  0.99999965784E+01 0.  0.
         12    1    1    2    0    0  0.76436443606E+01  0.39248068686E+02 -0.20743127234E+02  0.45045682614E+02  0.00000000000E+00 0. -1.
         11    1    3    3    0    0 -0.85444662040E+00 -0.69245488827E+01  0.50341344318E+01  0.86036019198E+01  0.51100000000E-03 0. -1.
        -11    1    3    3    0    0 -0.48119271805E+01 -0.81451818168E+01  0.19838994083E+01  0.96661516201E+01  0.51100000000E-03 0.  1.
        -12    1    3    3    0    0 -0.19772705597E+01 -0.24178337987E+02  0.13725093394E+02  0.27872563846E+02  0.00000000000E+00 0.  1.
</event>
<event>
 7    1  0.2250716E-008  0.4614232E+02  0.7816164E-02  0.1320468E+00
        -11   -1    0    0    0    0  0.00000000000E+00  0.00000000000E+00  0.45593999997E+02  0.45594000000E+02  0.51100000000E-03 0.  1.
         11   -1    0    0    0    0 -0.00000000000E+00 -0.00000000000E+00 -0.45593999997E+02  0.45594000000E+02  0.51100000000E-03 0. -1.
    9900012    2    1    2    0    0  0.27344273865E+02  0.22301340756E+02  0.28000972526E+02  0.46142316798E+02  0.99999912165E+01 0.  0.
         12    1    1    2    0    0 -0.27344273865E+02 -0.22301340756E+02 -0.28000972526E+02  0.45045683202E+02  0.00000000000E+00 0. -1.
         11    1    3    3    0    0  0.13691771797E+02  0.12386123480E+02  0.19915169455E+02  0.27156852625E+02  0.51100000000E-03 0. -1.
        -11    1    3    3    0    0  0.20710112702E+01  0.24224458121E+00  0.10938074791E+01  0.23546093478E+01  0.51100000000E-03 0.  1.
        -12    1    3    3    0    0  0.11581490798E+02  0.96729726943E+01  0.69919955921E+01  0.16630854825E+02  0.00000000000E+00 0.  1.
</event>
<event>
 7    1  0.2250716E-008  0.4614232E+02  0.7816164E-02  0.1320468E+00
        -11   -1    0    0    0    0  0.00000000000E+00  0.00000000000E+00  0.45593999997E+02  0.45594000000E+02  0.51100000000E-03 0. -1.
         11   -1    0    0    0    0 -0.00000000000E+00 -0.00000000000E+00 -0.45593999997E+02  0.45594000000E+02  0.51100000000E-03 0.  1.
    9900012    2    1    2    0    0  0.52041304165E+01 -0.18318622208E+02 -0.40822281933E+02  0.46142316576E+02  0.99999891900E+01 0.  0.
         12    1    1    2    0    0 -0.52041304165E+01  0.18318622208E+02  0.40822281933E+02  0.45045683424E+02  0.00000000000E+00 0. -1.
         11    1    3    3    0    0  0.34272385103E+01 -0.15779169013E+02 -0.34436195852E+02  0.38033928585E+02  0.51100000000E-03 0.  1.
        -11    1    3    3    0    0  0.20964122653E+01 -0.12161718976E+01 -0.62933684222E+01  0.67439235485E+01  0.51100000000E-03 0. -1.
         12    1    3    3    0    0 -0.31952035905E+00 -0.13232812965E+01 -0.92717658069E-01  0.13644644421E+01  0.00000000000E+00 0. -1.
</event>
<event>
 7    1  0.2250716E-008  0.4614232E+02  0.7816164E-02  0.1320468E+00
        -11   -1    0    0    0    0  0.00000000000E+00  0.00000000000E+00  0.45593999997E+02  0.45594000000E+02  0.51100000000E-03 0.  1.
         11   -1    0    0    0    0 -0.00000000000E+00 -0.00000000000E+00 -0.45593999997E+02  0.45594000000E+02  0.51100000000E-03 0. -1.
    9900012    2    1    2    0    0 -0.30122631973E+02 -0.11778798725E+02  0.31352839048E+02  0.46142316825E+02  0.99999914623E+01 0.  0.
         12    1    1    2    0    0  0.30122631973E+02  0.11778798725E+02 -0.31352839048E+02  0.45045683175E+02  0.00000000000E+00 0. -1.
         11    1    3    3    0    0  0.23464380727E+00 -0.11569889228E+01  0.44562514891E-01  0.11813835798E+01  0.51100000000E-03 0. -1.
        -11    1    3    3    0    0 -0.13047920289E+02 -0.33969521645E+01  0.14043077824E+02  0.19467807861E+02  0.51100000000E-03 0.  1.
         12    1    3    3    0    0 -0.17309355491E+02 -0.72248576376E+01  0.17265198709E+02  0.25493125384E+02  0.00000000000E+00 0. -1.
</event>
<event>
 7    1  0.2250716E-008  0.4614232E+02  0.7816164E-02  0.1320468E+00
        -11   -1    0    0    0    0  0.00000000000E+00  0.00000000000E+00  0.45593999997E+02  0.45594000000E+02  0.51100000000E-03 0.  1.
         11   -1    0    0    0    0 -0.00000000000E+00 -0.00000000000E+00 -0.45593999997E+02  0.45594000000E+02  0.51100000000E-03 0. -1.
    9900012    2    1    2    0    0  0.26010086735E+02  0.21176412972E+02  0.30069061577E+02  0.46142317161E+02  0.99999945266E+01 0.  0.
         12    1    1    2    0    0 -0.26010086735E+02 -0.21176412972E+02 -0.30069061577E+02  0.45045682839E+02  0.00000000000E+00 0. -1.
         11    1    3    3    0    0  0.42511369702E+01  0.40419270836E+01  0.74838071819E+01  0.95087701773E+01  0.51100000000E-03 0. -1.
        -11    1    3    3    0    0  0.65153277770E+01  0.21876076502E+01  0.90177398955E+01  0.11338198991E+02  0.51100000000E-03 0.  1.
         12    1    3    3    0    0  0.15243621988E+02  0.14946878238E+02  0.13567514500E+02  0.25295347993E+02  0.00000000000E+00 0. -1.
</event>
<event>
 7    1  0.2250716E-008  0.4614232E+02  0.7816164E-02  0.1320468E+00
        -11   -1    0    0    0    0  0.00000000000E+00  0.00000000000E+00  0.45593999997E+02  0.45594000000E+02  0.51100000000E-03 0. -1.
         11   -1    0    0    0    0 -0.00000000000E+00 -0.00000000000E+00 -0.45593999997E+02  0.45594000000E+02  0.51100000000E-03 0.  1.
    9900012    2    1    2    0    0 -0.23436950699E+02  0.34333392448E+02 -0.17350532467E+02  0.46142317944E+02  0.10000001666E+02 0.  0.
         12    1    1    2    0    0  0.23436950699E+02 -0.34333392448E+02  0.17350532467E+02  0.45045682056E+02  0.00000000000E+00 0. -1.
         11    1    3    3    0    0 -0.72507162687E+01  0.17330042987E+02 -0.67611212063E+01  0.19965370935E+02  0.51100000000E-03 0. -1.
        -11    1    3    3    0    0 -0.77011647468E+01  0.11350872333E+02 -0.66898339357E+01  0.15261196530E+02  0.51100000000E-03 0.  1.
        -12    1    3    3    0    0 -0.84850696833E+01  0.56524771282E+01 -0.38995773246E+01  0.10915750479E+02  0.00000000000E+00 0.  1.
</event>
<event>
 7    1  0.2250716E-008  0.4614232E+02  0.7816164E-02  0.1320468E+00
        -11   -1    0    0    0    0  0.00000000000E+00  0.00000000000E+00  0.45593999997E+02  0.45594000000E+02  0.51100000000E-03 0.  1.
         11   -1    0    0    0    0 -0.00000000000E+00 -0.00000000000E+00 -0.45593999997E+02  0.45594000000E+02  0.51100000000E-03 0. -1.
    9900012    2    1    2    0    0 -0.24342375340E+01  0.32737865395E+02  0.30845097530E+02  0.46142318913E+02  0.10000010501E+02 0.  0.
         12    1    1    2    0    0  0.24342375340E+01 -0.32737865395E+02 -0.30845097530E+02  0.45045681087E+02  0.00000000000E+00 0. -1.
         11    1    3    3    0    0  0.16153487281E+00  0.11667280294E+02  0.15871654396E+02  0.19699262334E+02  0.51100000000E-03 0. -1.
        -11    1    3    3    0    0 -0.12830358096E+01  0.35290349453E+01  0.48964597145E+01  0.61705418344E+01  0.51100000000E-03 0.  1.
        -12    1    3    3    0    0 -0.13127365973E+01  0.17541550155E+02  0.10076983420E+02  0.20272514745E+02  0.00000000000E+00 0.  1.
</event>
<event>
 7    1  0.2250716E-008  0.4614232E+02  0.7816164E-02  0.1320468E+00
        -11   -1    0    0    0    0  0.00000000000E+00  0.00000000000E+00  0.45593999997E+02  0.45594000000E+02  0.51100000000E-03 0.  1.
         11   -1    0    0    0    0 -0.00000000000E+00 -0.00000000000E+00 -0.45593999997E+02  0.45594000000E+02  0.51100000000E-03 0. -1.
    9900012    2    1    2    0    0  0.29004934800E+02 -0.31037278754E+02  0.14983807891E+02  0.46142318585E+02  0.10000007515E+02 0.  0.
         12    1    1    2    0    0 -0.29004934800E+02  0.31037278754E+02 -0.14983807891E+02  0.45045681415E+02  0.00000000000E+00 0. -1.
         11    1    3    3    0    0  0.14244624981E+02 -0.12259796842E+02  0.51508571689E+01  0.19487003086E+02  0.51100000000E-03 0. -1.
        -11    1    3    3    0    0  0.10427982744E+02 -0.89160557806E+01  0.34962092754E+01  0.14158472882E+02  0.51100000000E-03 0.  1.
         12    1    3    3    0    0  0.43323270755E+01 -0.98614261315E+01  0.63367414467E+01  0.12496842617E+02  0.00000000000E+00 0. -1.
</event>
<event>
 7    1  0.2250716E-008  0.4614232E+02  0.7816164E-02  0.1320468E+00
        -11   -1    0    0    0    0  0.00000000000E+00  0.00000000000E+00  0.45593999997E+02  0.45594000000E+02  0.51100000000E-03 0.  1.
         11   -1    0    0    0    0 -0.00000000000E+00 -0.00000000000E+00 -0.45593999997E+02  0.45594000000E+02  0.51100000000E-03 0. -1.
    9900012    2    1    2    0    0  0.32811673289E+02  0.13917219115E+02  0.27546662061E+02  0.46142317825E+02  0.10000000583E+02 0.  0.
         12    1    1    2    0    0 -0.32811673289E+02 -0.13917219115E+02 -0.27546662061E+02  0.45045682175E+02  0.00000000000E+00 0. -1.
         11    1    3    3    0    0  0.89659195695E+00  0.34707390935E+00 -0.66113278963E-01  0.96369531627E+00  0.51100000000E-03 0. -1.
        -11    1    3    3    0    0  0.93090776743E+01  0.27551626426E+00  0.95180223674E+01  0.13316440456E+02  0.51100000000E-03 0.  1.
        -12    1    3    3    0    0  0.22606003657E+02  0.13294628941E+02  0.18094752973E+02  0.31862182053E+02  0.00000000000E+00 0.  1.
</event>
<event>
 7    1  0.2250716E-008  0.4614232E+02  0.7816164E-02  0.1320468E+00
        -11   -1    0    0    0    0  0.00000000000E+00  0.00000000000E+00  0.45593999997E+02  0.45594000000E+02  0.51100000000E-03 0.  1.
         11   -1    0    0    0    0 -0.00000000000E+00 -0.00000000000E+00 -0.45593999997E+02  0.45594000000E+02  0.51100000000E-03 0. -1.
    9900012    2    1    2    0    0  0.25306484439E+02  0.81993136490E+01  0.36351980462E+02  0.46142318936E+02  0.10000010715E+02 0.  0.
         12    1    1    2    0    0 -0.25306484439E+02 -0.81993136490E+01 -0.36351980462E+02  0.45045681064E+02  0.00000000000E+00 0. -1.
         11    1    3    3    0    0  0.24329942772E+01  0.60212380690E+00  0.71012794767E+01  0.75306164887E+01  0.51100000000E-03 0. -1.
        -11    1    3    3    0    0  0.60452770633E+00  0.22125435939E+01  0.26656759539E+01  0.35166221655E+01  0.51100000000E-03 0.  1.
        -12    1    3    3    0    0  0.22268962455E+02  0.53846462482E+01  0.26585025032E+02  0.35095080282E+02  0.00000000000E+00 0.  1.
</event>
<event>
 7    1  0.2250716E-008  0.4614232E+02  0.7816164E-02  0.1320468E+00
        -11   -1    0    0    0    0  0.00000000000E+00  0.00000000000E+00  0.45593999997E+02  0.45594000000E+02  0.51100000000E-03 0. -1.
         11   -1    0    0    0    0 -0.00000000000E+00 -0.00000000000E+00 -0.45593999997E+02  0.45594000000E+02  0.51100000000E-03 0.  1.
    9900012    2    1    2    0    0  0.47106192867E+00 -0.15908427244E+02 -0.42140400648E+02  0.46142319591E+02  0.10000016689E+02 0.  0.
         12    1    1    2    0    0 -0.47106192867E+00  0.15908427244E+02  0.42140400648E+02  0.45045680409E+02  0.00000000000E+00 0. -1.
         11    1    3    3    0    0 -0.23138002147E+01 -0.47891769982E+01 -0.69843044476E+01  0.87789746914E+01  0.51100000000E-03 0. -1.
        -11    1    3    3    0    0  0.29259700620E+01 -0.51136273159E+01 -0.11078406584E+02  0.12547572587E+02  0.51100000000E-03 0.  1.
        -12    1    3    3    0    0 -0.14110791864E+00 -0.60056229298E+01 -0.24077689617E+02  0.24815772313E+02  0.00000000000E+00 0.  1.
</event>
<event>
 7    1  0.2250716E-008  0.4614233E+02  0.7816164E-02  0.1320468E+00
        -11   -1    0    0    0    0  0.00000000000E+00  0.00000000000E+00  0.45593999997E+02  0.45594000000E+02  0.51100000000E-03 0.  1.
         11   -1    0    0    0    0 -0.00000000000E+00 -0.00000000000E+00 -0.45593999997E+02  0.45594000000E+02  0.51100000000E-03 0. -1.
    9900012    2    1    2    0    0  0.42279727974E+02  0.11906552560E+02  0.99885610468E+01  0.46142326033E+02  0.10000075426E+02 0.  0.
         12    1    1    2    0    0 -0.42279727974E+02 -0.11906552560E+02 -0.99885610468E+01  0.45045673967E+02  0.00000000000E+00 0. -1.
         11    1    3    3    0    0  0.53981971417E+01 -0.84964917590E-01  0.17024626037E+01  0.56609301882E+01  0.51100000000E-03 0. -1.
        -11    1    3    3    0    0  0.31589650629E+02  0.78614499917E+01  0.47614674010E+01  0.32899543992E+02  0.51100000000E-03 0.  1.
        -12    1    3    3    0    0  0.52918802029E+01  0.41300674863E+01  0.35246310421E+01  0.75818518521E+01  0.00000000000E+00 0.  1.
</event>
<event>
 7    1  0.2250716E-008  0.4614232E+02  0.7816164E-02  0.1320468E+00
        -11   -1    0    0    0    0  0.00000000000E+00  0.00000000000E+00  0.45593999997E+02  0.45594000000E+02  0.51100000000E-03 0.  1.
         11   -1    0    0    0    0 -0.00000000000E+00 -0.00000000000E+00 -0.45593999997E+02  0.45594000000E+02  0.51100000000E-03 0. -1.
    9900012    2    1    2    0    0 -0.39255326125E+02  0.90835305188E+01 -0.20140065326E+02  0.46142318884E+02  0.10000010243E+02 0.  0.
         12    1    1    2    0    0  0.39255326125E+02 -0.90835305188E+01  0.20140065326E+02  0.45045681116E+02  0.00000000000E+00 0. -1.
         11    1    3    3    0    0  0.70826595284E-01  0.16908507751E+00  0.56865813258E+00  0.59747678023E+00  0.51100000000E-03 0. -1.
        -11    1    3    3    0    0 -0.79338751105E+01  0.29434485433E+01 -0.59593046477E+01  0.10350051968E+02  0.51100000000E-03 0.  1.
        -12    1    3    3    0    0 -0.31392277610E+02  0.59709968980E+01 -0.14749418810E+02  0.35194790136E+02  0.00000000000E+00 0.  1.
</event>
<event>
 7    1  0.2250716E-008  0.4614232E+02  0.7816164E-02  0.1320468E+00
        -11   -1    0    0    0    0  0.00000000000E+00  0.00000000000E+00  0.45593999997E+02  0.45594000000E+02  0.51100000000E-03 0. -1.
         11   -1    0    0    0    0 -0.00000000000E+00 -0.00000000000E+00 -0.45593999997E+02  0.45594000000E+02  0.51100000000E-03 0.  1.
    9900012    2    1    2    0    0  0.30320324420E+02 -0.31107574890E+02  0.11920998776E+02  0.46142317629E+02  0.99999987938E+01 0.  0.
         12    1    1    2    0    0 -0.30320324420E+02  0.31107574890E+02 -0.11920998776E+02  0.45045682371E+02  0.00000000000E+00 0. -1.
         11    1    3    3    0    0  0.62914485858E+01 -0.68085659630E+01  0.49309571139E+01  0.10500154004E+02  0.51100000000E-03 0. -1.
        -11    1    3    3    0    0  0.12599039868E+02 -0.15899998667E+02  0.69934984376E+01  0.21458210174E+02  0.51100000000E-03 0.  1.
         12    1    3    3    0    0  0.11429835966E+02 -0.83990102600E+01 -0.34567758025E-02  0.14183953451E+02  0.00000000000E+00 0. -1.
</event>
<event>
 7    1  0.2250716E-008  0.4614232E+02  0.7816164E-02  0.1320468E+00
        -11   -1    0    0    0    0  0.00000000000E+00  0.00000000000E+00  0.45593999997E+02  0.45594000000E+02  0.51100000000E-03 0. -1.
         11   -1    0    0    0    0 -0.00000000000E+00 -0.00000000000E+00 -0.45593999997E+02  0.45594000000E+02  0.51100000000E-03 0.  1.
    9900012    2    1    2    0    0 -0.24866488554E+02 -0.21884094117E+02 -0.30526343197E+02  0.46142318106E+02  0.10000003141E+02 0.  0.
         12    1    1    2    0    0  0.24866488554E+02  0.21884094117E+02  0.30526343197E+02  0.45045681894E+02  0.00000000000E+00 0. -1.
         11    1    3    3    0    0  0.69797685030E+00  0.96802703920E-03 -0.11151155083E+01  0.13155437958E+01  0.51100000000E-03 0. -1.
        -11    1    3    3    0    0 -0.69002302402E+01 -0.77204425204E+01 -0.79737903209E+01  0.13069037548E+02  0.51100000000E-03 0.  1.
        -12    1    3    3    0    0 -0.18664235164E+02 -0.14164619624E+02 -0.21437437368E+02  0.31757736762E+02  0.00000000000E+00 0.  1.
</event>
<event>
 7    1  0.2250716E-008  0.4614232E+02  0.7816164E-02  0.1320468E+00
        -11   -1    0    0    0    0  0.00000000000E+00  0.00000000000E+00  0.45593999997E+02  0.45594000000E+02  0.51100000000E-03 0. -1.
         11   -1    0    0    0    0 -0.00000000000E+00 -0.00000000000E+00 -0.45593999997E+02  0.45594000000E+02  0.51100000000E-03 0.  1.
    9900012    2    1    2    0    0 -0.11103045537E+02 -0.28976607923E+02 -0.32652596442E+02  0.46142317839E+02  0.10000000711E+02 0.  0.
         12    1    1    2    0    0  0.11103045537E+02  0.28976607923E+02  0.32652596442E+02  0.45045682161E+02  0.00000000000E+00 0. -1.
         11    1    3    3    0    0 -0.12372810584E+00 -0.10410570361E+02 -0.79656068587E+01  0.13109011282E+02  0.51100000000E-03 0. -1.
        -11    1    3    3    0    0 -0.48010244659E+01 -0.81250037243E+01 -0.13888685595E+02  0.16791697629E+02  0.51100000000E-03 0.  1.
        -12    1    3    3    0    0 -0.61782929653E+01 -0.10441033838E+02 -0.10798303988E+02  0.16241608928E+02  0.00000000000E+00 0.  1.
</event>
<event>
 7    1  0.2250716E-008  0.4614232E+02  0.7816164E-02  0.1320468E+00
        -11   -1    0    0    0    0  0.00000000000E+00  0.00000000000E+00  0.45593999997E+02  0.45594000000E+02  0.51100000000E-03 0.  1.
         11   -1    0    0    0    0 -0.00000000000E+00 -0.00000000000E+00 -0.45593999997E+02  0.45594000000E+02  0.51100000000E-03 0. -1.
    9900012    2    1    2    0    0 -0.41434104888E+02  0.12830785141E+02  0.12153164011E+02  0.46142317735E+02  0.99999997625E+01 0.  0.
         12    1    1    2    0    0  0.41434104888E+02 -0.12830785141E+02 -0.12153164011E+02  0.45045682265E+02  0.00000000000E+00 0. -1.
         11    1    3    3    0    0 -0.41357317759E+01  0.38855894881E+01  0.28524716928E+01  0.63512737314E+01  0.51100000000E-03 0.  1.
        -11    1    3    3    0    0 -0.49747914738E+01  0.28981529539E+01  0.69433714795E+00  0.57991331325E+01  0.51100000000E-03 0. -1.
        -12    1    3    3    0    0 -0.32323581639E+02  0.60470426991E+01  0.86063551698E+01  0.33991910871E+02  0.00000000000E+00 0.  1.
</event>
<event>
 7    1  0.2250716E-008  0.4614232E+02  0.7816164E-02  0.1320468E+00
        -11   -1    0    0    0    0  0.00000000000E+00  0.00000000000E+00  0.45593999997E+02  0.45594000000E+02  0.51100000000E-03 0.  1.
         11   -1    0    0    0    0 -0.00000000000E+00 -0.00000000000E+00 -0.45593999997E+02  0.45594000000E+02  0.51100000000E-03 0. -1.
    9900012    2    1    2    0    0 -0.17302328746E+02  0.29706356509E+02  0.29107993321E+02  0.46142317940E+02  0.10000001631E+02 0.  0.
         12    1    1    2    0    0  0.17302328746E+02 -0.29706356509E+02 -0.29107993321E+02  0.45045682060E+02  0.00000000000E+00 0. -1.
         11    1    3    3    0    0 -0.99177424256E+01  0.15485009688E+02  0.12018064899E+02  0.21967726875E+02  0.51100000000E-03 0. -1.
        -11    1    3    3    0    0 -0.56449024667E+01  0.51771966034E+01  0.58185202740E+01  0.96189119431E+01  0.51100000000E-03 0.  1.
        -12    1    3    3    0    0 -0.17396838538E+01  0.90441502172E+01  0.11271408148E+02  0.14555679122E+02  0.00000000000E+00 0.  1.
</event>
<event>
 7    1  0.2250716E-008  0.4614232E+02  0.7816164E-02  0.1320468E+00
        -11   -1    0    0    0    0  0.00000000000E+00  0.00000000000E+00  0.45593999997E+02  0.45594000000E+02  0.51100000000E-03 0. -1.
         11   -1    0    0    0    0 -0.00000000000E+00 -0.00000000000E+00 -0.45593999997E+02  0.45594000000E+02  0.51100000000E-03 0.  1.
    9900012    2    1    2    0    0  0.41417618305E+02 -0.17643766014E+02 -0.15465527643E+01  0.46142318623E+02  0.10000007863E+02 0.  0.
         12    1    1    2    0    0 -0.41417618305E+02  0.17643766014E+02  0.15465527643E+01  0.45045681377E+02  0.00000000000E+00 0. -1.
         11    1    3    3    0    0  0.13327332671E+02 -0.60010884755E+01  0.18473815052E+00  0.14617283860E+02  0.51100000000E-03 0. -1.
        -11    1    3    3    0    0  0.25479622700E+02 -0.10275567890E+02 -0.40561904298E+01  0.27771408849E+02  0.51100000000E-03 0.  1.
         12    1    3    3    0    0  0.26106629346E+01 -0.13671096485E+01  0.23248995150E+01  0.37536259142E+01  0.00000000000E+00 0. -1.
</event>
<event>
 7    1  0.2250716E-008  0.4614232E+02  0.7816164E-02  0.1320468E+00
        -11   -1    0    0    0    0  0.00000000000E+00  0.00000000000E+00  0.45593999997E+02  0.45594000000E+02  0.51100000000E-03 0.  1.
         11   -1    0    0    0    0 -0.00000000000E+00 -0.00000000000E+00 -0.45593999997E+02  0.45594000000E+02  0.51100000000E-03 0. -1.
    9900012    2    1    2    0    0 -0.40493865299E+02  0.26510746796E+01 -0.19553317907E+02  0.46142316911E+02  0.99999922437E+01 0.  0.
         12    1    1    2    0    0  0.40493865299E+02 -0.26510746796E+01  0.19553317907E+02  0.45045683089E+02  0.00000000000E+00 0. -1.
         11    1    3    3    0    0 -0.36557224414E+02  0.42314063965E+01 -0.17041520657E+02  0.40555503739E+02  0.51100000000E-03 0. -1.
        -11    1    3    3    0    0 -0.40449089287E+01 -0.16301070467E+01 -0.15661998388E+01  0.46337370903E+01  0.51100000000E-03 0.  1.
        -12    1    3    3    0    0  0.10826804365E+00  0.49775329757E-01 -0.94559741119E+00  0.95307608132E+00  0.00000000000E+00 0.  1.
</event>
<event>
 7    1  0.2250716E-008  0.4614232E+02  0.7816164E-02  0.1320468E+00
        -11   -1    0    0    0    0  0.00000000000E+00  0.00000000000E+00  0.45593999997E+02  0.45594000000E+02  0.51100000000E-03 0.  1.
         11   -1    0    0    0    0 -0.00000000000E+00 -0.00000000000E+00 -0.45593999997E+02  0.45594000000E+02  0.51100000000E-03 0. -1.
    9900012    2    1    2    0    0  0.23727802457E+02 -0.16516787973E-01  0.38289745598E+02  0.46142317630E+02  0.99999988055E+01 0.  0.
         12    1    1    2    0    0 -0.23727802457E+02  0.16516787973E-01 -0.38289745598E+02  0.45045682370E+02  0.00000000000E+00 0. -1.
         11    1    3    3    0    0  0.12506960550E+02 -0.34848023970E+01  0.14707428446E+02  0.19618266022E+02  0.51100000000E-03 0. -1.
        -11    1    3    3    0    0  0.62303492469E+01  0.44880791267E+00  0.10858755884E+02  0.12527220757E+02  0.51100000000E-03 0.  1.
         12    1    3    3    0    0  0.49904926592E+01  0.30194776964E+01  0.12723561268E+02  0.13996830851E+02  0.00000000000E+00 0. -1.
</event>
<event>
 7    1  0.2250716E-008  0.4614232E+02  0.7816164E-02  0.1320468E+00
        -11   -1    0    0    0    0  0.00000000000E+00  0.00000000000E+00  0.45593999997E+02  0.45594000000E+02  0.51100000000E-03 0.  1.
         11   -1    0    0    0    0 -0.00000000000E+00 -0.00000000000E+00 -0.45593999997E+02  0.45594000000E+02  0.51100000000E-03 0. -1.
    9900012    2    1    2    0    0 -0.28228728334E+02 -0.20621647294E+01  0.35042829359E+02  0.46142317452E+02  0.99999971797E+01 0.  0.
         12    1    1    2    0    0  0.28228728334E+02  0.20621647294E+01 -0.35042829359E+02  0.45045682548E+02  0.00000000000E+00 0. -1.
         11    1    3    3    0    0 -0.19682825455E+01 -0.55968745943E+00  0.79626864161E+00  0.21957755445E+01  0.51100000000E-03 0. -1.
        -11    1    3    3    0    0 -0.77980390346E+01 -0.14843099955E+01  0.16632033613E+02  0.18429246629E+02  0.51100000000E-03 0.  1.
        -12    1    3    3    0    0 -0.18462406754E+02 -0.18167274486E-01  0.17614527104E+02  0.25517295278E+02  0.00000000000E+00 0.  1.
</event>
<event>
 7    1  0.2250716E-008  0.4614232E+02  0.7816164E-02  0.1320468E+00
        -11   -1    0    0    0    0  0.00000000000E+00  0.00000000000E+00  0.45593999997E+02  0.45594000000E+02  0.51100000000E-03 0. -1.
         11   -1    0    0    0    0 -0.00000000000E+00 -0.00000000000E+00 -0.45593999997E+02  0.45594000000E+02  0.51100000000E-03 0.  1.
    9900012    2    1    2    0    0  0.27517548853E+02 -0.29281997559E+01 -0.35543264584E+02  0.46142317565E+02  0.99999982145E+01 0.  0.
         12    1    1    2    0    0 -0.27517548853E+02  0.29281997559E+01  0.35543264584E+02  0.45045682435E+02  0.00000000000E+00 0. -1.
         11    1    3    3    0    0  0.18247897567E+02  0.97995388359E+00 -0.18760443531E+02  0.26189698680E+02  0.51100000000E-03 0. -1.
        -11    1    3    3    0    0  0.12727746156E+01  0.23237530402E+00 -0.58515027088E+00  0.14199840156E+01  0.51100000000E-03 0.  1.
        -12    1    3    3    0    0  0.79968766702E+01 -0.41405289435E+01 -0.16197670783E+02  0.18532634869E+02  0.00000000000E+00 0.  1.
</event>
<event>
 7    1  0.2250716E-008  0.4614232E+02  0.7816164E-02  0.1320468E+00
        -11   -1    0    0    0    0  0.00000000000E+00  0.00000000000E+00  0.45593999997E+02  0.45594000000E+02  0.51100000000E-03 0.  1.
         11   -1    0    0    0    0 -0.00000000000E+00 -0.00000000000E+00 -0.45593999997E+02  0.45594000000E+02  0.51100000000E-03 0. -1.
    9900012    2    1    2    0    0  0.34221630607E+02 -0.28660963302E+02 -0.60450640512E+01  0.46142316320E+02  0.99999868572E+01 0.  0.
         12    1    1    2    0    0 -0.34221630607E+02  0.28660963302E+02  0.60450640512E+01  0.45045683680E+02  0.00000000000E+00 0. -1.
         11    1    3    3    0    0  0.12903002566E+02 -0.12981140901E+02 -0.47759601414E+01  0.18915794719E+02  0.51100000000E-03 0. -1.
        -11    1    3    3    0    0  0.97191660476E+01 -0.78946773886E+01 -0.36780414595E+01  0.13050521406E+02  0.51100000000E-03 0.  1.
        -12    1    3    3    0    0  0.11599461994E+02 -0.77851450128E+01  0.24089375497E+01  0.14176000195E+02  0.00000000000E+00 0.  1.
</event>
<event>
 7    1  0.2250716E-008  0.4614232E+02  0.7816164E-02  0.1320468E+00
        -11   -1    0    0    0    0  0.00000000000E+00  0.00000000000E+00  0.45593999997E+02  0.45594000000E+02  0.51100000000E-03 0.  1.
         11   -1    0    0    0    0 -0.00000000000E+00 -0.00000000000E+00 -0.45593999997E+02  0.45594000000E+02  0.51100000000E-03 0. -1.
    9900012    2    1    2    0    0 -0.21255109503E+02 -0.10653306407E+02  0.38260171426E+02  0.46142319465E+02  0.10000015534E+02 0.  0.
         12    1    1    2    0    0  0.21255109503E+02  0.10653306407E+02 -0.38260171426E+02  0.45045680535E+02  0.00000000000E+00 0. -1.
         11    1    3    3    0    0 -0.58478486220E+01 -0.24022853822E+01  0.58120392396E+01  0.85876719167E+01  0.51100000000E-03 0. -1.
        -11    1    3    3    0    0 -0.15729333519E+02 -0.63436209500E+01  0.28701361120E+02  0.33337990193E+02  0.51100000000E-03 0.  1.
         12    1    3    3    0    0  0.32207263808E+00 -0.19074000744E+01  0.37467710657E+01  0.42166573547E+01  0.00000000000E+00 0. -1.
</event>
<event>
 7    1  0.2250716E-008  0.4614232E+02  0.7816164E-02  0.1320468E+00
        -11   -1    0    0    0    0  0.00000000000E+00  0.00000000000E+00  0.45593999997E+02  0.45594000000E+02  0.51100000000E-03 0. -1.
         11   -1    0    0    0    0 -0.00000000000E+00 -0.00000000000E+00 -0.45593999997E+02  0.45594000000E+02  0.51100000000E-03 0.  1.
    9900012    2    1    2    0    0 -0.99846013446E+01 -0.43203135494E+02 -0.79316026607E+01  0.46142317618E+02  0.99999986944E+01 0.  0.
         12    1    1    2    0    0  0.99846013446E+01  0.43203135494E+02  0.79316026607E+01  0.45045682382E+02  0.00000000000E+00 0. -1.
         11    1    3    3    0    0 -0.78832312185E+00 -0.10745952840E+02 -0.51987027550E+01  0.11963422018E+02  0.51100000000E-03 0. -1.
        -11    1    3    3    0    0 -0.56353881130E+01 -0.11602323908E+02 -0.15152475579E+01  0.12987205037E+02  0.51100000000E-03 0.  1.
         12    1    3    3    0    0 -0.35608901097E+01 -0.20854858745E+02 -0.12176523478E+01  0.21191690563E+02  0.00000000000E+00 0. -1.
</event>
<event>
 7    1  0.2250716E-008  0.4614232E+02  0.7816164E-02  0.1320468E+00
        -11   -1    0    0    0    0  0.00000000000E+00  0.00000000000E+00  0.45593999997E+02  0.45594000000E+02  0.51100000000E-03 0. -1.
         11   -1    0    0    0    0 -0.00000000000E+00 -0.00000000000E+00 -0.45593999997E+02  0.45594000000E+02  0.51100000000E-03 0.  1.
    9900012    2    1    2    0    0 -0.28171117184E+02  0.27252763920E+02  0.22198839732E+02  0.46142317964E+02  0.10000001847E+02 0.  0.
         12    1    1    2    0    0  0.28171117184E+02 -0.27252763920E+02 -0.22198839732E+02  0.45045682036E+02  0.00000000000E+00 0. -1.
         11    1    3    3    0    0 -0.47967286605E+01  0.35864640592E+01  0.56968829992E+01  0.82659425632E+01  0.51100000000E-03 0. -1.
        -11    1    3    3    0    0 -0.12588376875E+02  0.15464914579E+02  0.62900006745E+01  0.20909206681E+02  0.51100000000E-03 0.  1.
        -12    1    3    3    0    0 -0.10786011648E+02  0.82013852819E+01  0.10211956058E+02  0.16967168720E+02  0.00000000000E+00 0.  1.
</event>
<event>
 7    1  0.2250716E-008  0.4614232E+02  0.7816164E-02  0.1320468E+00
        -11   -1    0    0    0    0  0.00000000000E+00  0.00000000000E+00  0.45593999997E+02  0.45594000000E+02  0.51100000000E-03 0.  1.
         11   -1    0    0    0    0 -0.00000000000E+00 -0.00000000000E+00 -0.45593999997E+02  0.45594000000E+02  0.51100000000E-03 0. -1.
    9900012    2    1    2    0    0 -0.36038747320E+02 -0.26716268318E+02 -0.40697925469E+01  0.46142317492E+02  0.99999975455E+01 0.  0.
         12    1    1    2    0    0  0.36038747320E+02  0.26716268318E+02  0.40697925469E+01  0.45045682508E+02  0.00000000000E+00 0. -1.
         11    1    3    3    0    0 -0.70146145128E+01 -0.99269615891E+01 -0.22290436444E+01  0.12357913213E+02  0.51100000000E-03 0. -1.
        -11    1    3    3    0    0 -0.13489804711E+02 -0.82786799732E+01 -0.26744383440E+01  0.16051915585E+02  0.51100000000E-03 0.  1.
         12    1    3    3    0    0 -0.15534328097E+02 -0.85106267555E+01  0.83368944146E+00  0.17732488694E+02  0.00000000000E+00 0. -1.
</event>
<event>
 7    1  0.2250716E-008  0.4614232E+02  0.7816164E-02  0.1320468E+00
        -11   -1    0    0    0    0  0.00000000000E+00  0.00000000000E+00  0.45593999997E+02  0.45594000000E+02  0.51100000000E-03 0.  1.
         11   -1    0    0    0    0 -0.00000000000E+00 -0.00000000000E+00 -0.45593999997E+02  0.45594000000E+02  0.51100000000E-03 0. -1.
    9900012    2    1    2    0    0 -0.48833038498E+01  0.37221695384E+01  0.44625243630E+02  0.46142316838E+02  0.99999915781E+01 0.  0.
         12    1    1    2    0    0  0.48833038498E+01 -0.37221695384E+01 -0.44625243630E+02  0.45045683162E+02  0.00000000000E+00 0. -1.
         11    1    3    3    0    0  0.18207799110E-01  0.33380872231E+01  0.12557999660E+02  0.12994095334E+02  0.51100000000E-03 0. -1.
        -11    1    3    3    0    0  0.81774405777E+00  0.11876204035E+00  0.17151177323E+02  0.17171071416E+02  0.51100000000E-03 0.  1.
         12    1    3    3    0    0 -0.57192557067E+01  0.26532027499E+00  0.14916066647E+02  0.15977150087E+02  0.00000000000E+00 0. -1.
</event>
<event>
 7    1  0.2250716E-008  0.4614232E+02  0.7816164E-02  0.1320468E+00
        -11   -1    0    0    0    0  0.00000000000E+00  0.00000000000E+00  0.45593999997E+02  0.45594000000E+02  0.51100000000E-03 0.  1.
         11   -1    0    0    0    0 -0.00000000000E+00 -0.00000000000E+00 -0.45593999997E+02  0.45594000000E+02  0.51100000000E-03 0. -1.
    9900012    2    1    2    0    0  0.35331956944E+02 -0.15667888219E+02 -0.23136195430E+02  0.46142318279E+02  0.10000004720E+02 0.  0.
         12    1    1    2    0    0 -0.35331956944E+02  0.15667888219E+02  0.23136195430E+02  0.45045681721E+02  0.00000000000E+00 0. -1.
         11    1    3    3    0    0  0.27745593413E+02 -0.12706042030E+02 -0.18018667710E+02  0.35439156935E+02  0.51100000000E-03 0. -1.
        -11    1    3    3    0    0  0.51170068855E+01 -0.28938509975E+01 -0.10906128683E+01  0.59789271405E+01  0.51100000000E-03 0.  1.
         12    1    3    3    0    0  0.24693566456E+01 -0.67995191538E-01 -0.40269148514E+01  0.47242342035E+01  0.00000000000E+00 0. -1.
</event>
<event>
 7    1  0.2250716E-008  0.4614232E+02  0.7816164E-02  0.1320468E+00
        -11   -1    0    0    0    0  0.00000000000E+00  0.00000000000E+00  0.45593999997E+02  0.45594000000E+02  0.51100000000E-03 0.  1.
         11   -1    0    0    0    0 -0.00000000000E+00 -0.00000000000E+00 -0.45593999997E+02  0.45594000000E+02  0.51100000000E-03 0. -1.
    9900012    2    1    2    0    0 -0.39531544546E+02 -0.16426374785E+02  0.14019440696E+02  0.46142317408E+02  0.99999967815E+01 0.  0.
         12    1    1    2    0    0  0.39531544546E+02  0.16426374785E+02 -0.14019440696E+02  0.45045682592E+02  0.00000000000E+00 0. -1.
         11    1    3    3    0    0 -0.54821728300E+01 -0.48534933079E+01  0.76001771319E+00  0.73612664273E+01  0.51100000000E-03 0. -1.
        -11    1    3    3    0    0 -0.29355167669E+02 -0.10651888046E+02  0.93345489996E+01  0.32593287547E+02  0.51100000000E-03 0.  1.
         12    1    3    3    0    0 -0.46942040466E+01 -0.92099343047E+00  0.39248739832E+01  0.61877634339E+01  0.00000000000E+00 0. -1.
</event>
<event>
 7    1  0.2250716E-008  0.4614232E+02  0.7816164E-02  0.1320468E+00
        -11   -1    0    0    0    0  0.00000000000E+00  0.00000000000E+00  0.45593999997E+02  0.45594000000E+02  0.51100000000E-03 0.  1.
         11   -1    0    0    0    0 -0.00000000000E+00 -0.00000000000E+00 -0.45593999997E+02  0.45594000000E+02  0.51100000000E-03 0. -1.
    9900012    2    1    2    0    0 -0.22679994128E+02 -0.13029038331E+02  0.36673908186E+02  0.46142317464E+02  0.99999972945E+01 0.  0.
         12    1    1    2    0    0  0.22679994128E+02  0.13029038331E+02 -0.36673908186E+02  0.45045682536E+02  0.00000000000E+00 0. -1.
         11    1    3    3    0    0 -0.54604223046E+01 -0.82314132338E+00  0.89350060665E+01  0.10503718725E+02  0.51100000000E-03 0. -1.
        -11    1    3    3    0    0 -0.96457110527E+01 -0.86734415611E+01  0.11325960235E+02  0.17220502482E+02  0.51100000000E-03 0.  1.
        -12    1    3    3    0    0 -0.75738607705E+01 -0.35324554470E+01  0.16412941884E+02  0.18418096257E+02  0.00000000000E+00 0.  1.
</event>
<event>
 7    1  0.2250716E-008  0.4614232E+02  0.7816164E-02  0.1320468E+00
        -11   -1    0    0    0    0  0.00000000000E+00  0.00000000000E+00  0.45593999997E+02  0.45594000000E+02  0.51100000000E-03 0.  1.
         11   -1    0    0    0    0 -0.00000000000E+00 -0.00000000000E+00 -0.45593999997E+02  0.45594000000E+02  0.51100000000E-03 0. -1.
    9900012    2    1    2    0    0 -0.62747702989E+01  0.44452756205E+02 -0.37004291791E+01  0.46142318158E+02  0.10000003618E+02 0.  0.
         12    1    1    2    0    0  0.62747702989E+01 -0.44452756205E+02  0.37004291791E+01  0.45045681842E+02  0.00000000000E+00 0. -1.
         11    1    3    3    0    0 -0.10262588724E+01  0.30419624750E+02 -0.34181043347E+01  0.30628258434E+02  0.51100000000E-03 0. -1.
        -11    1    3    3    0    0 -0.54970952677E+01  0.14089293538E+02 -0.56399322615E+00  0.15134210829E+02  0.51100000000E-03 0.  1.
         12    1    3    3    0    0  0.24858384116E+00 -0.56162083410E-01  0.28166838177E+00  0.37984889493E+00  0.00000000000E+00 0. -1.
</event>
<event>
 7    1  0.2250716E-008  0.4614232E+02  0.7816164E-02  0.1320468E+00
        -11   -1    0    0    0    0  0.00000000000E+00  0.00000000000E+00  0.45593999997E+02  0.45594000000E+02  0.51100000000E-03 0.  1.
         11   -1    0    0    0    0 -0.00000000000E+00 -0.00000000000E+00 -0.45593999997E+02  0.45594000000E+02  0.51100000000E-03 0. -1.
    9900012    2    1    2    0    0 -0.14961588994E+02 -0.80652825306E+01  0.41715891541E+02  0.46142317248E+02  0.99999953177E+01 0.  0.
         12    1    1    2    0    0  0.14961588994E+02  0.80652825306E+01 -0.41715891541E+02  0.45045682752E+02  0.00000000000E+00 0. -1.
         11    1    3    3    0    0 -0.75694283655E+00  0.54851105829E+00  0.22206140342E+01  0.24093471707E+01  0.51100000000E-03 0. -1.
        -11    1    3    3    0    0 -0.13567337287E+02 -0.43876451047E+01  0.33103375693E+02  0.36043828225E+02  0.51100000000E-03 0.  1.
         12    1    3    3    0    0 -0.63730887048E+00 -0.42261484841E+01  0.63919018145E+01  0.76891418515E+01  0.00000000000E+00 0. -1.
</event>
<event>
 7    1  0.2250716E-008  0.4614232E+02  0.7816164E-02  0.1320468E+00
        -11   -1    0    0    0    0  0.00000000000E+00  0.00000000000E+00  0.45593999997E+02  0.45594000000E+02  0.51100000000E-03 0.  1.
         11   -1    0    0    0    0 -0.00000000000E+00 -0.00000000000E+00 -0.45593999997E+02  0.45594000000E+02  0.51100000000E-03 0. -1.
    9900012    2    1    2    0    0 -0.39860886045E+02  0.19665449914E+02  0.73139201942E+01  0.46142316686E+02  0.99999901995E+01 0.  0.
         12    1    1    2    0    0  0.39860886045E+02 -0.19665449914E+02 -0.73139201942E+01  0.45045683314E+02  0.00000000000E+00 0. -1.
         11    1    3    3    0    0 -0.17062084785E+02  0.11115943732E+02  0.34201953515E+00  0.20366539222E+02  0.51100000000E-03 0. -1.
        -11    1    3    3    0    0 -0.18988541245E+02  0.82367968471E+01  0.72783057442E+01  0.21940447937E+02  0.51100000000E-03 0.  1.
        -12    1    3    3    0    0 -0.38102600146E+01  0.31270933552E+00 -0.30640508511E+00  0.38353295274E+01  0.00000000000E+00 0.  1.
</event>
<event>
 7    1  0.2250716E-008  0.4614232E+02  0.7816164E-02  0.1320468E+00
        -11   -1    0    0    0    0  0.00000000000E+00  0.00000000000E+00  0.45593999997E+02  0.45594000000E+02  0.51100000000E-03 0.  1.
         11   -1    0    0    0    0 -0.00000000000E+00 -0.00000000000E+00 -0.45593999997E+02  0.45594000000E+02  0.51100000000E-03 0. -1.
    9900012    2    1    2    0    0 -0.62385528983E+00  0.42241088993E+02  0.15633768999E+02  0.46142317323E+02  0.99999960067E+01 0.  0.
         12    1    1    2    0    0  0.62385528983E+00 -0.42241088993E+02 -0.15633768999E+02  0.45045682677E+02  0.00000000000E+00 0. -1.
         11    1    3    3    0    0 -0.13508564487E+01  0.58667756620E+01 -0.38936538421E+00  0.60328662737E+01  0.51100000000E-03 0. -1.
        -11    1    3    3    0    0 -0.18119303634E+01  0.16762526904E+02  0.56715844966E+01  0.17788543246E+02  0.51100000000E-03 0.  1.
        -12    1    3    3    0    0  0.25389315223E+01  0.19611786427E+02  0.10351549887E+02  0.22320907803E+02  0.00000000000E+00 0.  1.
</event>
<event>
 7    1  0.2250716E-008  0.4614232E+02  0.7816164E-02  0.1320468E+00
        -11   -1    0    0    0    0  0.00000000000E+00  0.00000000000E+00  0.45593999997E+02  0.45594000000E+02  0.51100000000E-03 0.  1.
         11   -1    0    0    0    0 -0.00000000000E+00 -0.00000000000E+00 -0.45593999997E+02  0.45594000000E+02  0.51100000000E-03 0. -1.
    9900012    2    1    2    0    0  0.14367656370E+02  0.93247600161E+01  0.41662126415E+02  0.46142317895E+02  0.10000001218E+02 0.  0.
         12    1    1    2    0    0 -0.14367656370E+02 -0.93247600161E+01 -0.41662126415E+02  0.45045682105E+02  0.00000000000E+00 0. -1.
         11    1    3    3    0    0  0.10125192495E+02  0.80951797654E+00  0.21701756984E+02  0.23961241597E+02  0.51100000000E-03 0. -1.
        -11    1    3    3    0    0  0.28371850844E+01  0.46834944136E+01  0.13101242220E+02  0.14199552355E+02  0.51100000000E-03 0.  1.
         12    1    3    3    0    0  0.14052787908E+01  0.38317476259E+01  0.68591272107E+01  0.79815239423E+01  0.00000000000E+00 0. -1.
</event>
<event>
 7    1  0.2250716E-008  0.4614232E+02  0.7816164E-02  0.1320468E+00
        -11   -1    0    0    0    0  0.00000000000E+00  0.00000000000E+00  0.45593999997E+02  0.45594000000E+02  0.51100000000E-03 0.  1.
         11   -1    0    0    0    0 -0.00000000000E+00 -0.00000000000E+00 -0.45593999997E+02  0.45594000000E+02  0.51100000000E-03 0. -1.
    9900012    2    1    2    0    0  0.25742466666E+02  0.35986576237E+01  0.36789789150E+02  0.46142317494E+02  0.99999975624E+01 0.  0.
         12    1    1    2    0    0 -0.25742466666E+02 -0.35986576237E+01 -0.36789789150E+02  0.45045682506E+02  0.00000000000E+00 0. -1.
         11    1    3    3    0    0  0.14110117643E+02  0.71612095183E+00  0.17333687287E+02  0.22362132375E+02  0.51100000000E-03 0. -1.
        -11    1    3    3    0    0  0.33750229017E+01 -0.10102561890E+01  0.10150146398E+02  0.10744155123E+02  0.51100000000E-03 0.  1.
         12    1    3    3    0    0  0.82573261206E+01  0.38927928609E+01  0.93059554649E+01  0.13036029995E+02  0.00000000000E+00 0. -1.
</event>
<event>
 7    1  0.2250716E-008  0.4614232E+02  0.7816164E-02  0.1320468E+00
        -11   -1    0    0    0    0  0.00000000000E+00  0.00000000000E+00  0.45593999997E+02  0.45594000000E+02  0.51100000000E-03 0.  1.
         11   -1    0    0    0    0 -0.00000000000E+00 -0.00000000000E+00 -0.45593999997E+02  0.45594000000E+02  0.51100000000E-03 0. -1.
    9900012    2    1    2    0    0 -0.32947359864E+02 -0.85969810179E+01  0.29490285292E+02  0.46142317285E+02  0.99999956621E+01 0.  0.
         12    1    1    2    0    0  0.32947359864E+02  0.85969810179E+01 -0.29490285292E+02  0.45045682715E+02  0.00000000000E+00 0. -1.
         11    1    3    3    0    0 -0.46364384009E+01 -0.42399400201E+01  0.69715659598E+01  0.93849019501E+01  0.51100000000E-03 0. -1.
        -11    1    3    3    0    0 -0.16033108117E+02 -0.11224336718E+01  0.10013899417E+02  0.18936699687E+02  0.51100000000E-03 0.  1.
        -12    1    3    3    0    0 -0.12277813347E+02 -0.32346073259E+01  0.12504819915E+02  0.17820715649E+02  0.00000000000E+00 0.  1.
</event>
<event>
 7    1  0.2250716E-008  0.4614233E+02  0.7816164E-02  0.1320468E+00
        -11   -1    0    0    0    0  0.00000000000E+00  0.00000000000E+00  0.45593999997E+02  0.45594000000E+02  0.51100000000E-03 0. -1.
         11   -1    0    0    0    0 -0.00000000000E+00 -0.00000000000E+00 -0.45593999997E+02  0.45594000000E+02  0.51100000000E-03 0.  1.
    9900012    2    1    2    0    0  0.42742723581E+02  0.94005655052E+01 -0.10667789857E+02  0.46142325498E+02  0.10000070551E+02 0.  0.
         12    1    1    2    0    0 -0.42742723581E+02 -0.94005655052E+01  0.10667789857E+02  0.45045674502E+02  0.00000000000E+00 0. -1.
         11    1    3    3    0    0  0.24652898522E+02  0.37852562638E+01 -0.39718337465E+01  0.25256069253E+02  0.51100000000E-03 0. -1.
        -11    1    3    3    0    0  0.16589229248E+02  0.31541529925E+01 -0.54301825433E+01  0.17738040784E+02  0.51100000000E-03 0.  1.
         12    1    3    3    0    0  0.15005958104E+01  0.24611562489E+01 -0.12657735668E+01  0.31482154612E+01  0.00000000000E+00 0. -1.
</event>
<event>
 7    1  0.2250716E-008  0.4614233E+02  0.7816164E-02  0.1320468E+00
        -11   -1    0    0    0    0  0.00000000000E+00  0.00000000000E+00  0.45593999997E+02  0.45594000000E+02  0.51100000000E-03 0.  1.
         11   -1    0    0    0    0 -0.00000000000E+00 -0.00000000000E+00 -0.45593999997E+02  0.45594000000E+02  0.51100000000E-03 0. -1.
    9900012    2    1    2    0    0 -0.32228652423E+02  0.10138714966E+02  0.29793162637E+02  0.46142332971E+02  0.10000138691E+02 0.  0.
         12    1    1    2    0    0  0.32228652423E+02 -0.10138714966E+02 -0.29793162637E+02  0.45045667029E+02  0.00000000000E+00 0. -1.
         11    1    3    3    0    0 -0.99024783606E+00  0.24656942347E+01  0.36864481466E+01  0.45442424050E+01  0.51100000000E-03 0. -1.
        -11    1    3    3    0    0 -0.18289038239E+02  0.55669963511E+01  0.13502997668E+02  0.23405369349E+02  0.51100000000E-03 0.  1.
         12    1    3    3    0    0 -0.12949366348E+02  0.21060243804E+01  0.12603716823E+02  0.18192721217E+02  0.00000000000E+00 0. -1.
</event>
<event>
 7    1  0.2250716E-008  0.4614232E+02  0.7816164E-02  0.1320468E+00
        -11   -1    0    0    0    0  0.00000000000E+00  0.00000000000E+00  0.45593999997E+02  0.45594000000E+02  0.51100000000E-03 0.  1.
         11   -1    0    0    0    0 -0.00000000000E+00 -0.00000000000E+00 -0.45593999997E+02  0.45594000000E+02  0.51100000000E-03 0. -1.
    9900012    2    1    2    0    0  0.24072194610E+02  0.12432926789E+02  0.35987016165E+02  0.46142317029E+02  0.99999933207E+01 0.  0.
         12    1    1    2    0    0 -0.24072194610E+02 -0.12432926789E+02 -0.35987016165E+02  0.45045682971E+02  0.00000000000E+00 0. -1.
         11    1    3    3    0    0  0.86646654900E+01  0.26903557811E+01  0.87381480428E+01  0.12596415115E+02  0.51100000000E-03 0. -1.
        -11    1    3    3    0    0  0.39696458575E+01  0.61598523227E+01  0.13028706928E+02  0.14948213049E+02  0.51100000000E-03 0.  1.
        -12    1    3    3    0    0  0.11437883263E+02  0.35827186848E+01  0.14220161194E+02  0.18597688865E+02  0.00000000000E+00 0.  1.
</event>
<event>
 7    1  0.2250716E-008  0.4614232E+02  0.7816164E-02  0.1320468E+00
        -11   -1    0    0    0    0  0.00000000000E+00  0.00000000000E+00  0.45593999997E+02  0.45594000000E+02  0.51100000000E-03 0.  1.
         11   -1    0    0    0    0 -0.00000000000E+00 -0.00000000000E+00 -0.45593999997E+02  0.45594000000E+02  0.51100000000E-03 0. -1.
    9900012    2    1    2    0    0  0.30426188963E+02  0.10080245903E+02  0.31650420526E+02  0.46142318167E+02  0.10000003704E+02 0.  0.
         12    1    1    2    0    0 -0.30426188963E+02 -0.10080245903E+02 -0.31650420526E+02  0.45045681833E+02  0.00000000000E+00 0. -1.
         11    1    3    3    0    0  0.15758933940E+02  0.74841719114E+00  0.16245027253E+02  0.22645199004E+02  0.51100000000E-03 0. -1.
        -11    1    3    3    0    0  0.43083212920E+01  0.99769203088E+00  0.33199613659E+01  0.55298431692E+01  0.51100000000E-03 0.  1.
        -12    1    3    3    0    0  0.10358933731E+02  0.83341366811E+01  0.12085431907E+02  0.17967275994E+02  0.00000000000E+00 0.  1.
</event>
<event>
 7    1  0.2250716E-008  0.4614232E+02  0.7816164E-02  0.1320468E+00
        -11   -1    0    0    0    0  0.00000000000E+00  0.00000000000E+00  0.45593999997E+02  0.45594000000E+02  0.51100000000E-03 0. -1.
         11   -1    0    0    0    0 -0.00000000000E+00 -0.00000000000E+00 -0.45593999997E+02  0.45594000000E+02  0.51100000000E-03 0.  1.
    9900012    2    1    2    0    0  0.37177726515E+02  0.12056666068E+02 -0.22395690060E+02  0.46142317868E+02  0.10000000972E+02 0.  0.
         12    1    1    2    0    0 -0.37177726515E+02 -0.12056666068E+02  0.22395690060E+02  0.45045682132E+02  0.00000000000E+00 0. -1.
         11    1    3    3    0    0  0.53066796057E+00  0.67721430995E-01  0.21877512837E+00  0.57797707091E+00  0.51100000000E-03 0. -1.
        -11    1    3    3    0    0  0.74229138080E+01  0.31177624119E+00 -0.78302094183E+01  0.10793935039E+02  0.51100000000E-03 0.  1.
        -12    1    3    3    0    0  0.29224144746E+02  0.11677168396E+02 -0.14784255770E+02  0.34770405758E+02  0.00000000000E+00 0.  1.
</event>
<event>
 7    1  0.2250716E-008  0.4614232E+02  0.7816164E-02  0.1320468E+00
        -11   -1    0    0    0    0  0.00000000000E+00  0.00000000000E+00  0.45593999997E+02  0.45594000000E+02  0.51100000000E-03 0.  1.
         11   -1    0    0    0    0 -0.00000000000E+00 -0.00000000000E+00 -0.45593999997E+02  0.45594000000E+02  0.51100000000E-03 0. -1.
    9900012    2    1    2    0    0  0.18816762265E+02  0.23720202739E+02  0.33352582105E+02  0.46142319928E+02  0.10000019758E+02 0.  0.
         12    1    1    2    0    0 -0.18816762265E+02 -0.23720202739E+02 -0.33352582105E+02  0.45045680072E+02  0.00000000000E+00 0. -1.
         11    1    3    3    0    0  0.40752136034E+00  0.28600797619E+01  0.34999018450E+01  0.45382202557E+01  0.51100000000E-03 0. -1.
        -11    1    3    3    0    0  0.45216118545E+01  0.10414358280E+01  0.34041066275E+01  0.57547810158E+01  0.51100000000E-03 0.  1.
        -12    1    3    3    0    0  0.13887629050E+02  0.19818687149E+02  0.26448573633E+02  0.35849318656E+02  0.00000000000E+00 0.  1.
</event>
<event>
 7    1  0.2250716E-008  0.4614232E+02  0.7816164E-02  0.1320468E+00
        -11   -1    0    0    0    0  0.00000000000E+00  0.00000000000E+00  0.45593999997E+02  0.45594000000E+02  0.51100000000E-03 0.  1.
         11   -1    0    0    0    0 -0.00000000000E+00 -0.00000000000E+00 -0.45593999997E+02  0.45594000000E+02  0.51100000000E-03 0. -1.
    9900012    2    1    2    0    0  0.22248532622E+02  0.35076654225E+02  0.17428270955E+02  0.46142317589E+02  0.99999984283E+01 0.  0.
         12    1    1    2    0    0 -0.22248532622E+02 -0.35076654225E+02 -0.17428270955E+02  0.45045682411E+02  0.00000000000E+00 0. -1.
         11    1    3    3    0    0  0.12965504909E+01  0.24331998603E+01  0.12028091244E+01  0.30080317130E+01  0.51100000000E-03 0. -1.
        -11    1    3    3    0    0  0.14734035689E+02  0.18181387478E+02  0.13906868045E+02  0.27222337104E+02  0.51100000000E-03 0.  1.
         12    1    3    3    0    0  0.62179464416E+01  0.14462066886E+02  0.23185937856E+01  0.15911948772E+02  0.00000000000E+00 0. -1.
</event>
<event>
 7    1  0.2250716E-008  0.4614232E+02  0.7816164E-02  0.1320468E+00
        -11   -1    0    0    0    0  0.00000000000E+00  0.00000000000E+00  0.45593999997E+02  0.45594000000E+02  0.51100000000E-03 0.  1.
         11   -1    0    0    0    0 -0.00000000000E+00 -0.00000000000E+00 -0.45593999997E+02  0.45594000000E+02  0.51100000000E-03 0. -1.
    9900012    2    1    2    0    0  0.16458601601E+02  0.11775090563E+02  0.40243945675E+02  0.46142317766E+02  0.10000000041E+02 0.  0.
         12    1    1    2    0    0 -0.16458601601E+02 -0.11775090563E+02 -0.40243945675E+02  0.45045682234E+02  0.00000000000E+00 0. -1.
         11    1    3    3    0    0  0.43701601225E+01  0.19245926928E+00  0.47147603996E+01  0.64315088395E+01  0.51100000000E-03 0. -1.
        -11    1    3    3    0    0  0.71770024166E+01  0.28713467215E+01  0.14931661659E+02  0.16813938142E+02  0.51100000000E-03 0.  1.
         12    1    3    3    0    0  0.49114390622E+01  0.87112845724E+01  0.20597523617E+02  0.22896870784E+02  0.00000000000E+00 0. -1.
</event>
<event>
 7    1  0.2250716E-008  0.4614231E+02  0.7816164E-02  0.1320468E+00
        -11   -1    0    0    0    0  0.00000000000E+00  0.00000000000E+00  0.45593999997E+02  0.45594000000E+02  0.51100000000E-03 0.  1.
         11   -1    0    0    0    0 -0.00000000000E+00 -0.00000000000E+00 -0.45593999997E+02  0.45594000000E+02  0.51100000000E-03 0. -1.
    9900012    2    1    2    0    0 -0.20976483284E+02 -0.12721243099E+02  0.37779240042E+02  0.46142313690E+02  0.99999628808E+01 0.  0.
         12    1    1    2    0    0  0.20976483284E+02  0.12721243099E+02 -0.37779240042E+02  0.45045686310E+02  0.00000000000E+00 0. -1.
         11    1    3    3    0    0 -0.28956714628E+01 -0.26076758076E+01  0.29139807426E+01  0.48658165159E+01  0.51100000000E-03 0. -1.
        -11    1    3    3    0    0 -0.49548489829E+00  0.61169226937E+00  0.68830900034E-02  0.78722319255E+00  0.51100000000E-03 0.  1.
        -12    1    3    3    0    0 -0.17585326923E+02 -0.10725259560E+02  0.34858376210E+02  0.40489273982E+02  0.00000000000E+00 0.  1.
</event>
<event>
 7    1  0.2250716E-008  0.4614232E+02  0.7816164E-02  0.1320468E+00
        -11   -1    0    0    0    0  0.00000000000E+00  0.00000000000E+00  0.45593999997E+02  0.45594000000E+02  0.51100000000E-03 0. -1.
         11   -1    0    0    0    0 -0.00000000000E+00 -0.00000000000E+00 -0.45593999997E+02  0.45594000000E+02  0.51100000000E-03 0.  1.
    9900012    2    1    2    0    0 -0.24717617008E+02 -0.37067016402E+02 -0.66474964677E+01  0.46142317579E+02  0.99999983353E+01 0.  0.
         12    1    1    2    0    0  0.24717617008E+02  0.37067016402E+02  0.66474964677E+01  0.45045682421E+02  0.00000000000E+00 0. -1.
         11    1    3    3    0    0 -0.35047874599E+01 -0.15490774161E+01  0.10772339988E+00  0.38333771758E+01  0.51100000000E-03 0. -1.
        -11    1    3    3    0    0 -0.17977544903E+02 -0.27736725227E+02 -0.33596922753E+01  0.33223569638E+02  0.51100000000E-03 0.  1.
        -12    1    3    3    0    0 -0.32352846457E+01 -0.77812137596E+01 -0.33955275922E+01  0.90853707652E+01  0.00000000000E+00 0.  1.
</event>
<event>
 7    1  0.2250716E-008  0.4614232E+02  0.7816164E-02  0.1320468E+00
        -11   -1    0    0    0    0  0.00000000000E+00  0.00000000000E+00  0.45593999997E+02  0.45594000000E+02  0.51100000000E-03 0.  1.
         11   -1    0    0    0    0 -0.00000000000E+00 -0.00000000000E+00 -0.45593999997E+02  0.45594000000E+02  0.51100000000E-03 0. -1.
    9900012    2    1    2    0    0  0.16561417192E+02  0.32189386475E+02 -0.26808136702E+02  0.46142319469E+02  0.10000015577E+02 0.  0.
         12    1    1    2    0    0 -0.16561417192E+02 -0.32189386475E+02  0.26808136702E+02  0.45045680531E+02  0.00000000000E+00 0. -1.
         11    1    3    3    0    0  0.41804395567E+01  0.29204175422E+01 -0.32352038731E+01  0.60391603613E+01  0.51100000000E-03 0. -1.
        -11    1    3    3    0    0  0.10324545288E+02  0.17663212917E+02 -0.12788791944E+02  0.24127547028E+02  0.51100000000E-03 0.  1.
        -12    1    3    3    0    0  0.20564323471E+01  0.11605756016E+02 -0.10784140885E+02  0.15975612080E+02  0.00000000000E+00 0.  1.
</event>
<event>
 7    1  0.2250716E-008  0.4614232E+02  0.7816164E-02  0.1320468E+00
        -11   -1    0    0    0    0  0.00000000000E+00  0.00000000000E+00  0.45593999997E+02  0.45594000000E+02  0.51100000000E-03 0. -1.
         11   -1    0    0    0    0 -0.00000000000E+00 -0.00000000000E+00 -0.45593999997E+02  0.45594000000E+02  0.51100000000E-03 0.  1.
    9900012    2    1    2    0    0  0.37921059607E+02  0.20813496832E+02 -0.12566026875E+02  0.46142318259E+02  0.10000004543E+02 0.  0.
         12    1    1    2    0    0 -0.37921059607E+02 -0.20813496832E+02  0.12566026875E+02  0.45045681741E+02  0.00000000000E+00 0. -1.
         11    1    3    3    0    0  0.22304189610E+01 -0.38979303610E+00 -0.18828584783E+01  0.29448028225E+01  0.51100000000E-03 0. -1.
        -11    1    3    3    0    0  0.72795021757E+01  0.54484291780E+01 -0.44288377402E+01  0.10113908069E+02  0.51100000000E-03 0.  1.
         12    1    3    3    0    0  0.28411138470E+02  0.15754860690E+02 -0.62543306562E+01  0.33083607368E+02  0.00000000000E+00 0. -1.
</event>
<event>
 7    1  0.2250716E-008  0.4614231E+02  0.7816164E-02  0.1320468E+00
        -11   -1    0    0    0    0  0.00000000000E+00  0.00000000000E+00  0.45593999997E+02  0.45594000000E+02  0.51100000000E-03 0.  1.
         11   -1    0    0    0    0 -0.00000000000E+00 -0.00000000000E+00 -0.45593999997E+02  0.45594000000E+02  0.51100000000E-03 0. -1.
    9900012    2    1    2    0    0 -0.12279142674E+02 -0.26932865993E+02  0.33955222518E+02  0.46142314838E+02  0.99999733467E+01 0.  0.
         12    1    1    2    0    0  0.12279142674E+02  0.26932865993E+02 -0.33955222518E+02  0.45045685162E+02  0.00000000000E+00 0. -1.
         11    1    3    3    0    0 -0.60496003249E+00 -0.67262693837E+01  0.48184318584E+01  0.82961414102E+01  0.51100000000E-03 0. -1.
        -11    1    3    3    0    0 -0.93794950990E+00 -0.20895245242E+01  0.57766087617E+00  0.23621080350E+01  0.51100000000E-03 0.  1.
        -12    1    3    3    0    0 -0.10736233132E+02 -0.18117072086E+02  0.28559129784E+02  0.35484065393E+02  0.00000000000E+00 0.  1.
</event>
<event>
 7    1  0.2250716E-008  0.4614232E+02  0.7816164E-02  0.1320468E+00
        -11   -1    0    0    0    0  0.00000000000E+00  0.00000000000E+00  0.45593999997E+02  0.45594000000E+02  0.51100000000E-03 0.  1.
         11   -1    0    0    0    0 -0.00000000000E+00 -0.00000000000E+00 -0.45593999997E+02  0.45594000000E+02  0.51100000000E-03 0. -1.
    9900012    2    1    2    0    0 -0.18262953707E+02  0.38675458699E+02  0.14134603882E+02  0.46142316405E+02  0.99999876305E+01 0.  0.
         12    1    1    2    0    0  0.18262953707E+02 -0.38675458699E+02 -0.14134603882E+02  0.45045683595E+02  0.00000000000E+00 0. -1.
         11    1    3    3    0    0 -0.35085992699E+01  0.31397629056E+01 -0.38222124305E+00  0.47238197764E+01  0.51100000000E-03 0. -1.
        -11    1    3    3    0    0 -0.11409857019E+02  0.28052852489E+02  0.92088436069E+01  0.31653596491E+02  0.51100000000E-03 0.  1.
        -12    1    3    3    0    0 -0.33444974178E+01  0.74828433046E+01  0.53079815184E+01  0.97649001377E+01  0.00000000000E+00 0.  1.
</event>
<event>
 7    1  0.2250716E-008  0.4614232E+02  0.7816164E-02  0.1320468E+00
        -11   -1    0    0    0    0  0.00000000000E+00  0.00000000000E+00  0.45593999997E+02  0.45594000000E+02  0.51100000000E-03 0.  1.
         11   -1    0    0    0    0 -0.00000000000E+00 -0.00000000000E+00 -0.45593999997E+02  0.45594000000E+02  0.51100000000E-03 0. -1.
    9900012    2    1    2    0    0  0.69127872075E+01 -0.44134390698E+02  0.57863983664E+01  0.46142317906E+02  0.10000001318E+02 0.  0.
         12    1    1    2    0    0 -0.69127872075E+01  0.44134390698E+02 -0.57863983664E+01  0.45045682094E+02  0.00000000000E+00 0. -1.
         11    1    3    3    0    0  0.81084961319E+00 -0.19756421409E+02  0.13493098629E+01  0.19819038861E+02  0.51100000000E-03 0. -1.
        -11    1    3    3    0    0  0.45887054313E+01 -0.23605809574E+02  0.32859050697E+01  0.24271127612E+02  0.51100000000E-03 0.  1.
         12    1    3    3    0    0  0.15132321630E+01 -0.77215971503E+00  0.11511834337E+01  0.20521514327E+01  0.00000000000E+00 0. -1.
</event>
<event>
 7    1  0.2250716E-008  0.4614232E+02  0.7816164E-02  0.1320468E+00
        -11   -1    0    0    0    0  0.00000000000E+00  0.00000000000E+00  0.45593999997E+02  0.45594000000E+02  0.51100000000E-03 0. -1.
         11   -1    0    0    0    0 -0.00000000000E+00 -0.00000000000E+00 -0.45593999997E+02  0.45594000000E+02  0.51100000000E-03 0.  1.
    9900012    2    1    2    0    0  0.41599372632E+02  0.14195079310E+02 -0.98542033836E+01  0.46142318694E+02  0.10000008511E+02 0.  0.
         12    1    1    2    0    0 -0.41599372632E+02 -0.14195079310E+02  0.98542033836E+01  0.45045681306E+02  0.00000000000E+00 0. -1.
         11    1    3    3    0    0  0.17325395091E+01  0.73163528058E+00 -0.19103606722E+01  0.26807576343E+01  0.51100000000E-03 0. -1.
        -11    1    3    3    0    0  0.28546359719E+01 -0.70739903666E+00  0.37758982647E+00  0.29651196042E+01  0.51100000000E-03 0.  1.
        -12    1    3    3    0    0  0.37012197151E+02  0.14170843066E+02 -0.83214325378E+01  0.40496441456E+02  0.00000000000E+00 0.  1.
</event>
<event>
 7    1  0.2250716E-008  0.4614232E+02  0.7816164E-02  0.1320468E+00
        -11   -1    0    0    0    0  0.00000000000E+00  0.00000000000E+00  0.45593999997E+02  0.45594000000E+02  0.51100000000E-03 0.  1.
         11   -1    0    0    0    0 -0.00000000000E+00 -0.00000000000E+00 -0.45593999997E+02  0.45594000000E+02  0.51100000000E-03 0. -1.
    9900012    2    1    2    0    0  0.43997450322E+02  0.49419594233E+01 -0.83015002624E+01  0.46142317584E+02  0.99999983817E+01 0.  0.
         12    1    1    2    0    0 -0.43997450322E+02 -0.49419594233E+01  0.83015002624E+01  0.45045682416E+02  0.00000000000E+00 0. -1.
         11    1    3    3    0    0  0.28578510022E+02  0.60251934841E+00 -0.39989283144E+01  0.28863223877E+02  0.51100000000E-03 0. -1.
        -11    1    3    3    0    0  0.38789290273E+01  0.24625388229E+01  0.53607343072E+00  0.46257499756E+01  0.51100000000E-03 0.  1.
        -12    1    3    3    0    0  0.11540011273E+02  0.18769012520E+01 -0.48386453788E+01  0.12653343731E+02  0.00000000000E+00 0.  1.
</event>
<event>
 7    1  0.2250716E-008  0.4614232E+02  0.7816164E-02  0.1320468E+00
        -11   -1    0    0    0    0  0.00000000000E+00  0.00000000000E+00  0.45593999997E+02  0.45594000000E+02  0.51100000000E-03 0.  1.
         11   -1    0    0    0    0 -0.00000000000E+00 -0.00000000000E+00 -0.45593999997E+02  0.45594000000E+02  0.51100000000E-03 0. -1.
    9900012    2    1    2    0    0 -0.37405403693E+02  0.25010800510E+02  0.20998016027E+01  0.46142317251E+02  0.99999953479E+01 0.  0.
         12    1    1    2    0    0  0.37405403693E+02 -0.25010800510E+02 -0.20998016027E+01  0.45045682749E+02  0.00000000000E+00 0. -1.
         11    1    3    3    0    0 -0.12062687802E+02  0.69464125095E+01  0.20214369577E+01  0.14065819969E+02  0.51100000000E-03 0. -1.
        -11    1    3    3    0    0 -0.13467296674E+02  0.52428272583E+01 -0.14983986034E+01  0.14529298537E+02  0.51100000000E-03 0.  1.
        -12    1    3    3    0    0 -0.11875419217E+02  0.12821560742E+02  0.15767632484E+01  0.17547198745E+02  0.00000000000E+00 0.  1.
</event>
<event>
 7    1  0.2250716E-008  0.4614232E+02  0.7816164E-02  0.1320468E+00
        -11   -1    0    0    0    0  0.00000000000E+00  0.00000000000E+00  0.45593999997E+02  0.45594000000E+02  0.51100000000E-03 0.  1.
         11   -1    0    0    0    0 -0.00000000000E+00 -0.00000000000E+00 -0.45593999997E+02  0.45594000000E+02  0.51100000000E-03 0. -1.
    9900012    2    1    2    0    0 -0.28136732374E+02  0.30369710491E+02  0.17751575370E+02  0.46142318163E+02  0.10000003667E+02 0.  0.
         12    1    1    2    0    0  0.28136732374E+02 -0.30369710491E+02 -0.17751575370E+02  0.45045681837E+02  0.00000000000E+00 0. -1.
         11    1    3    3    0    0 -0.62734160619E+01  0.40941791368E+01  0.53409066148E+01  0.92001812818E+01  0.51100000000E-03 0.  1.
        -11    1    3    3    0    0 -0.73905862071E+01  0.12617906585E+02  0.29910088002E+01  0.14925765139E+02  0.51100000000E-03 0. -1.
        -12    1    3    3    0    0 -0.14472730106E+02  0.13657624769E+02  0.94196599554E+01  0.22016371743E+02  0.00000000000E+00 0.  1.
</event>
<event>
 7    1  0.2250716E-008  0.4614232E+02  0.7816164E-02  0.1320468E+00
        -11   -1    0    0    0    0  0.00000000000E+00  0.00000000000E+00  0.45593999997E+02  0.45594000000E+02  0.51100000000E-03 0.  1.
         11   -1    0    0    0    0 -0.00000000000E+00 -0.00000000000E+00 -0.45593999997E+02  0.45594000000E+02  0.51100000000E-03 0. -1.
    9900012    2    1    2    0    0 -0.67749763964E+01 -0.20659553018E+02  0.39451185454E+02  0.46142317968E+02  0.10000001882E+02 0.  0.
         12    1    1    2    0    0  0.67749763964E+01  0.20659553018E+02 -0.39451185454E+02  0.45045682032E+02  0.00000000000E+00 0. -1.
         11    1    3    3    0    0 -0.54130850749E+01 -0.84649537727E+01  0.15970382819E+02  0.18868228853E+02  0.51100000000E-03 0. -1.
        -11    1    3    3    0    0 -0.37724456134E+01 -0.52301207119E+01  0.12195233968E+02  0.13795261518E+02  0.51100000000E-03 0.  1.
         12    1    3    3    0    0  0.24105542919E+01 -0.69644785332E+01  0.11285568667E+02  0.13478827596E+02  0.00000000000E+00 0. -1.
</event>
<event>
 7    1  0.2250716E-008  0.4614232E+02  0.7816164E-02  0.1320468E+00
        -11   -1    0    0    0    0  0.00000000000E+00  0.00000000000E+00  0.45593999997E+02  0.45594000000E+02  0.51100000000E-03 0.  1.
         11   -1    0    0    0    0 -0.00000000000E+00 -0.00000000000E+00 -0.45593999997E+02  0.45594000000E+02  0.51100000000E-03 0. -1.
    9900012    2    1    2    0    0  0.43726634024E+02 -0.85064525500E+01 -0.66884422239E+01  0.46142317438E+02  0.99999970578E+01 0.  0.
         12    1    1    2    0    0 -0.43726634024E+02  0.85064525500E+01  0.66884422239E+01  0.45045682562E+02  0.00000000000E+00 0. -1.
         11    1    3    3    0    0  0.51832625082E+00  0.11347715568E-01  0.17642051914E+00  0.54764526259E+00  0.51100000000E-03 0. -1.
        -11    1    3    3    0    0  0.18469737920E+02 -0.63903805078E+01  0.94121328135E+00  0.19566656960E+02  0.51100000000E-03 0.  1.
        -12    1    3    3    0    0  0.24738569853E+02 -0.21274197578E+01 -0.78060760244E+01  0.26028015216E+02  0.00000000000E+00 0.  1.
</event>
<event>
 7    1  0.2250716E-008  0.4614232E+02  0.7816164E-02  0.1320468E+00
        -11   -1    0    0    0    0  0.00000000000E+00  0.00000000000E+00  0.45593999997E+02  0.45594000000E+02  0.51100000000E-03 0.  1.
         11   -1    0    0    0    0 -0.00000000000E+00 -0.00000000000E+00 -0.45593999997E+02  0.45594000000E+02  0.51100000000E-03 0. -1.
    9900012    2    1    2    0    0 -0.79139908234E+01  0.43148842484E+02  0.10230330082E+02  0.46142317499E+02  0.99999976060E+01 0.  0.
         12    1    1    2    0    0  0.79139908234E+01 -0.43148842484E+02 -0.10230330082E+02  0.45045682501E+02  0.00000000000E+00 0. -1.
         11    1    3    3    0    0 -0.22114519909E+01  0.34572823824E+01  0.22679962300E+01  0.46890434569E+01  0.51100000000E-03 0. -1.
        -11    1    3    3    0    0  0.63828141384E+00  0.18757759464E+01 -0.77348767440E+00  0.21270218635E+01  0.51100000000E-03 0.  1.
        -12    1    3    3    0    0 -0.63408202463E+01  0.37815784155E+02  0.87358215263E+01  0.39326252178E+02  0.00000000000E+00 0.  1.
</event>
<event>
 7    1  0.2250716E-008  0.4614232E+02  0.7816164E-02  0.1320468E+00
        -11   -1    0    0    0    0  0.00000000000E+00  0.00000000000E+00  0.45593999997E+02  0.45594000000E+02  0.51100000000E-03 0.  1.
         11   -1    0    0    0    0 -0.00000000000E+00 -0.00000000000E+00 -0.45593999997E+02  0.45594000000E+02  0.51100000000E-03 0. -1.
    9900012    2    1    2    0    0 -0.22763409384E+02 -0.15726274385E+01  0.38838993310E+02  0.46142319129E+02  0.10000012472E+02 0.  0.
         12    1    1    2    0    0  0.22763409384E+02  0.15726274385E+01 -0.38838993310E+02  0.45045680871E+02  0.00000000000E+00 0. -1.
         11    1    3    3    0    0 -0.18652185255E+01  0.20711064091E+01  0.16630939681E+01  0.32456746161E+01  0.51100000000E-03 0. -1.
        -11    1    3    3    0    0 -0.12224253754E+02 -0.75308888808E+00  0.20562468412E+02  0.23933546126E+02  0.51100000000E-03 0.  1.
        -12    1    3    3    0    0 -0.86739371040E+01 -0.28906449595E+01  0.16613430930E+02  0.18963098387E+02  0.00000000000E+00 0.  1.
</event>
<event>
 7    1  0.2250716E-008  0.4614232E+02  0.7816164E-02  0.1320468E+00
        -11   -1    0    0    0    0  0.00000000000E+00  0.00000000000E+00  0.45593999997E+02  0.45594000000E+02  0.51100000000E-03 0.  1.
         11   -1    0    0    0    0 -0.00000000000E+00 -0.00000000000E+00 -0.45593999997E+02  0.45594000000E+02  0.51100000000E-03 0. -1.
    9900012    2    1    2    0    0  0.43810421393E+02 -0.48013804931E+01  0.93116720950E+01  0.46142317471E+02  0.99999973533E+01 0.  0.
         12    1    1    2    0    0 -0.43810421393E+02  0.48013804931E+01 -0.93116720950E+01  0.45045682529E+02  0.00000000000E+00 0. -1.
         11    1    3    3    0    0  0.29014017662E+02 -0.42446994927E+01  0.29021189553E+01  0.29466132921E+02  0.51100000000E-03 0. -1.
        -11    1    3    3    0    0  0.14891197695E+02 -0.86048321343E-01  0.60374925879E+01  0.16068804876E+02  0.51100000000E-03 0.  1.
         12    1    3    3    0    0 -0.94793963553E-01 -0.47063267906E+00  0.37206055179E+00  0.60737967395E+00  0.00000000000E+00 0. -1.
</event>
<event>
 7    1  0.2250716E-008  0.4614232E+02  0.7816164E-02  0.1320468E+00
        -11   -1    0    0    0    0  0.00000000000E+00  0.00000000000E+00  0.45593999997E+02  0.45594000000E+02  0.51100000000E-03 0. -1.
         11   -1    0    0    0    0 -0.00000000000E+00 -0.00000000000E+00 -0.45593999997E+02  0.45594000000E+02  0.51100000000E-03 0.  1.
    9900012    2    1    2    0    0 -0.68872684054E+01 -0.37287865141E+02 -0.24316538119E+02  0.46142318976E+02  0.10000011075E+02 0.  0.
         12    1    1    2    0    0  0.68872684054E+01  0.37287865141E+02  0.24316538119E+02  0.45045681024E+02  0.00000000000E+00 0. -1.
         11    1    3    3    0    0 -0.57098172619E+01 -0.96617863853E+01 -0.69655867961E+01  0.13208767126E+02  0.51100000000E-03 0. -1.
        -11    1    3    3    0    0 -0.17221735977E+00 -0.13192616352E+02 -0.57665264767E+01  0.14398875404E+02  0.51100000000E-03 0.  1.
        -12    1    3    3    0    0 -0.10052337837E+01 -0.14433462403E+02 -0.11584424846E+02  0.18534676445E+02  0.00000000000E+00 0.  1.
</event>
<event>
 7    1  0.2250716E-008  0.4614232E+02  0.7816164E-02  0.1320468E+00
        -11   -1    0    0    0    0  0.00000000000E+00  0.00000000000E+00  0.45593999997E+02  0.45594000000E+02  0.51100000000E-03 0.  1.
         11   -1    0    0    0    0 -0.00000000000E+00 -0.00000000000E+00 -0.45593999997E+02  0.45594000000E+02  0.51100000000E-03 0. -1.
    9900012    2    1    2    0    0  0.38306584281E+02 -0.18475119644E+02  0.14845510253E+02  0.46142316301E+02  0.99999866901E+01 0.  0.
         12    1    1    2    0    0 -0.38306584281E+02  0.18475119644E+02 -0.14845510253E+02  0.45045683699E+02  0.00000000000E+00 0. -1.
         11    1    3    3    0    0  0.38104347483E+01 -0.36318301694E+01 -0.29421920317E+00  0.52722071802E+01  0.51100000000E-03 0. -1.
        -11    1    3    3    0    0  0.72638855456E+01 -0.20132223760E+01  0.97399134986E+00  0.76003787383E+01  0.51100000000E-03 0.  1.
        -12    1    3    3    0    0  0.27232263987E+02 -0.12830067099E+02  0.14165738107E+02  0.33269730383E+02  0.00000000000E+00 0.  1.
</event>
<event>
 7    1  0.2250716E-008  0.4614232E+02  0.7816164E-02  0.1320468E+00
        -11   -1    0    0    0    0  0.00000000000E+00  0.00000000000E+00  0.45593999997E+02  0.45594000000E+02  0.51100000000E-03 0.  1.
         11   -1    0    0    0    0 -0.00000000000E+00 -0.00000000000E+00 -0.45593999997E+02  0.45594000000E+02  0.51100000000E-03 0. -1.
    9900012    2    1    2    0    0  0.30267559379E+02 -0.87069467276E+01  0.32205239519E+02  0.46142317360E+02  0.99999963393E+01 0.  0.
         12    1    1    2    0    0 -0.30267559379E+02  0.87069467276E+01 -0.32205239519E+02  0.45045682640E+02  0.00000000000E+00 0. -1.
         11    1    3    3    0    0  0.20033340044E+01 -0.12202684563E+01  0.99033954945E+00  0.25462079497E+01  0.51100000000E-03 0. -1.
        -11    1    3    3    0    0  0.35240609175E+01 -0.22527765727E+00  0.61966742049E+00  0.35852117575E+01  0.51100000000E-03 0.  1.
        -12    1    3    3    0    0  0.24740164457E+02 -0.72614006139E+01  0.30595232549E+02  0.40010897652E+02  0.00000000000E+00 0.  1.
</event>
<event>
 7    1  0.2250716E-008  0.4614232E+02  0.7816164E-02  0.1320468E+00
        -11   -1    0    0    0    0  0.00000000000E+00  0.00000000000E+00  0.45593999997E+02  0.45594000000E+02  0.51100000000E-03 0.  1.
         11   -1    0    0    0    0 -0.00000000000E+00 -0.00000000000E+00 -0.45593999997E+02  0.45594000000E+02  0.51100000000E-03 0. -1.
    9900012    2    1    2    0    0  0.30478906082E+02 -0.33880571029E+01  0.32995011452E+02  0.46142318436E+02  0.10000006154E+02 0.  0.
         12    1    1    2    0    0 -0.30478906082E+02  0.33880571029E+01 -0.32995011452E+02  0.45045681564E+02  0.00000000000E+00 0. -1.
         11    1    3    3    0    0  0.26919969237E+01 -0.13351887680E+01  0.26057813745E+01  0.39773952929E+01  0.51100000000E-03 0.  1.
        -11    1    3    3    0    0  0.21714166009E+02 -0.42788474076E+01  0.26837665351E+02  0.34786115367E+02  0.51100000000E-03 0. -1.
         12    1    3    3    0    0  0.60727431492E+01  0.22259790728E+01  0.35515647268E+01  0.73788077762E+01  0.00000000000E+00 0. -1.
</event>
<event>
 7    1  0.2250716E-008  0.4614232E+02  0.7816164E-02  0.1320468E+00
        -11   -1    0    0    0    0  0.00000000000E+00  0.00000000000E+00  0.45593999997E+02  0.45594000000E+02  0.51100000000E-03 0. -1.
         11   -1    0    0    0    0 -0.00000000000E+00 -0.00000000000E+00 -0.45593999997E+02  0.45594000000E+02  0.51100000000E-03 0.  1.
    9900012    2    1    2    0    0 -0.40218869338E+02 -0.72146285784E-01 -0.20286713146E+02  0.46142318895E+02  0.10000010343E+02 0.  0.
         12    1    1    2    0    0  0.40218869338E+02  0.72146285784E-01  0.20286713146E+02  0.45045681105E+02  0.00000000000E+00 0. -1.
         11    1    3    3    0    0 -0.69136204875E+01 -0.10329917193E+01 -0.62516152327E+01  0.93780548845E+01  0.51100000000E-03 0. -1.
        -11    1    3    3    0    0 -0.22160155832E+02  0.37317685428E+01 -0.86419123041E+01  0.24076570592E+02  0.51100000000E-03 0.  1.
         12    1    3    3    0    0 -0.11145093019E+02 -0.27709231093E+01 -0.53931856090E+01  0.12687693419E+02  0.00000000000E+00 0. -1.
</event>
<event>
 7    1  0.2250716E-008  0.4614232E+02  0.7816164E-02  0.1320468E+00
        -11   -1    0    0    0    0  0.00000000000E+00  0.00000000000E+00  0.45593999997E+02  0.45594000000E+02  0.51100000000E-03 0. -1.
         11   -1    0    0    0    0 -0.00000000000E+00 -0.00000000000E+00 -0.45593999997E+02  0.45594000000E+02  0.51100000000E-03 0.  1.
    9900012    2    1    2    0    0  0.18529206114E+02  0.40838249882E+02  0.42449348140E+01  0.46142316475E+02  0.99999882734E+01 0.  0.
         12    1    1    2    0    0 -0.18529206114E+02 -0.40838249882E+02 -0.42449348140E+01  0.45045683525E+02  0.00000000000E+00 0. -1.
         11    1    3    3    0    0  0.96303704023E+01  0.15674103088E+02 -0.22412473893E+00  0.18397602394E+02  0.51100000000E-03 0. -1.
        -11    1    3    3    0    0  0.22851112451E+01  0.12956554712E+02 -0.85115020741E-02  0.13156523709E+02  0.51100000000E-03 0.  1.
         12    1    3    3    0    0  0.66137244667E+01  0.12207592082E+02  0.44775710550E+01  0.14588190372E+02  0.00000000000E+00 0. -1.
</event>
<event>
 7    1  0.2250716E-008  0.4614232E+02  0.7816164E-02  0.1320468E+00
        -11   -1    0    0    0    0  0.00000000000E+00  0.00000000000E+00  0.45593999997E+02  0.45594000000E+02  0.51100000000E-03 0. -1.
         11   -1    0    0    0    0 -0.00000000000E+00 -0.00000000000E+00 -0.45593999997E+02  0.45594000000E+02  0.51100000000E-03 0.  1.
    9900012    2    1    2    0    0 -0.19564905836E+02 -0.36700705945E+01 -0.40408643935E+02  0.46142318041E+02  0.10000002550E+02 0.  0.
         12    1    1    2    0    0  0.19564905836E+02  0.36700705945E+01  0.40408643935E+02  0.45045681959E+02  0.00000000000E+00 0. -1.
         11    1    3    3    0    0 -0.72517952341E+01 -0.41365117676E+01 -0.15971650085E+02  0.18022010720E+02  0.51100000000E-03 0. -1.
        -11    1    3    3    0    0 -0.90909164780E+01 -0.20806199112E+01 -0.13248599653E+02  0.16201825040E+02  0.51100000000E-03 0.  1.
         12    1    3    3    0    0 -0.32221941240E+01  0.25470610843E+01 -0.11188394197E+02  0.11918482280E+02  0.00000000000E+00 0. -1.
</event>
<event>
 7    1  0.2250716E-008  0.4614232E+02  0.7816164E-02  0.1320468E+00
        -11   -1    0    0    0    0  0.00000000000E+00  0.00000000000E+00  0.45593999997E+02  0.45594000000E+02  0.51100000000E-03 0. -1.
         11   -1    0    0    0    0 -0.00000000000E+00 -0.00000000000E+00 -0.45593999997E+02  0.45594000000E+02  0.51100000000E-03 0.  1.
    9900012    2    1    2    0    0 -0.36432000401E+01 -0.38263925655E+02  0.23488564009E+02  0.46142317052E+02  0.99999935325E+01 0.  0.
         12    1    1    2    0    0  0.36432000401E+01  0.38263925655E+02 -0.23488564009E+02  0.45045682948E+02  0.00000000000E+00 0. -1.
         11    1    3    3    0    0  0.24434888124E+01 -0.63544578880E+01  0.35449677606E+01  0.76757129514E+01  0.51100000000E-03 0. -1.
        -11    1    3    3    0    0 -0.57257598024E+01 -0.28962689723E+02  0.16157734808E+02  0.33655521326E+02  0.51100000000E-03 0.  1.
         12    1    3    3    0    0 -0.36092905018E+00 -0.29467780432E+01  0.37858614407E+01  0.48110827745E+01  0.00000000000E+00 0. -1.
</event>
<event>
 7    1  0.2250716E-008  0.4614232E+02  0.7816164E-02  0.1320468E+00
        -11   -1    0    0    0    0  0.00000000000E+00  0.00000000000E+00  0.45593999997E+02  0.45594000000E+02  0.51100000000E-03 0.  1.
         11   -1    0    0    0    0 -0.00000000000E+00 -0.00000000000E+00 -0.45593999997E+02  0.45594000000E+02  0.51100000000E-03 0. -1.
    9900012    2    1    2    0    0 -0.74889040146E+01 -0.43697196429E+01  0.44203340526E+02  0.46142318223E+02  0.10000004216E+02 0.  0.
         12    1    1    2    0    0  0.74889040146E+01  0.43697196429E+01 -0.44203340526E+02  0.45045681777E+02  0.00000000000E+00 0. -1.
         11    1    3    3    0    0  0.21547238909E-01  0.15765699464E+01  0.20001581177E+02  0.20063630951E+02  0.51100000000E-03 0.  1.
        -11    1    3    3    0    0 -0.32442900269E+01 -0.24712865532E+01  0.12485716728E+02  0.13134907593E+02  0.51100000000E-03 0. -1.
        -12    1    3    3    0    0 -0.42661612266E+01 -0.34750030361E+01  0.11716042620E+02  0.12943779680E+02  0.00000000000E+00 0.  1.
</event>
<event>
 7    1  0.2250716E-008  0.4614232E+02  0.7816164E-02  0.1320468E+00
        -11   -1    0    0    0    0  0.00000000000E+00  0.00000000000E+00  0.45593999997E+02  0.45594000000E+02  0.51100000000E-03 0.  1.
         11   -1    0    0    0    0 -0.00000000000E+00 -0.00000000000E+00 -0.45593999997E+02  0.45594000000E+02  0.51100000000E-03 0. -1.
    9900012    2    1    2    0    0 -0.23675199986E+02 -0.19026174573E+02  0.33265644127E+02  0.46142317716E+02  0.99999995875E+01 0.  0.
         12    1    1    2    0    0  0.23675199986E+02  0.19026174573E+02 -0.33265644127E+02  0.45045682284E+02  0.00000000000E+00 0. -1.
         11    1    3    3    0    0 -0.56745178558E+01 -0.10550720461E+01  0.43279311426E+01  0.72141748076E+01  0.51100000000E-03 0. -1.
        -11    1    3    3    0    0 -0.17931904127E+02 -0.17708223260E+02  0.29185289123E+02  0.38560542762E+02  0.51100000000E-03 0.  1.
        -12    1    3    3    0    0 -0.68778003161E-01 -0.26287926672E+00 -0.24757613910E+00  0.36760014587E+00  0.00000000000E+00 0.  1.
</event>
<event>
 7    1  0.2250716E-008  0.4614232E+02  0.7816164E-02  0.1320468E+00
        -11   -1    0    0    0    0  0.00000000000E+00  0.00000000000E+00  0.45593999997E+02  0.45594000000E+02  0.51100000000E-03 0.  1.
         11   -1    0    0    0    0 -0.00000000000E+00 -0.00000000000E+00 -0.45593999997E+02  0.45594000000E+02  0.51100000000E-03 0. -1.
    9900012    2    1    2    0    0 -0.87803631357E+01 -0.43658119157E+01  0.43965423105E+02  0.46142317418E+02  0.99999968717E+01 0.  0.
         12    1    1    2    0    0  0.87803631357E+01  0.43658119157E+01 -0.43965423105E+02  0.45045682582E+02  0.00000000000E+00 0. -1.
         11    1    3    3    0    0 -0.76945690356E+01 -0.35565241837E+01  0.25949051065E+02  0.27298507439E+02  0.51100000000E-03 0.  1.
        -11    1    3    3    0    0 -0.28105321451E+01  0.74257601509E+00  0.68905748453E+01  0.74786718097E+01  0.51100000000E-03 0. -1.
         12    1    3    3    0    0  0.17247380451E+01 -0.15518637471E+01  0.11125797194E+02  0.11365138170E+02  0.00000000000E+00 0. -1.
</event>
<event>
 7    1  0.2250716E-008  0.4614232E+02  0.7816164E-02  0.1320468E+00
        -11   -1    0    0    0    0  0.00000000000E+00  0.00000000000E+00  0.45593999997E+02  0.45594000000E+02  0.51100000000E-03 0.  1.
         11   -1    0    0    0    0 -0.00000000000E+00 -0.00000000000E+00 -0.45593999997E+02  0.45594000000E+02  0.51100000000E-03 0. -1.
    9900012    2    1    2    0    0  0.36881516293E+02  0.21617089134E+02 -0.14197490982E+02  0.46142317222E+02  0.99999950868E+01 0.  0.
         12    1    1    2    0    0 -0.36881516293E+02 -0.21617089134E+02  0.14197490982E+02  0.45045682778E+02  0.00000000000E+00 0. -1.
         11    1    3    3    0    0  0.98469978593E+01  0.37137919644E+01 -0.36250629674E+01  0.11130889424E+02  0.51100000000E-03 0. -1.
        -11    1    3    3    0    0  0.15531760598E+02  0.83253744444E+01 -0.94621808637E+01  0.20002007746E+02  0.51100000000E-03 0.  1.
         12    1    3    3    0    0  0.11502757836E+02  0.95779227254E+01 -0.11102471513E+01  0.15009420052E+02  0.00000000000E+00 0. -1.
</event>
<event>
 7    1  0.2250716E-008  0.4614232E+02  0.7816164E-02  0.1320468E+00
        -11   -1    0    0    0    0  0.00000000000E+00  0.00000000000E+00  0.45593999997E+02  0.45594000000E+02  0.51100000000E-03 0.  1.
         11   -1    0    0    0    0 -0.00000000000E+00 -0.00000000000E+00 -0.45593999997E+02  0.45594000000E+02  0.51100000000E-03 0. -1.
    9900012    2    1    2    0    0 -0.15304228971E+02 -0.42360593658E+02  0.68860076613E+00  0.46142317738E+02  0.99999997866E+01 0.  0.
         12    1    1    2    0    0  0.15304228971E+02  0.42360593658E+02 -0.68860076613E+00  0.45045682262E+02  0.00000000000E+00 0. -1.
         11    1    3    3    0    0  0.50759111722E+00 -0.16772360232E+01  0.51744188835E+00  0.18271605810E+01  0.51100000000E-03 0. -1.
        -11    1    3    3    0    0  0.63952938882E+00 -0.56392847340E+00 -0.41823036934E+00  0.94969998696E+00  0.51100000000E-03 0.  1.
        -12    1    3    3    0    0 -0.16451349477E+02 -0.40119429161E+02  0.58938924712E+00  0.43365457170E+02  0.00000000000E+00 0.  1.
</event>
<event>
 7    1  0.2250716E-008  0.4614232E+02  0.7816164E-02  0.1320468E+00
        -11   -1    0    0    0    0  0.00000000000E+00  0.00000000000E+00  0.45593999997E+02  0.45594000000E+02  0.51100000000E-03 0.  1.
         11   -1    0    0    0    0 -0.00000000000E+00 -0.00000000000E+00 -0.45593999997E+02  0.45594000000E+02  0.51100000000E-03 0. -1.
    9900012    2    1    2    0    0 -0.19580909232E+02  0.17259068449E+02  0.36712750932E+02  0.46142317287E+02  0.99999956803E+01 0.  0.
         12    1    1    2    0    0  0.19580909232E+02 -0.17259068449E+02 -0.36712750932E+02  0.45045682713E+02  0.00000000000E+00 0. -1.
         11    1    3    3    0    0 -0.41256331077E+01  0.72885031004E+01  0.13859196759E+02  0.16193222689E+02  0.51100000000E-03 0. -1.
        -11    1    3    3    0    0 -0.55338993318E+01  0.67429011572E+01  0.12566439151E+02  0.15297259592E+02  0.51100000000E-03 0.  1.
        -12    1    3    3    0    0 -0.99213767922E+01  0.32276641912E+01  0.10287115021E+02  0.14651835006E+02  0.00000000000E+00 0.  1.
</event>
<event>
 7    1  0.2250716E-008  0.4614230E+02  0.7816164E-02  0.1320468E+00
        -11   -1    0    0    0    0  0.00000000000E+00  0.00000000000E+00  0.45593999997E+02  0.45594000000E+02  0.51100000000E-03 0.  1.
         11   -1    0    0    0    0 -0.00000000000E+00 -0.00000000000E+00 -0.45593999997E+02  0.45594000000E+02  0.51100000000E-03 0. -1.
    9900012    2    1    2    0    0  0.66038796250E+01 -0.44550288838E+02  0.88061286031E+00  0.46142301641E+02  0.99998530053E+01 0.  0.
         12    1    1    2    0    0 -0.66038796250E+01  0.44550288838E+02 -0.88061286031E+00  0.45045698359E+02  0.00000000000E+00 0. -1.
         11    1    3    3    0    0 -0.88410737086E+00 -0.10509985808E+02  0.12220850196E+01  0.10617671100E+02  0.51100000000E-03 0. -1.
        -11    1    3    3    0    0 -0.23005833866E+00 -0.10478687583E+02 -0.20210895345E+01  0.10674297329E+02  0.51100000000E-03 0.  1.
         12    1    3    3    0    0  0.77180453345E+01 -0.23561615446E+02  0.16796173753E+01  0.24850333212E+02  0.00000000000E+00 0. -1.
</event>
<event>
 7    1  0.2250716E-008  0.4614232E+02  0.7816164E-02  0.1320468E+00
        -11   -1    0    0    0    0  0.00000000000E+00  0.00000000000E+00  0.45593999997E+02  0.45594000000E+02  0.51100000000E-03 0.  1.
         11   -1    0    0    0    0 -0.00000000000E+00 -0.00000000000E+00 -0.45593999997E+02  0.45594000000E+02  0.51100000000E-03 0. -1.
    9900012    2    1    2    0    0  0.29980958437E+02  0.84393526411E+01  0.32542785046E+02  0.46142318738E+02  0.10000008907E+02 0.  0.
         12    1    1    2    0    0 -0.29980958437E+02 -0.84393526411E+01 -0.32542785046E+02  0.45045681262E+02  0.00000000000E+00 0. -1.
         11    1    3    3    0    0  0.20022548512E+02  0.63348382681E+01  0.16839717294E+02  0.26918556863E+02  0.51100000000E-03 0. -1.
        -11    1    3    3    0    0  0.19971727974E+01  0.23580406990E+01  0.50818122986E+01  0.59475937673E+01  0.51100000000E-03 0.  1.
        -12    1    3    3    0    0  0.79612371276E+01 -0.25352632606E+00  0.10621255454E+02  0.13276168107E+02  0.00000000000E+00 0.  1.
</event>
<event>
 7    1  0.2250716E-008  0.4614232E+02  0.7816164E-02  0.1320468E+00
        -11   -1    0    0    0    0  0.00000000000E+00  0.00000000000E+00  0.45593999997E+02  0.45594000000E+02  0.51100000000E-03 0.  1.
         11   -1    0    0    0    0 -0.00000000000E+00 -0.00000000000E+00 -0.45593999997E+02  0.45594000000E+02  0.51100000000E-03 0. -1.
    9900012    2    1    2    0    0 -0.16265750067E+01 -0.44957134767E+02 -0.23073310811E+01  0.46142317750E+02  0.99999998970E+01 0.  0.
         12    1    1    2    0    0  0.16265750067E+01  0.44957134767E+02  0.23073310811E+01  0.45045682250E+02  0.00000000000E+00 0. -1.
         11    1    3    3    0    0  0.12804833763E+01 -0.32574368859E+01 -0.11194902604E+01  0.36747505285E+01  0.51100000000E-03 0. -1.
        -11    1    3    3    0    0 -0.93690326972E+00 -0.26357921552E+01  0.16559843680E+01  0.32507649116E+01  0.51100000000E-03 0.  1.
        -12    1    3    3    0    0 -0.19701551133E+01 -0.39063905725E+02 -0.28438251888E+01  0.39216802310E+02  0.00000000000E+00 0.  1.
</event>
<event>
 7    1  0.2250716E-008  0.4614232E+02  0.7816164E-02  0.1320468E+00
        -11   -1    0    0    0    0  0.00000000000E+00  0.00000000000E+00  0.45593999997E+02  0.45594000000E+02  0.51100000000E-03 0. -1.
         11   -1    0    0    0    0 -0.00000000000E+00 -0.00000000000E+00 -0.45593999997E+02  0.45594000000E+02  0.51100000000E-03 0.  1.
    9900012    2    1    2    0    0  0.20037268201E+02 -0.36313011727E+02 -0.17578015267E+02  0.46142316984E+02  0.99999929174E+01 0.  0.
         12    1    1    2    0    0 -0.20037268201E+02  0.36313011727E+02  0.17578015267E+02  0.45045683016E+02  0.00000000000E+00 0. -1.
         11    1    3    3    0    0 -0.48148748114E+00 -0.24836327574E+01 -0.45298323833E-01  0.25302794445E+01  0.51100000000E-03 0. -1.
        -11    1    3    3    0    0  0.11039636046E+01 -0.51143066277E+01 -0.29545531922E+01  0.60086814484E+01  0.51100000000E-03 0.  1.
         12    1    3    3    0    0  0.19414792077E+02 -0.28715072342E+02 -0.14578163751E+02  0.37603356091E+02  0.00000000000E+00 0. -1.
</event>
<event>
 7    1  0.2250716E-008  0.4614232E+02  0.7816164E-02  0.1320468E+00
        -11   -1    0    0    0    0  0.00000000000E+00  0.00000000000E+00  0.45593999997E+02  0.45594000000E+02  0.51100000000E-03 0.  1.
         11   -1    0    0    0    0 -0.00000000000E+00 -0.00000000000E+00 -0.45593999997E+02  0.45594000000E+02  0.51100000000E-03 0. -1.
    9900012    2    1    2    0    0 -0.58172521054E+01 -0.30779029701E+02  0.32371659197E+02  0.46142318625E+02  0.10000007879E+02 0.  0.
         12    1    1    2    0    0  0.58172521054E+01  0.30779029701E+02 -0.32371659197E+02  0.45045681375E+02  0.00000000000E+00 0. -1.
         11    1    3    3    0    0 -0.17532774402E+01 -0.83104791432E+01  0.11824690468E+02  0.14558892482E+02  0.51100000000E-03 0. -1.
        -11    1    3    3    0    0 -0.51724834772E+01 -0.20797714711E+02  0.16431348614E+02  0.27005346508E+02  0.51100000000E-03 0.  1.
         12    1    3    3    0    0  0.11085088120E+01 -0.16708358468E+01  0.41156201153E+01  0.45780796353E+01  0.00000000000E+00 0. -1.
</event>
<event>
 7    1  0.2250716E-008  0.4614232E+02  0.7816164E-02  0.1320468E+00
        -11   -1    0    0    0    0  0.00000000000E+00  0.00000000000E+00  0.45593999997E+02  0.45594000000E+02  0.51100000000E-03 0.  1.
         11   -1    0    0    0    0 -0.00000000000E+00 -0.00000000000E+00 -0.45593999997E+02  0.45594000000E+02  0.51100000000E-03 0. -1.
    9900012    2    1    2    0    0 -0.67826734602E+01  0.13545181065E+02  0.42422128094E+02  0.46142317173E+02  0.99999946363E+01 0.  0.
         12    1    1    2    0    0  0.67826734602E+01 -0.13545181065E+02 -0.42422128094E+02  0.45045682827E+02  0.00000000000E+00 0. -1.
         11    1    3    3    0    0  0.58459983716E+00  0.59111996203E+00  0.31086197692E+01  0.32178714875E+01  0.51100000000E-03 0. -1.
        -11    1    3    3    0    0 -0.60435786638E+01  0.13090128917E+02  0.38967863819E+02  0.41549617675E+02  0.51100000000E-03 0.  1.
         12    1    3    3    0    0 -0.13236946335E+01 -0.13606781377E+00  0.34564450600E+00  0.13748280101E+01  0.00000000000E+00 0. -1.
</event>
<event>
 7    1  0.2250716E-008  0.4614232E+02  0.7816164E-02  0.1320468E+00
        -11   -1    0    0    0    0  0.00000000000E+00  0.00000000000E+00  0.45593999997E+02  0.45594000000E+02  0.51100000000E-03 0.  1.
         11   -1    0    0    0    0 -0.00000000000E+00 -0.00000000000E+00 -0.45593999997E+02  0.45594000000E+02  0.51100000000E-03 0. -1.
    9900012    2    1    2    0    0  0.35169735814E+02 -0.47285725228E+01  0.27746059381E+02  0.46142317338E+02  0.99999961375E+01 0.  0.
         12    1    1    2    0    0 -0.35169735814E+02  0.47285725228E+01 -0.27746059381E+02  0.45045682662E+02  0.00000000000E+00 0. -1.
         11    1    3    3    0    0  0.16612469945E+02 -0.51181576662E+00  0.14379887398E+02  0.21977653990E+02  0.51100000000E-03 0.  1.
        -11    1    3    3    0    0  0.13303448856E+02 -0.31511348260E+01  0.57049030612E+01  0.14814091986E+02  0.51100000000E-03 0. -1.
        -12    1    3    3    0    0  0.52538170129E+01 -0.10656219302E+01  0.76612689213E+01  0.93505713616E+01  0.00000000000E+00 0.  1.
</event>
<event>
 7    1  0.2250716E-008  0.4614232E+02  0.7816164E-02  0.1320468E+00
        -11   -1    0    0    0    0  0.00000000000E+00  0.00000000000E+00  0.45593999997E+02  0.45594000000E+02  0.51100000000E-03 0.  1.
         11   -1    0    0    0    0 -0.00000000000E+00 -0.00000000000E+00 -0.45593999997E+02  0.45594000000E+02  0.51100000000E-03 0. -1.
    9900012    2    1    2    0    0  0.37529583892E+01  0.37390359553E+02  0.24839279570E+02  0.46142317701E+02  0.99999994541E+01 0.  0.
         12    1    1    2    0    0 -0.37529583892E+01 -0.37390359553E+02 -0.24839279570E+02  0.45045682299E+02  0.00000000000E+00 0. -1.
         11    1    3    3    0    0 -0.16181939807E+01  0.28000795874E+01  0.35861538143E+01  0.48290264957E+01  0.51100000000E-03 0. -1.
        -11    1    3    3    0    0  0.32218271931E+01  0.85263918873E+01  0.38191423255E+01  0.98825794933E+01  0.51100000000E-03 0.  1.
         12    1    3    3    0    0  0.21493251769E+01  0.26063888078E+02  0.17433983431E+02  0.31430711712E+02  0.00000000000E+00 0. -1.
</event>
<event>
 7    1  0.2250716E-008  0.4614231E+02  0.7816164E-02  0.1320468E+00
        -11   -1    0    0    0    0  0.00000000000E+00  0.00000000000E+00  0.45593999997E+02  0.45594000000E+02  0.51100000000E-03 0. -1.
         11   -1    0    0    0    0 -0.00000000000E+00 -0.00000000000E+00 -0.45593999997E+02  0.45594000000E+02  0.51100000000E-03 0.  1.
    9900012    2    1    2    0    0  0.44990874161E+02 -0.22024527723E+01 -0.29061272827E+00  0.46142311952E+02  0.99999470237E+01 0.  0.
         12    1    1    2    0    0 -0.44990874161E+02  0.22024527723E+01  0.29061272827E+00  0.45045688048E+02  0.00000000000E+00 0. -1.
         11    1    3    3    0    0  0.36375435751E+02 -0.34871783189E+01  0.18468108861E+01  0.36588843237E+02  0.51100000000E-03 0. -1.
        -11    1    3    3    0    0  0.45041346682E+01  0.61436398932E+00  0.57581417885E+00  0.45821648214E+01  0.51100000000E-03 0.  1.
        -12    1    3    3    0    0  0.41113037416E+01  0.67036155729E+00 -0.27132377932E+01  0.49713038930E+01  0.00000000000E+00 0.  1.
</event>
<event>
 7    1  0.2250716E-008  0.4614232E+02  0.7816164E-02  0.1320468E+00
        -11   -1    0    0    0    0  0.00000000000E+00  0.00000000000E+00  0.45593999997E+02  0.45594000000E+02  0.51100000000E-03 0.  1.
         11   -1    0    0    0    0 -0.00000000000E+00 -0.00000000000E+00 -0.45593999997E+02  0.45594000000E+02  0.51100000000E-03 0. -1.
    9900012    2    1    2    0    0 -0.20500287560E+02 -0.29131772145E+02  0.27571572919E+02  0.46142316838E+02  0.99999915790E+01 0.  0.
         12    1    1    2    0    0  0.20500287560E+02  0.29131772145E+02 -0.27571572919E+02  0.45045683162E+02  0.00000000000E+00 0. -1.
         11    1    3    3    0    0 -0.82183382654E+00 -0.18775251976E+01  0.53548052577E+00  0.21183133292E+01  0.51100000000E-03 0. -1.
        -11    1    3    3    0    0 -0.16111577340E+02 -0.26621319818E+02  0.24430401257E+02  0.39561624070E+02  0.51100000000E-03 0.  1.
         12    1    3    3    0    0 -0.35668763936E+01 -0.63292713021E+00  0.26056911355E+01  0.44623794385E+01  0.00000000000E+00 0. -1.
</event>
<event>
 7    1  0.2250716E-008  0.4614231E+02  0.7816164E-02  0.1320468E+00
        -11   -1    0    0    0    0  0.00000000000E+00  0.00000000000E+00  0.45593999997E+02  0.45594000000E+02  0.51100000000E-03 0.  1.
         11   -1    0    0    0    0 -0.00000000000E+00 -0.00000000000E+00 -0.45593999997E+02  0.45594000000E+02  0.51100000000E-03 0. -1.
    9900012    2    1    2    0    0 -0.11615718738E+02  0.16043099934E+02  0.40457483278E+02  0.46142312854E+02  0.99999552540E+01 0.  0.
         12    1    1    2    0    0  0.11615718738E+02 -0.16043099934E+02 -0.40457483278E+02  0.45045687146E+02  0.00000000000E+00 0. -1.
         11    1    3    3    0    0 -0.27392481961E+01  0.68151591700E-01  0.57686912325E+01  0.63863858415E+01  0.51100000000E-03 0. -1.
        -11    1    3    3    0    0  0.42972781541E+00  0.72960431642E+00  0.52843060510E+01  0.53517174024E+01  0.51100000000E-03 0.  1.
        -12    1    3    3    0    0 -0.93061983569E+01  0.15245344025E+02  0.29404485994E+02  0.34404209610E+02  0.00000000000E+00 0.  1.
</event>
<event>
 7    1  0.2250716E-008  0.4614232E+02  0.7816164E-02  0.1320468E+00
        -11   -1    0    0    0    0  0.00000000000E+00  0.00000000000E+00  0.45593999997E+02  0.45594000000E+02  0.51100000000E-03 0. -1.
         11   -1    0    0    0    0 -0.00000000000E+00 -0.00000000000E+00 -0.45593999997E+02  0.45594000000E+02  0.51100000000E-03 0.  1.
    9900012    2    1    2    0    0 -0.75245008693E+00  0.38175763836E+02 -0.23898919432E+02  0.46142317903E+02  0.10000001293E+02 0.  0.
         12    1    1    2    0    0  0.75245008693E+00 -0.38175763836E+02  0.23898919432E+02  0.45045682097E+02  0.00000000000E+00 0. -1.
         11    1    3    3    0    0 -0.81601380362E+00  0.10131034532E+02 -0.55538914314E+01  0.11582290339E+02  0.51100000000E-03 0. -1.
        -11    1    3    3    0    0 -0.15211177142E+01  0.25968919536E+02 -0.14134746331E+02  0.29605567636E+02  0.51100000000E-03 0.  1.
         12    1    3    3    0    0  0.15846814309E+01  0.20758097677E+01 -0.42102816702E+01  0.49544599273E+01  0.00000000000E+00 0. -1.
</event>
<event>
 7    1  0.2250716E-008  0.4614232E+02  0.7816164E-02  0.1320468E+00
        -11   -1    0    0    0    0  0.00000000000E+00  0.00000000000E+00  0.45593999997E+02  0.45594000000E+02  0.51100000000E-03 0.  1.
         11   -1    0    0    0    0 -0.00000000000E+00 -0.00000000000E+00 -0.45593999997E+02  0.45594000000E+02  0.51100000000E-03 0. -1.
    9900012    2    1    2    0    0  0.43433209521E+02  0.11357141337E+02  0.36993496652E+01  0.46142317226E+02  0.99999951179E+01 0.  0.
         12    1    1    2    0    0 -0.43433209521E+02 -0.11357141337E+02 -0.36993496652E+01  0.45045682774E+02  0.00000000000E+00 0. -1.
         11    1    3    3    0    0  0.76053889860E+01  0.12574023574E+01  0.23794979176E+01  0.80675283029E+01  0.51100000000E-03 0. -1.
        -11    1    3    3    0    0  0.25760051564E+02  0.10858394830E+02  0.10592034274E+01  0.27975112279E+02  0.51100000000E-03 0.  1.
        -12    1    3    3    0    0  0.10067768971E+02 -0.75865585120E+00  0.26064832015E+00  0.10099676644E+02  0.00000000000E+00 0.  1.
</event>
<event>
 7    1  0.2250716E-008  0.4614232E+02  0.7816164E-02  0.1320468E+00
        -11   -1    0    0    0    0  0.00000000000E+00  0.00000000000E+00  0.45593999997E+02  0.45594000000E+02  0.51100000000E-03 0. -1.
         11   -1    0    0    0    0 -0.00000000000E+00 -0.00000000000E+00 -0.45593999997E+02  0.45594000000E+02  0.51100000000E-03 0.  1.
    9900012    2    1    2    0    0  0.30665072761E+02  0.31859048189E+02 -0.85888192020E+01  0.46142318140E+02  0.10000003457E+02 0.  0.
         12    1    1    2    0    0 -0.30665072761E+02 -0.31859048189E+02  0.85888192020E+01  0.45045681860E+02  0.00000000000E+00 0. -1.
         11    1    3    3    0    0  0.21952198471E+01  0.10013784833E+00  0.45195670354E+00  0.22434979137E+01  0.51100000000E-03 0. -1.
        -11    1    3    3    0    0  0.13947767898E+02  0.13783669915E+02 -0.64630268811E+01  0.20647045852E+02  0.51100000000E-03 0.  1.
         12    1    3    3    0    0  0.14522085016E+02  0.17975240425E+02 -0.25777490245E+01  0.23251774375E+02  0.00000000000E+00 0. -1.
</event>
<event>
 7    1  0.2250716E-008  0.4614232E+02  0.7816164E-02  0.1320468E+00
        -11   -1    0    0    0    0  0.00000000000E+00  0.00000000000E+00  0.45593999997E+02  0.45594000000E+02  0.51100000000E-03 0.  1.
         11   -1    0    0    0    0 -0.00000000000E+00 -0.00000000000E+00 -0.45593999997E+02  0.45594000000E+02  0.51100000000E-03 0. -1.
    9900012    2    1    2    0    0 -0.11364485825E+02 -0.24958552507E+02  0.35735592870E+02  0.46142317864E+02  0.10000000941E+02 0.  0.
         12    1    1    2    0    0  0.11364485825E+02  0.24958552507E+02 -0.35735592870E+02  0.45045682136E+02  0.00000000000E+00 0. -1.
         11    1    3    3    0    0 -0.23978395531E+01 -0.10194663241E+01  0.70194115046E+01  0.74873950237E+01  0.51100000000E-03 0. -1.
        -11    1    3    3    0    0 -0.50935125784E+01 -0.83282805645E+01  0.99546731923E+01  0.13942727358E+02  0.51100000000E-03 0.  1.
         12    1    3    3    0    0 -0.38731336931E+01 -0.15610805618E+02  0.18761508173E+02  0.24712195483E+02  0.00000000000E+00 0. -1.
</event>
<event>
 7    1  0.2250716E-008  0.4614232E+02  0.7816164E-02  0.1320468E+00
        -11   -1    0    0    0    0  0.00000000000E+00  0.00000000000E+00  0.45593999997E+02  0.45594000000E+02  0.51100000000E-03 0.  1.
         11   -1    0    0    0    0 -0.00000000000E+00 -0.00000000000E+00 -0.45593999997E+02  0.45594000000E+02  0.51100000000E-03 0. -1.
    9900012    2    1    2    0    0 -0.20640702418E+02  0.22718468282E+02  0.32968866715E+02  0.46142316856E+02  0.99999917491E+01 0.  0.
         12    1    1    2    0    0  0.20640702418E+02 -0.22718468282E+02 -0.32968866715E+02  0.45045683144E+02  0.00000000000E+00 0. -1.
         11    1    3    3    0    0  0.30522487623E+00  0.90007324386E+00  0.29414333214E+01  0.30911687620E+01  0.51100000000E-03 0. -1.
        -11    1    3    3    0    0 -0.91223350902E+00  0.30002560204E+01  0.48582161419E+01  0.57823845000E+01  0.51100000000E-03 0.  1.
        -12    1    3    3    0    0 -0.20033693786E+02  0.18818139017E+02  0.25169217252E+02  0.37268763594E+02  0.00000000000E+00 0.  1.
</event>
<event>
 7    1  0.2250716E-008  0.4614232E+02  0.7816164E-02  0.1320468E+00
        -11   -1    0    0    0    0  0.00000000000E+00  0.00000000000E+00  0.45593999997E+02  0.45594000000E+02  0.51100000000E-03 0.  1.
         11   -1    0    0    0    0 -0.00000000000E+00 -0.00000000000E+00 -0.45593999997E+02  0.45594000000E+02  0.51100000000E-03 0. -1.
    9900012    2    1    2    0    0  0.38215198861E+01  0.31361629055E+02  0.32108527810E+02  0.46142319304E+02  0.10000014073E+02 0.  0.
         12    1    1    2    0    0 -0.38215198861E+01 -0.31361629055E+02 -0.32108527810E+02  0.45045680696E+02  0.00000000000E+00 0. -1.
         11    1    3    3    0    0 -0.15247425651E+01  0.28061107428E+01  0.62683716588E+01  0.70350252953E+01  0.51100000000E-03 0. -1.
        -11    1    3    3    0    0  0.58142525124E+01  0.21920999183E+02  0.20633737357E+02  0.30660835850E+02  0.51100000000E-03 0.  1.
        -12    1    3    3    0    0 -0.46799006110E+00  0.66345191286E+01  0.52064187945E+01  0.84464581588E+01  0.00000000000E+00 0.  1.
</event>
<event>
 7    1  0.2250716E-008  0.4614232E+02  0.7816164E-02  0.1320468E+00
        -11   -1    0    0    0    0  0.00000000000E+00  0.00000000000E+00  0.45593999997E+02  0.45594000000E+02  0.51100000000E-03 0. -1.
         11   -1    0    0    0    0 -0.00000000000E+00 -0.00000000000E+00 -0.45593999997E+02  0.45594000000E+02  0.51100000000E-03 0.  1.
    9900012    2    1    2    0    0 -0.38845950197E+02  0.16348501903E+02 -0.15900698203E+02  0.46142316916E+02  0.99999922903E+01 0.  0.
         12    1    1    2    0    0  0.38845950197E+02 -0.16348501903E+02  0.15900698203E+02  0.45045683084E+02  0.00000000000E+00 0. -1.
         11    1    3    3    0    0 -0.41356334339E+01  0.29888478305E+01 -0.28902991661E+01  0.58643418032E+01  0.51100000000E-03 0. -1.
        -11    1    3    3    0    0 -0.24346452349E+02  0.12635939740E+02 -0.11644316319E+02  0.29799443248E+02  0.51100000000E-03 0.  1.
         12    1    3    3    0    0 -0.10363864414E+02  0.72371433169E+00 -0.13660827172E+01  0.10478531864E+02  0.00000000000E+00 0. -1.
</event>
<event>
 7    1  0.2250716E-008  0.4614232E+02  0.7816164E-02  0.1320468E+00
        -11   -1    0    0    0    0  0.00000000000E+00  0.00000000000E+00  0.45593999997E+02  0.45594000000E+02  0.51100000000E-03 0. -1.
         11   -1    0    0    0    0 -0.00000000000E+00 -0.00000000000E+00 -0.45593999997E+02  0.45594000000E+02  0.51100000000E-03 0.  1.
    9900012    2    1    2    0    0  0.42938488625E+02  0.82879324235E+01 -0.10803231588E+02  0.46142318275E+02  0.10000004691E+02 0.  0.
         12    1    1    2    0    0 -0.42938488625E+02 -0.82879324235E+01  0.10803231588E+02  0.45045681725E+02  0.00000000000E+00 0. -1.
         11    1    3    3    0    0  0.96299150488E+00 -0.87583298110E+00 -0.45813247500E+00  0.13799716211E+01  0.51100000000E-03 0. -1.
        -11    1    3    3    0    0  0.53442843598E+01  0.23419377584E+01 -0.37119289347E+01  0.69155234408E+01  0.51100000000E-03 0.  1.
        -12    1    3    3    0    0  0.36631212761E+02  0.68218276462E+01 -0.66331701784E+01  0.37846823214E+02  0.00000000000E+00 0.  1.
</event>
<event>
 7    1  0.2250716E-008  0.4614232E+02  0.7816164E-02  0.1320468E+00
        -11   -1    0    0    0    0  0.00000000000E+00  0.00000000000E+00  0.45593999997E+02  0.45594000000E+02  0.51100000000E-03 0. -1.
         11   -1    0    0    0    0 -0.00000000000E+00 -0.00000000000E+00 -0.45593999997E+02  0.45594000000E+02  0.51100000000E-03 0.  1.
    9900012    2    1    2    0    0 -0.94575322470E+01  0.86647930875E+01 -0.43180896720E+02  0.46142318775E+02  0.10000009244E+02 0.  0.
         12    1    1    2    0    0  0.94575322470E+01 -0.86647930875E+01  0.43180896720E+02  0.45045681225E+02  0.00000000000E+00 0. -1.
         11    1    3    3    0    0  0.88167816224E+00 -0.52146809612E+00 -0.49245593677E+01  0.50299672548E+01  0.51100000000E-03 0. -1.
        -11    1    3    3    0    0 -0.25803530362E+01  0.58575220082E+00 -0.13803543271E+02  0.14054861598E+02  0.51100000000E-03 0.  1.
         12    1    3    3    0    0 -0.77588573731E+01  0.86005089828E+01 -0.24452794081E+02  0.27057489922E+02  0.00000000000E+00 0. -1.
</event>
<event>
 7    1  0.2250716E-008  0.4614231E+02  0.7816164E-02  0.1320468E+00
        -11   -1    0    0    0    0  0.00000000000E+00  0.00000000000E+00  0.45593999997E+02  0.45594000000E+02  0.51100000000E-03 0.  1.
         11   -1    0    0    0    0 -0.00000000000E+00 -0.00000000000E+00 -0.45593999997E+02  0.45594000000E+02  0.51100000000E-03 0. -1.
    9900012    2    1    2    0    0 -0.10610675890E+02  0.18722104823E+02  0.39572848015E+02  0.46142312616E+02  0.99999530838E+01 0.  0.
         12    1    1    2    0    0  0.10610675890E+02 -0.18722104823E+02 -0.39572848015E+02  0.45045687384E+02  0.00000000000E+00 0. -1.
         11    1    3    3    0    0 -0.14689705229E+01  0.99784584424E+00  0.79423651390E-01  0.17776048784E+01  0.51100000000E-03 0. -1.
        -11    1    3    3    0    0 -0.38488755418E+01  0.47575175114E+01  0.10187797488E+02  0.11884402960E+02  0.51100000000E-03 0.  1.
        -12    1    3    3    0    0 -0.52928298253E+01  0.12966741467E+02  0.29305626876E+02  0.32480304778E+02  0.00000000000E+00 0.  1.
</event>
<event>
 7    1  0.2250716E-008  0.4614232E+02  0.7816164E-02  0.1320468E+00
        -11   -1    0    0    0    0  0.00000000000E+00  0.00000000000E+00  0.45593999997E+02  0.45594000000E+02  0.51100000000E-03 0.  1.
         11   -1    0    0    0    0 -0.00000000000E+00 -0.00000000000E+00 -0.45593999997E+02  0.45594000000E+02  0.51100000000E-03 0. -1.
    9900012    2    1    2    0    0  0.42426017858E+02 -0.27922352253E+01  0.14877831212E+02  0.46142318405E+02  0.10000005869E+02 0.  0.
         12    1    1    2    0    0 -0.42426017858E+02  0.27922352253E+01 -0.14877831212E+02  0.45045681595E+02  0.00000000000E+00 0. -1.
         11    1    3    3    0    0  0.70533457877E+01 -0.81896871130E+00  0.23274689682E+01  0.74724499737E+01  0.51100000000E-03 0.  1.
        -11    1    3    3    0    0  0.26562571922E+02 -0.35899297342E+01  0.12812379284E+02  0.29708835147E+02  0.51100000000E-03 0. -1.
         12    1    3    3    0    0  0.88101001483E+01  0.16166632202E+01 -0.26201704097E+00  0.89610332842E+01  0.00000000000E+00 0. -1.
</event>
<event>
 7    1  0.2250716E-008  0.4614232E+02  0.7816164E-02  0.1320468E+00
        -11   -1    0    0    0    0  0.00000000000E+00  0.00000000000E+00  0.45593999997E+02  0.45594000000E+02  0.51100000000E-03 0. -1.
         11   -1    0    0    0    0 -0.00000000000E+00 -0.00000000000E+00 -0.45593999997E+02  0.45594000000E+02  0.51100000000E-03 0.  1.
    9900012    2    1    2    0    0  0.14104206801E+02  0.34733441478E+01 -0.42639426795E+02  0.46142317783E+02  0.10000000197E+02 0.  0.
         12    1    1    2    0    0 -0.14104206801E+02 -0.34733441478E+01  0.42639426795E+02  0.45045682217E+02  0.00000000000E+00 0. -1.
         11    1    3    3    0    0 -0.93270300493E+00  0.74213283554E+00 -0.15068803686E+01  0.19212976728E+01  0.51100000000E-03 0. -1.
        -11    1    3    3    0    0  0.84031021738E+01  0.39800456016E+01 -0.27067769704E+02  0.28620220931E+02  0.51100000000E-03 0.  1.
         12    1    3    3    0    0  0.66338076316E+01 -0.12488342894E+01 -0.14064776722E+02  0.15600799179E+02  0.00000000000E+00 0. -1.
</event>
<event>
 7    1  0.2250716E-008  0.4614232E+02  0.7816164E-02  0.1320468E+00
        -11   -1    0    0    0    0  0.00000000000E+00  0.00000000000E+00  0.45593999997E+02  0.45594000000E+02  0.51100000000E-03 0. -1.
         11   -1    0    0    0    0 -0.00000000000E+00 -0.00000000000E+00 -0.45593999997E+02  0.45594000000E+02  0.51100000000E-03 0.  1.
    9900012    2    1    2    0    0 -0.36999458196E+02 -0.19873166961E+02 -0.16285293534E+02  0.46142318105E+02  0.10000003136E+02 0.  0.
         12    1    1    2    0    0  0.36999458196E+02  0.19873166961E+02  0.16285293534E+02  0.45045681895E+02  0.00000000000E+00 0. -1.
         11    1    3    3    0    0 -0.10425110413E+02 -0.30434819070E+01 -0.94105811097E+00  0.10900977015E+02  0.51100000000E-03 0. -1.
        -11    1    3    3    0    0 -0.99709736565E+01 -0.45486403148E+01 -0.67591032877E+01  0.12876176524E+02  0.51100000000E-03 0.  1.
         12    1    3    3    0    0 -0.16603374126E+02 -0.12281044740E+02 -0.85851321352E+01  0.22365164566E+02  0.00000000000E+00 0. -1.
</event>
<event>
 7    1  0.2250716E-008  0.4614232E+02  0.7816164E-02  0.1320468E+00
        -11   -1    0    0    0    0  0.00000000000E+00  0.00000000000E+00  0.45593999997E+02  0.45594000000E+02  0.51100000000E-03 0.  1.
         11   -1    0    0    0    0 -0.00000000000E+00 -0.00000000000E+00 -0.45593999997E+02  0.45594000000E+02  0.51100000000E-03 0. -1.
    9900012    2    1    2    0    0 -0.22730992887E+02  0.13691314283E+02  0.36400045871E+02  0.46142318034E+02  0.10000002484E+02 0.  0.
         12    1    1    2    0    0  0.22730992887E+02 -0.13691314283E+02 -0.36400045871E+02  0.45045681966E+02  0.00000000000E+00 0. -1.
         11    1    3    3    0    0 -0.83862345773E+01  0.47547527577E+01  0.79143054936E+01  0.12472884024E+02  0.51100000000E-03 0. -1.
        -11    1    3    3    0    0 -0.10003294083E+02  0.90576270430E+01  0.19844545576E+02  0.23998176796E+02  0.51100000000E-03 0.  1.
         12    1    3    3    0    0 -0.43414642260E+01 -0.12106551773E+00  0.86411948018E+01  0.96712572134E+01  0.00000000000E+00 0. -1.
</event>
<event>
 7    1  0.2250716E-008  0.4614232E+02  0.7816164E-02  0.1320468E+00
        -11   -1    0    0    0    0  0.00000000000E+00  0.00000000000E+00  0.45593999997E+02  0.45594000000E+02  0.51100000000E-03 0.  1.
         11   -1    0    0    0    0 -0.00000000000E+00 -0.00000000000E+00 -0.45593999997E+02  0.45594000000E+02  0.51100000000E-03 0. -1.
    9900012    2    1    2    0    0 -0.76179986073E+01 -0.19981923897E+02  0.39645961500E+02  0.46142318202E+02  0.10000004019E+02 0.  0.
         12    1    1    2    0    0  0.76179986073E+01  0.19981923897E+02 -0.39645961500E+02  0.45045681798E+02  0.00000000000E+00 0. -1.
         11    1    3    3    0    0 -0.15046345041E-01  0.50612495590E+00 -0.25832444749E+00  0.56843701918E+00  0.51100000000E-03 0. -1.
        -11    1    3    3    0    0 -0.33986278685E+01 -0.12102940675E+02  0.21130624058E+02  0.24587295860E+02  0.51100000000E-03 0.  1.
         12    1    3    3    0    0 -0.42043243937E+01 -0.83851081782E+01  0.18773661890E+02  0.20986585323E+02  0.00000000000E+00 0. -1.
</event>
<event>
 7    1  0.2250716E-008  0.4614232E+02  0.7816164E-02  0.1320468E+00
        -11   -1    0    0    0    0  0.00000000000E+00  0.00000000000E+00  0.45593999997E+02  0.45594000000E+02  0.51100000000E-03 0.  1.
         11   -1    0    0    0    0 -0.00000000000E+00 -0.00000000000E+00 -0.45593999997E+02  0.45594000000E+02  0.51100000000E-03 0. -1.
    9900012    2    1    2    0    0  0.17631532969E+02  0.19331429118E+02  0.36667947850E+02  0.46142317564E+02  0.99999982006E+01 0.  0.
         12    1    1    2    0    0 -0.17631532969E+02 -0.19331429118E+02 -0.36667947850E+02  0.45045682436E+02  0.00000000000E+00 0. -1.
         11    1    3    3    0    0  0.63735710989E+01  0.90601458763E+01  0.22373997305E+02  0.24966065119E+02  0.51100000000E-03 0. -1.
        -11    1    3    3    0    0  0.33104049245E+01  0.43445195030E+01  0.33413955050E+01  0.64030113742E+01  0.51100000000E-03 0.  1.
         12    1    3    3    0    0  0.79475569456E+01  0.59267637387E+01  0.10952555040E+02  0.14773241070E+02  0.00000000000E+00 0. -1.
</event>
<event>
 7    1  0.2250716E-008  0.4614232E+02  0.7816164E-02  0.1320468E+00
        -11   -1    0    0    0    0  0.00000000000E+00  0.00000000000E+00  0.45593999997E+02  0.45594000000E+02  0.51100000000E-03 0.  1.
         11   -1    0    0    0    0 -0.00000000000E+00 -0.00000000000E+00 -0.45593999997E+02  0.45594000000E+02  0.51100000000E-03 0. -1.
    9900012    2    1    2    0    0  0.33255170359E+02  0.96769295165E+01  0.28802155774E+02  0.46142317657E+02  0.99999990519E+01 0.  0.
         12    1    1    2    0    0 -0.33255170359E+02 -0.96769295165E+01 -0.28802155774E+02  0.45045682343E+02  0.00000000000E+00 0. -1.
         11    1    3    3    0    0  0.30900665951E+01 -0.84569916882E+00  0.43877913694E+01  0.54329027240E+01  0.51100000000E-03 0. -1.
        -11    1    3    3    0    0  0.22628717123E+02  0.10714491476E+02  0.18752207395E+02  0.31281055747E+02  0.51100000000E-03 0.  1.
         12    1    3    3    0    0  0.75363866406E+01 -0.19186279025E+00  0.56621570102E+01  0.94283591857E+01  0.00000000000E+00 0. -1.
</event>
<event>
 7    1  0.2250716E-008  0.4614232E+02  0.7816164E-02  0.1320468E+00
        -11   -1    0    0    0    0  0.00000000000E+00  0.00000000000E+00  0.45593999997E+02  0.45594000000E+02  0.51100000000E-03 0. -1.
         11   -1    0    0    0    0 -0.00000000000E+00 -0.00000000000E+00 -0.45593999997E+02  0.45594000000E+02  0.51100000000E-03 0.  1.
    9900012    2    1    2    0    0  0.87570251983E+01  0.33489981610E+02 -0.28824453737E+02  0.46142317723E+02  0.99999996531E+01 0.  0.
         12    1    1    2    0    0 -0.87570251983E+01 -0.33489981610E+02  0.28824453737E+02  0.45045682277E+02  0.00000000000E+00 0. -1.
         11    1    3    3    0    0 -0.87832377651E+00  0.10058375209E+01 -0.12356057150E+01  0.18193085277E+01  0.51100000000E-03 0. -1.
        -11    1    3    3    0    0  0.10843291600E+02  0.27540172325E+02 -0.23351443708E+02  0.37700503815E+02  0.51100000000E-03 0.  1.
        -12    1    3    3    0    0 -0.12079426252E+01  0.49439717638E+01 -0.42374043148E+01  0.66225053805E+01  0.00000000000E+00 0.  1.
</event>
<event>
 7    1  0.2250716E-008  0.4614232E+02  0.7816164E-02  0.1320468E+00
        -11   -1    0    0    0    0  0.00000000000E+00  0.00000000000E+00  0.45593999997E+02  0.45594000000E+02  0.51100000000E-03 0. -1.
         11   -1    0    0    0    0 -0.00000000000E+00 -0.00000000000E+00 -0.45593999997E+02  0.45594000000E+02  0.51100000000E-03 0.  1.
    9900012    2    1    2    0    0  0.27511931971E+01  0.36212217651E+02 -0.26649948542E+02  0.46142317315E+02  0.99999959346E+01 0.  0.
         12    1    1    2    0    0 -0.27511931971E+01 -0.36212217651E+02  0.26649948542E+02  0.45045682685E+02  0.00000000000E+00 0. -1.
         11    1    3    3    0    0 -0.14215969737E+01  0.24831131434E+02 -0.16606073878E+02  0.29905981277E+02  0.51100000000E-03 0. -1.
        -11    1    3    3    0    0  0.19941096942E+01  0.98908280965E+01 -0.83807944833E+01  0.13116503739E+02  0.51100000000E-03 0.  1.
        -12    1    3    3    0    0  0.21786804767E+01  0.14902581210E+01 -0.16630801807E+01  0.31198322991E+01  0.00000000000E+00 0.  1.
</event>
<event>
 7    1  0.2250716E-008  0.4614232E+02  0.7816164E-02  0.1320468E+00
        -11   -1    0    0    0    0  0.00000000000E+00  0.00000000000E+00  0.45593999997E+02  0.45594000000E+02  0.51100000000E-03 0.  1.
         11   -1    0    0    0    0 -0.00000000000E+00 -0.00000000000E+00 -0.45593999997E+02  0.45594000000E+02  0.51100000000E-03 0. -1.
    9900012    2    1    2    0    0  0.26252442932E+02  0.30982275457E+02 -0.19494136273E+02  0.46142317616E+02  0.99999986800E+01 0.  0.
         12    1    1    2    0    0 -0.26252442932E+02 -0.30982275457E+02  0.19494136273E+02  0.45045682384E+02  0.00000000000E+00 0. -1.
         11    1    3    3    0    0  0.31865190906E+00  0.11457567285E+01  0.31553733193E+00  0.12303908277E+01  0.51100000000E-03 0. -1.
        -11    1    3    3    0    0  0.27459365350E+01  0.26226231482E+01  0.44029138039E+00  0.38225876566E+01  0.51100000000E-03 0.  1.
        -12    1    3    3    0    0  0.23187854488E+02  0.27213895580E+02 -0.20249964985E+02  0.41089339132E+02  0.00000000000E+00 0.  1.
</event>
<event>
 7    1  0.2250716E-008  0.4614232E+02  0.7816164E-02  0.1320468E+00
        -11   -1    0    0    0    0  0.00000000000E+00  0.00000000000E+00  0.45593999997E+02  0.45594000000E+02  0.51100000000E-03 0. -1.
         11   -1    0    0    0    0 -0.00000000000E+00 -0.00000000000E+00 -0.45593999997E+02  0.45594000000E+02  0.51100000000E-03 0.  1.
    9900012    2    1    2    0    0 -0.42399695621E+02 -0.14799350333E+02 -0.35154561948E+01  0.46142318839E+02  0.10000009826E+02 0.  0.
         12    1    1    2    0    0  0.42399695621E+02  0.14799350333E+02  0.35154561948E+01  0.45045681161E+02  0.00000000000E+00 0. -1.
         11    1    3    3    0    0 -0.10544939837E+02 -0.48046778345E+01 -0.50321844681E+01  0.12633430494E+02  0.51100000000E-03 0. -1.
        -11    1    3    3    0    0 -0.32646612921E+01 -0.47029438518E+00 -0.34656783003E+00  0.33165192119E+01  0.51100000000E-03 0.  1.
        -12    1    3    3    0    0 -0.28590094491E+02 -0.95243781137E+01  0.18632961034E+01  0.30192369133E+02  0.00000000000E+00 0.  1.
</event>
<event>
 7    1  0.2250716E-008  0.4614232E+02  0.7816164E-02  0.1320468E+00
        -11   -1    0    0    0    0  0.00000000000E+00  0.00000000000E+00  0.45593999997E+02  0.45594000000E+02  0.51100000000E-03 0. -1.
         11   -1    0    0    0    0 -0.00000000000E+00 -0.00000000000E+00 -0.45593999997E+02  0.45594000000E+02  0.51100000000E-03 0.  1.
    9900012    2    1    2    0    0 -0.42599937457E+02 -0.38751999524E+01 -0.14118845480E+02  0.46142316037E+02  0.99999842798E+01 0.  0.
         12    1    1    2    0    0  0.42599937457E+02  0.38751999524E+01  0.14118845480E+02  0.45045683963E+02  0.00000000000E+00 0. -1.
         11    1    3    3    0    0 -0.95124891723E+01 -0.12881169462E+01 -0.46980979811E+01  0.10687320545E+02  0.51100000000E-03 0. -1.
        -11    1    3    3    0    0 -0.31901129501E+02 -0.16308209625E+01 -0.10458612683E+02  0.33611370397E+02  0.51100000000E-03 0.  1.
         12    1    3    3    0    0 -0.11863187836E+01 -0.95626204366E+00  0.10378651844E+01  0.18436250957E+01  0.00000000000E+00 0. -1.
</event>
<event>
 7    1  0.2250716E-008  0.4614232E+02  0.7816164E-02  0.1320468E+00
        -11   -1    0    0    0    0  0.00000000000E+00  0.00000000000E+00  0.45593999997E+02  0.45594000000E+02  0.51100000000E-03 0.  1.
         11   -1    0    0    0    0 -0.00000000000E+00 -0.00000000000E+00 -0.45593999997E+02  0.45594000000E+02  0.51100000000E-03 0. -1.
    9900012    2    1    2    0    0  0.13048657733E+02  0.43050104053E+02  0.23525570712E+01  0.46142318161E+02  0.10000003642E+02 0.  0.
         12    1    1    2    0    0 -0.13048657733E+02 -0.43050104053E+02 -0.23525570712E+01  0.45045681839E+02  0.00000000000E+00 0. -1.
         11    1    3    3    0    0  0.16676345969E+00  0.93640302362E+01  0.33205730093E+01  0.99367538808E+01  0.51100000000E-03 0. -1.
        -11    1    3    3    0    0  0.59247852660E+01  0.13186640727E+02  0.85045512741E+00  0.14481500209E+02  0.51100000000E-03 0.  1.
         12    1    3    3    0    0  0.69571090073E+01  0.20499433090E+02 -0.18184710655E+01  0.21724064071E+02  0.00000000000E+00 0. -1.
</event>
<event>
 7    1  0.2250716E-008  0.4614232E+02  0.7816164E-02  0.1320468E+00
        -11   -1    0    0    0    0  0.00000000000E+00  0.00000000000E+00  0.45593999997E+02  0.45594000000E+02  0.51100000000E-03 0.  1.
         11   -1    0    0    0    0 -0.00000000000E+00 -0.00000000000E+00 -0.45593999997E+02  0.45594000000E+02  0.51100000000E-03 0. -1.
    9900012    2    1    2    0    0 -0.77039656137E+01  0.44119621452E+02  0.48188644009E+01  0.46142317217E+02  0.99999950427E+01 0.  0.
         12    1    1    2    0    0  0.77039656137E+01 -0.44119621452E+02 -0.48188644009E+01  0.45045682783E+02  0.00000000000E+00 0. -1.
         11    1    3    3    0    0 -0.22377537359E+00  0.46136032674E+01  0.10997666094E+01  0.47481467315E+01  0.51100000000E-03 0. -1.
        -11    1    3    3    0    0  0.17681239505E+01  0.10012204957E+02  0.24508442716E+01  0.10458353040E+02  0.51100000000E-03 0.  1.
         12    1    3    3    0    0 -0.92483141906E+01  0.29493813227E+02  0.12682535198E+01  0.30935817446E+02  0.00000000000E+00 0. -1.
</event>
<event>
 7    1  0.2250716E-008  0.4614232E+02  0.7816164E-02  0.1320468E+00
        -11   -1    0    0    0    0  0.00000000000E+00  0.00000000000E+00  0.45593999997E+02  0.45594000000E+02  0.51100000000E-03 0.  1.
         11   -1    0    0    0    0 -0.00000000000E+00 -0.00000000000E+00 -0.45593999997E+02  0.45594000000E+02  0.51100000000E-03 0. -1.
    9900012    2    1    2    0    0 -0.22155615335E+02  0.37161394064E+02 -0.12540850854E+02  0.46142318300E+02  0.10000004912E+02 0.  0.
         12    1    1    2    0    0  0.22155615335E+02 -0.37161394064E+02  0.12540850854E+02  0.45045681700E+02  0.00000000000E+00 0. -1.
         11    1    3    3    0    0 -0.12784209910E+02  0.18660051813E+02 -0.95893856270E+01  0.24568066136E+02  0.51100000000E-03 0. -1.
        -11    1    3    3    0    0 -0.67796377659E+01  0.11174111753E+02 -0.41439843176E+01  0.13711194988E+02  0.51100000000E-03 0.  1.
        -12    1    3    3    0    0 -0.25917676590E+01  0.73272304989E+01  0.11925190903E+01  0.78630571766E+01  0.00000000000E+00 0.  1.
</event>
<event>
 7    1  0.2250716E-008  0.4614232E+02  0.7816164E-02  0.1320468E+00
        -11   -1    0    0    0    0  0.00000000000E+00  0.00000000000E+00  0.45593999997E+02  0.45594000000E+02  0.51100000000E-03 0.  1.
         11   -1    0    0    0    0 -0.00000000000E+00 -0.00000000000E+00 -0.45593999997E+02  0.45594000000E+02  0.51100000000E-03 0. -1.
    9900012    2    1    2    0    0 -0.32269109318E+01  0.10794868968E+02  0.43613888307E+02  0.46142318704E+02  0.10000008596E+02 0.  0.
         12    1    1    2    0    0  0.32269109318E+01 -0.10794868968E+02 -0.43613888307E+02  0.45045681296E+02  0.00000000000E+00 0. -1.
         11    1    3    3    0    0 -0.79392623764E+00 -0.39782664478E+00  0.19279655929E-01  0.88823244501E+00  0.51100000000E-03 0. -1.
        -11    1    3    3    0    0 -0.27168295896E+00  0.80673204587E+01  0.24846810409E+02  0.26125073374E+02  0.51100000000E-03 0.  1.
        -12    1    3    3    0    0 -0.21613017352E+01  0.31253751545E+01  0.18747798241E+02  0.19129012885E+02  0.00000000000E+00 0.  1.
</event>
<event>
 7    1  0.2250716E-008  0.4614232E+02  0.7816164E-02  0.1320468E+00
        -11   -1    0    0    0    0  0.00000000000E+00  0.00000000000E+00  0.45593999997E+02  0.45594000000E+02  0.51100000000E-03 0. -1.
         11   -1    0    0    0    0 -0.00000000000E+00 -0.00000000000E+00 -0.45593999997E+02  0.45594000000E+02  0.51100000000E-03 0.  1.
    9900012    2    1    2    0    0 -0.18327373652E+02 -0.40790176764E+02  0.54205454609E+01  0.46142318092E+02  0.10000003020E+02 0.  0.
         12    1    1    2    0    0  0.18327373652E+02  0.40790176764E+02 -0.54205454609E+01  0.45045681908E+02  0.00000000000E+00 0. -1.
         11    1    3    3    0    0 -0.14053114743E+01 -0.55892231130E+00 -0.62812741307E+00  0.16376320704E+01  0.51100000000E-03 0. -1.
        -11    1    3    3    0    0 -0.14611751201E+02 -0.27926036654E+02  0.53174001797E+01  0.31963127839E+02  0.51100000000E-03 0.  1.
        -12    1    3    3    0    0 -0.23103109773E+01 -0.12305217799E+02  0.73127269423E+00  0.12541558183E+02  0.00000000000E+00 0.  1.
</event>
<event>
 7    1  0.2250716E-008  0.4614232E+02  0.7816164E-02  0.1320468E+00
        -11   -1    0    0    0    0  0.00000000000E+00  0.00000000000E+00  0.45593999997E+02  0.45594000000E+02  0.51100000000E-03 0. -1.
         11   -1    0    0    0    0 -0.00000000000E+00 -0.00000000000E+00 -0.45593999997E+02  0.45594000000E+02  0.51100000000E-03 0.  1.
    9900012    2    1    2    0    0 -0.44722154780E+02 -0.53032718491E+01 -0.95792390553E+00  0.46142318312E+02  0.10000005025E+02 0.  0.
         12    1    1    2    0    0  0.44722154780E+02  0.53032718491E+01  0.95792390553E+00  0.45045681688E+02  0.00000000000E+00 0. -1.
         11    1    3    3    0    0 -0.48581587891E+01 -0.28322397155E+00  0.12151598954E+01  0.50158285926E+01  0.51100000000E-03 0. -1.
        -11    1    3    3    0    0 -0.35728265315E+02 -0.18576134935E+01 -0.10041925078E+01  0.35790614317E+02  0.51100000000E-03 0.  1.
         12    1    3    3    0    0 -0.41357306763E+01 -0.31624343840E+01 -0.11688912931E+01  0.53358754029E+01  0.00000000000E+00 0. -1.
</event>
<event>
 7    1  0.2250716E-008  0.4614232E+02  0.7816164E-02  0.1320468E+00
        -11   -1    0    0    0    0  0.00000000000E+00  0.00000000000E+00  0.45593999997E+02  0.45594000000E+02  0.51100000000E-03 0.  1.
         11   -1    0    0    0    0 -0.00000000000E+00 -0.00000000000E+00 -0.45593999997E+02  0.45594000000E+02  0.51100000000E-03 0. -1.
    9900012    2    1    2    0    0 -0.25227239869E+02  0.18223649601E+02  0.32566832809E+02  0.46142316129E+02  0.99999851189E+01 0.  0.
         12    1    1    2    0    0  0.25227239869E+02 -0.18223649601E+02 -0.32566832809E+02  0.45045683871E+02  0.00000000000E+00 0. -1.
         11    1    3    3    0    0 -0.34848824025E+01  0.41834538738E+01  0.77890754207E+01  0.95034408423E+01  0.51100000000E-03 0. -1.
        -11    1    3    3    0    0 -0.13358804993E+02  0.50996881474E+01  0.16577016643E+02  0.21892052693E+02  0.51100000000E-03 0.  1.
         12    1    3    3    0    0 -0.83835524734E+01  0.89405075800E+01  0.82007407448E+01  0.14746822594E+02  0.00000000000E+00 0. -1.
</event>
<event>
 7    1  0.2250716E-008  0.4614232E+02  0.7816164E-02  0.1320468E+00
        -11   -1    0    0    0    0  0.00000000000E+00  0.00000000000E+00  0.45593999997E+02  0.45594000000E+02  0.51100000000E-03 0.  1.
         11   -1    0    0    0    0 -0.00000000000E+00 -0.00000000000E+00 -0.45593999997E+02  0.45594000000E+02  0.51100000000E-03 0. -1.
    9900012    2    1    2    0    0 -0.48373407358E+01 -0.43440563057E+02  0.10891791009E+02  0.46142317682E+02  0.99999992794E+01 0.  0.
         12    1    1    2    0    0  0.48373407358E+01  0.43440563057E+02 -0.10891791009E+02  0.45045682318E+02  0.00000000000E+00 0. -1.
         11    1    3    3    0    0 -0.51104991901E+00 -0.10049071811E+02  0.47419820175E+01  0.11123462141E+02  0.51100000000E-03 0. -1.
        -11    1    3    3    0    0 -0.36211887124E+01 -0.56217579558E+01  0.15080809718E+01  0.68550330913E+01  0.51100000000E-03 0.  1.
         12    1    3    3    0    0 -0.70510210439E+00 -0.27769733290E+02  0.46417280201E+01  0.28163822450E+02  0.00000000000E+00 0. -1.
</event>
<event>
 7    1  0.2250716E-008  0.4614232E+02  0.7816164E-02  0.1320468E+00
        -11   -1    0    0    0    0  0.00000000000E+00  0.00000000000E+00  0.45593999997E+02  0.45594000000E+02  0.51100000000E-03 0.  1.
         11   -1    0    0    0    0 -0.00000000000E+00 -0.00000000000E+00 -0.45593999997E+02  0.45594000000E+02  0.51100000000E-03 0. -1.
    9900012    2    1    2    0    0 -0.41505272102E+01 -0.39841167605E+02  0.20605047030E+02  0.46142317906E+02  0.10000001320E+02 0.  0.
         12    1    1    2    0    0  0.41505272102E+01  0.39841167605E+02 -0.20605047030E+02  0.45045682094E+02  0.00000000000E+00 0. -1.
         11    1    3    3    0    0  0.27223539287E+00 -0.17898391772E+01  0.10030044180E+00  0.18132007140E+01  0.51100000000E-03 0. -1.
        -11    1    3    3    0    0 -0.24040884757E+01 -0.26370156562E+02  0.94359980137E+01  0.28110547083E+02  0.51100000000E-03 0.  1.
        -12    1    3    3    0    0 -0.20186741274E+01 -0.11681171865E+02  0.11068748574E+02  0.16218570109E+02  0.00000000000E+00 0.  1.
</event>
<event>
 7    1  0.2250716E-008  0.4614232E+02  0.7816164E-02  0.1320468E+00
        -11   -1    0    0    0    0  0.00000000000E+00  0.00000000000E+00  0.45593999997E+02  0.45594000000E+02  0.51100000000E-03 0. -1.
         11   -1    0    0    0    0 -0.00000000000E+00 -0.00000000000E+00 -0.45593999997E+02  0.45594000000E+02  0.51100000000E-03 0.  1.
    9900012    2    1    2    0    0  0.26866957141E+02 -0.35185661990E+02 -0.83216124993E+01  0.46142318406E+02  0.10000005881E+02 0.  0.
         12    1    1    2    0    0 -0.26866957141E+02  0.35185661990E+02  0.83216124993E+01  0.45045681594E+02  0.00000000000E+00 0. -1.
         11    1    3    3    0    0  0.28130239784E+01 -0.28941687028E+01  0.15327495743E+01  0.43172488812E+01  0.51100000000E-03 0. -1.
        -11    1    3    3    0    0  0.14313182653E+02 -0.23094936750E+02 -0.78331150325E+01  0.28277216846E+02  0.51100000000E-03 0.  1.
        -12    1    3    3    0    0  0.97407505092E+01 -0.91965565370E+01 -0.20212470411E+01  0.13547852679E+02  0.00000000000E+00 0.  1.
</event>
<event>
 7    1  0.2250716E-008  0.4614232E+02  0.7816164E-02  0.1320468E+00
        -11   -1    0    0    0    0  0.00000000000E+00  0.00000000000E+00  0.45593999997E+02  0.45594000000E+02  0.51100000000E-03 0. -1.
         11   -1    0    0    0    0 -0.00000000000E+00 -0.00000000000E+00 -0.45593999997E+02  0.45594000000E+02  0.51100000000E-03 0.  1.
    9900012    2    1    2    0    0 -0.75215326399E+01  0.40043862700E+02 -0.19210129376E+02  0.46142318033E+02  0.10000002483E+02 0.  0.
         12    1    1    2    0    0  0.75215326399E+01 -0.40043862700E+02  0.19210129376E+02  0.45045681967E+02  0.00000000000E+00 0. -1.
         11    1    3    3    0    0  0.25344049945E+00  0.55600631781E+01 -0.47596375621E+01  0.73234339359E+01  0.51100000000E-03 0. -1.
        -11    1    3    3    0    0 -0.16537391723E+01  0.88602743165E+00 -0.66179100984E+00  0.19894384789E+01  0.51100000000E-03 0.  1.
        -12    1    3    3    0    0 -0.61212339671E+01  0.33597772090E+02 -0.13788700804E+02  0.36829445619E+02  0.00000000000E+00 0.  1.
</event>
<event>
 7    1  0.2250716E-008  0.4614232E+02  0.7816164E-02  0.1320468E+00
        -11   -1    0    0    0    0  0.00000000000E+00  0.00000000000E+00  0.45593999997E+02  0.45594000000E+02  0.51100000000E-03 0.  1.
         11   -1    0    0    0    0 -0.00000000000E+00 -0.00000000000E+00 -0.45593999997E+02  0.45594000000E+02  0.51100000000E-03 0. -1.
    9900012    2    1    2    0    0 -0.83728280850E+01  0.19088740264E+01  0.44219513960E+02  0.46142318020E+02  0.10000002359E+02 0.  0.
         12    1    1    2    0    0  0.83728280850E+01 -0.19088740264E+01 -0.44219513960E+02  0.45045681980E+02  0.00000000000E+00 0. -1.
         11    1    3    3    0    0 -0.16626870108E+01  0.16224993494E+01  0.64319924644E+01  0.68386811270E+01  0.51100000000E-03 0. -1.
        -11    1    3    3    0    0  0.15824205027E+01 -0.10753121062E+01  0.33718177643E+01  0.38767906920E+01  0.51100000000E-03 0.  1.
         12    1    3    3    0    0 -0.82925615768E+01  0.13616867833E+01  0.34415703731E+02  0.35426846201E+02  0.00000000000E+00 0. -1.
</event>
<event>
 7    1  0.2250716E-008  0.4614232E+02  0.7816164E-02  0.1320468E+00
        -11   -1    0    0    0    0  0.00000000000E+00  0.00000000000E+00  0.45593999997E+02  0.45594000000E+02  0.51100000000E-03 0.  1.
         11   -1    0    0    0    0 -0.00000000000E+00 -0.00000000000E+00 -0.45593999997E+02  0.45594000000E+02  0.51100000000E-03 0. -1.
    9900012    2    1    2    0    0  0.12810491296E+02 -0.28063914819E+01  0.43094419734E+02  0.46142317270E+02  0.99999955186E+01 0.  0.
         12    1    1    2    0    0 -0.12810491296E+02  0.28063914819E+01 -0.43094419734E+02  0.45045682730E+02  0.00000000000E+00 0. -1.
         11    1    3    3    0    0 -0.56651028940E+00 -0.41835776569E+00  0.89360678986E+01  0.89637752581E+01  0.51100000000E-03 0. -1.
        -11    1    3    3    0    0  0.18463214400E+01  0.15505191582E+01  0.43026490468E+01  0.49321193823E+01  0.51100000000E-03 0.  1.
        -12    1    3    3    0    0  0.11530680146E+02 -0.39385528744E+01  0.29855702789E+02  0.32246422629E+02  0.00000000000E+00 0.  1.
</event>
<event>
 7    1  0.2250716E-008  0.4614232E+02  0.7816164E-02  0.1320468E+00
        -11   -1    0    0    0    0  0.00000000000E+00  0.00000000000E+00  0.45593999997E+02  0.45594000000E+02  0.51100000000E-03 0.  1.
         11   -1    0    0    0    0 -0.00000000000E+00 -0.00000000000E+00 -0.45593999997E+02  0.45594000000E+02  0.51100000000E-03 0. -1.
    9900012    2    1    2    0    0 -0.34441660176E+02 -0.29012920602E+02 -0.10657052391E+01  0.46142320460E+02  0.10000024613E+02 0.  0.
         12    1    1    2    0    0  0.34441660176E+02  0.29012920602E+02  0.10657052391E+01  0.45045679540E+02  0.00000000000E+00 0. -1.
         11    1    3    3    0    0 -0.95404882358E+00 -0.41550573312E+00 -0.95791295187E-01  0.10450025863E+01  0.51100000000E-03 0.  1.
        -11    1    3    3    0    0 -0.82261303680E+01 -0.92357240282E+01 -0.43033661869E+01  0.13095296100E+02  0.51100000000E-03 0. -1.
         12    1    3    3    0    0 -0.25261480984E+02 -0.19361690841E+02  0.33334522430E+01  0.32002021774E+02  0.00000000000E+00 0. -1.
</event>
<event>
 7    1  0.2250716E-008  0.4614232E+02  0.7816164E-02  0.1320468E+00
        -11   -1    0    0    0    0  0.00000000000E+00  0.00000000000E+00  0.45593999997E+02  0.45594000000E+02  0.51100000000E-03 0.  1.
         11   -1    0    0    0    0 -0.00000000000E+00 -0.00000000000E+00 -0.45593999997E+02  0.45594000000E+02  0.51100000000E-03 0. -1.
    9900012    2    1    2    0    0 -0.15537472186E+02 -0.39873826017E+02  0.14063372583E+02  0.46142317725E+02  0.99999996723E+01 0.  0.
         12    1    1    2    0    0  0.15537472186E+02  0.39873826017E+02 -0.14063372583E+02  0.45045682275E+02  0.00000000000E+00 0. -1.
         11    1    3    3    0    0 -0.71177682880E+01 -0.18450200491E+02  0.60487459786E+01  0.20679938388E+02  0.51100000000E-03 0. -1.
        -11    1    3    3    0    0 -0.92329014196E+01 -0.20168246957E+02  0.60467982182E+01  0.22990615974E+02  0.51100000000E-03 0.  1.
         12    1    3    3    0    0  0.81319752182E+00 -0.12553785696E+01  0.19678283863E+01  0.24717633625E+01  0.00000000000E+00 0. -1.
</event>
<event>
 7    1  0.2250716E-008  0.4614231E+02  0.7816164E-02  0.1320468E+00
        -11   -1    0    0    0    0  0.00000000000E+00  0.00000000000E+00  0.45593999997E+02  0.45594000000E+02  0.51100000000E-03 0.  1.
         11   -1    0    0    0    0 -0.00000000000E+00 -0.00000000000E+00 -0.45593999997E+02  0.45594000000E+02  0.51100000000E-03 0. -1.
    9900012    2    1    2    0    0  0.43563141662E+02 -0.93810553623E+01  0.65850014345E+01  0.46142314801E+02  0.99999730068E+01 0.  0.
         12    1    1    2    0    0 -0.43563141662E+02  0.93810553623E+01 -0.65850014345E+01  0.45045685199E+02  0.00000000000E+00 0. -1.
         11    1    3    3    0    0  0.80740098407E+01 -0.31457811240E+01  0.81066910000E+00  0.87030315659E+01  0.51100000000E-03 0.  1.
        -11    1    3    3    0    0  0.19010596038E+02  0.54800554912E+00  0.12818103249E+01  0.19061639746E+02  0.51100000000E-03 0. -1.
         12    1    3    3    0    0  0.16478535783E+02 -0.67832797875E+01  0.44925220096E+01  0.18377643489E+02  0.00000000000E+00 0. -1.
</event>
<event>
 7    1  0.2250716E-008  0.4614232E+02  0.7816164E-02  0.1320468E+00
        -11   -1    0    0    0    0  0.00000000000E+00  0.00000000000E+00  0.45593999997E+02  0.45594000000E+02  0.51100000000E-03 0. -1.
         11   -1    0    0    0    0 -0.00000000000E+00 -0.00000000000E+00 -0.45593999997E+02  0.45594000000E+02  0.51100000000E-03 0.  1.
    9900012    2    1    2    0    0  0.23831468728E+02 -0.37550629797E+02  0.71501748352E+01  0.46142315411E+02  0.99999785693E+01 0.  0.
         12    1    1    2    0    0 -0.23831468728E+02  0.37550629797E+02 -0.71501748352E+01  0.45045684589E+02  0.00000000000E+00 0. -1.
         11    1    3    3    0    0  0.68576257056E+00 -0.47970358188E+01  0.11405742758E+01  0.49782258777E+01  0.51100000000E-03 0. -1.
        -11    1    3    3    0    0  0.98540345295E+01 -0.19539892626E+02  0.46504406724E+01  0.22372661868E+02  0.51100000000E-03 0.  1.
         12    1    3    3    0    0  0.13291671628E+02 -0.13213701353E+02  0.13591598870E+01  0.18791427666E+02  0.00000000000E+00 0. -1.
</event>
<event>
 7    1  0.2250716E-008  0.4614232E+02  0.7816164E-02  0.1320468E+00
        -11   -1    0    0    0    0  0.00000000000E+00  0.00000000000E+00  0.45593999997E+02  0.45594000000E+02  0.51100000000E-03 0. -1.
         11   -1    0    0    0    0 -0.00000000000E+00 -0.00000000000E+00 -0.45593999997E+02  0.45594000000E+02  0.51100000000E-03 0.  1.
    9900012    2    1    2    0    0  0.53489439337E+01  0.25925102556E+02 -0.36447103442E+02  0.46142317709E+02  0.99999995263E+01 0.  0.
         12    1    1    2    0    0 -0.53489439337E+01 -0.25925102556E+02  0.36447103442E+02  0.45045682291E+02  0.00000000000E+00 0. -1.
         11    1    3    3    0    0  0.99786622017E+00 -0.63012967622E+00 -0.66324058576E+00  0.13537683472E+01  0.51100000000E-03 0. -1.
        -11    1    3    3    0    0  0.21636329971E+01  0.15851437218E+02 -0.20598248037E+02  0.26081357175E+02  0.51100000000E-03 0.  1.
         12    1    3    3    0    0  0.21874447164E+01  0.10703795014E+02 -0.15185614819E+02  0.18707192187E+02  0.00000000000E+00 0. -1.
</event>
<event>
 7    1  0.2250716E-008  0.4614232E+02  0.7816164E-02  0.1320468E+00
        -11   -1    0    0    0    0  0.00000000000E+00  0.00000000000E+00  0.45593999997E+02  0.45594000000E+02  0.51100000000E-03 0.  1.
         11   -1    0    0    0    0 -0.00000000000E+00 -0.00000000000E+00 -0.45593999997E+02  0.45594000000E+02  0.51100000000E-03 0. -1.
    9900012    2    1    2    0    0  0.20866951214E+02  0.18163749322E+02  0.35549432989E+02  0.46142316208E+02  0.99999858397E+01 0.  0.
         12    1    1    2    0    0 -0.20866951214E+02 -0.18163749322E+02 -0.35549432989E+02  0.45045683792E+02  0.00000000000E+00 0. -1.
         11    1    3    3    0    0 -0.44721186661E+00  0.35342357323E+00  0.17944228933E+01  0.18827799810E+01  0.51100000000E-03 0. -1.
        -11    1    3    3    0    0  0.12531140224E+02  0.59701384707E+01  0.15990345674E+02  0.21174588160E+02  0.51100000000E-03 0.  1.
        -12    1    3    3    0    0  0.87830228567E+01  0.11840187278E+02  0.17764664422E+02  0.23084948068E+02  0.00000000000E+00 0.  1.
</event>
<event>
 7    1  0.2250716E-008  0.4614232E+02  0.7816164E-02  0.1320468E+00
        -11   -1    0    0    0    0  0.00000000000E+00  0.00000000000E+00  0.45593999997E+02  0.45594000000E+02  0.51100000000E-03 0.  1.
         11   -1    0    0    0    0 -0.00000000000E+00 -0.00000000000E+00 -0.45593999997E+02  0.45594000000E+02  0.51100000000E-03 0. -1.
    9900012    2    1    2    0    0  0.27454551328E+02  0.34638715607E+02 -0.86902486436E+01  0.46142318420E+02  0.10000006010E+02 0.  0.
         12    1    1    2    0    0 -0.27454551328E+02 -0.34638715607E+02  0.86902486436E+01  0.45045681580E+02  0.00000000000E+00 0. -1.
         11    1    3    3    0    0  0.10895681030E+02  0.10124486419E+02 -0.23702166510E+01  0.15061175837E+02  0.51100000000E-03 0. -1.
        -11    1    3    3    0    0  0.11721808357E+02  0.18625125102E+02 -0.14870149209E+01  0.22056910252E+02  0.51100000000E-03 0.  1.
         12    1    3    3    0    0  0.48370619417E+01  0.58891040855E+01 -0.48330170717E+01  0.90242323315E+01  0.00000000000E+00 0. -1.
</event>
<event>
 7    1  0.2250716E-008  0.4614232E+02  0.7816164E-02  0.1320468E+00
        -11   -1    0    0    0    0  0.00000000000E+00  0.00000000000E+00  0.45593999997E+02  0.45594000000E+02  0.51100000000E-03 0.  1.
         11   -1    0    0    0    0 -0.00000000000E+00 -0.00000000000E+00 -0.45593999997E+02  0.45594000000E+02  0.51100000000E-03 0. -1.
    9900012    2    1    2    0    0 -0.31091882399E+02  0.14382195329E+02  0.29249970462E+02  0.46142318014E+02  0.10000002306E+02 0.  0.
         12    1    1    2    0    0  0.31091882399E+02 -0.14382195329E+02 -0.29249970462E+02  0.45045681986E+02  0.00000000000E+00 0. -1.
         11    1    3    3    0    0 -0.20508930242E+02  0.10722787951E+02  0.16841811657E+02  0.28622386716E+02  0.51100000000E-03 0. -1.
        -11    1    3    3    0    0 -0.87510124445E+01  0.13010452588E+01  0.11261400493E+02  0.14321036237E+02  0.51100000000E-03 0.  1.
        -12    1    3    3    0    0 -0.18319397123E+01  0.23583621186E+01  0.11467583113E+01  0.31988950618E+01  0.00000000000E+00 0.  1.
</event>
<event>
 7    1  0.2250716E-008  0.4614232E+02  0.7816164E-02  0.1320468E+00
        -11   -1    0    0    0    0  0.00000000000E+00  0.00000000000E+00  0.45593999997E+02  0.45594000000E+02  0.51100000000E-03 0.  1.
         11   -1    0    0    0    0 -0.00000000000E+00 -0.00000000000E+00 -0.45593999997E+02  0.45594000000E+02  0.51100000000E-03 0. -1.
    9900012    2    1    2    0    0  0.16670540527E+02 -0.15371385637E+02  0.38922064971E+02  0.46142316972E+02  0.99999928058E+01 0.  0.
         12    1    1    2    0    0 -0.16670540527E+02  0.15371385637E+02 -0.38922064971E+02  0.45045683028E+02  0.00000000000E+00 0. -1.
         11    1    3    3    0    0  0.33118636357E+00 -0.31589712040E+01  0.34722398874E+01  0.47058722435E+01  0.51100000000E-03 0. -1.
        -11    1    3    3    0    0  0.14964684119E+01 -0.19638940055E+01  0.96220486603E+01  0.99337866926E+01  0.51100000000E-03 0.  1.
         12    1    3    3    0    0  0.14842885751E+02 -0.10248520428E+02  0.25827776423E+02  0.31502658036E+02  0.00000000000E+00 0. -1.
</event>
<event>
 7    1  0.2250716E-008  0.4614232E+02  0.7816164E-02  0.1320468E+00
        -11   -1    0    0    0    0  0.00000000000E+00  0.00000000000E+00  0.45593999997E+02  0.45594000000E+02  0.51100000000E-03 0.  1.
         11   -1    0    0    0    0 -0.00000000000E+00 -0.00000000000E+00 -0.45593999997E+02  0.45594000000E+02  0.51100000000E-03 0. -1.
    9900012    2    1    2    0    0  0.27298647648E+02 -0.10504960518E+02  0.34257015515E+02  0.46142317955E+02  0.10000001770E+02 0.  0.
         12    1    1    2    0    0 -0.27298647648E+02  0.10504960518E+02 -0.34257015515E+02  0.45045682045E+02  0.00000000000E+00 0. -1.
         11    1    3    3    0    0  0.23586348132E+01  0.36692520974E+00  0.60484363255E+01  0.65024129780E+01  0.51100000000E-03 0. -1.
        -11    1    3    3    0    0  0.23786771135E+02 -0.11268098003E+02  0.27951722593E+02  0.38393740502E+02  0.51100000000E-03 0.  1.
        -12    1    3    3    0    0  0.11532417006E+01  0.39621227515E+00  0.25685659651E+00  0.12461644748E+01  0.00000000000E+00 0.  1.
</event>
<event>
 7    1  0.2250716E-008  0.4614232E+02  0.7816164E-02  0.1320468E+00
        -11   -1    0    0    0    0  0.00000000000E+00  0.00000000000E+00  0.45593999997E+02  0.45594000000E+02  0.51100000000E-03 0. -1.
         11   -1    0    0    0    0 -0.00000000000E+00 -0.00000000000E+00 -0.45593999997E+02  0.45594000000E+02  0.51100000000E-03 0.  1.
    9900012    2    1    2    0    0  0.44505242125E+02 -0.69253546842E+01  0.66076300471E+00  0.46142315170E+02  0.99999763711E+01 0.  0.
         12    1    1    2    0    0 -0.44505242125E+02  0.69253546842E+01 -0.66076300471E+00  0.45045684830E+02  0.00000000000E+00 0. -1.
         11    1    3    3    0    0  0.26127266962E+02 -0.20963165157E+01  0.10912259645E+01  0.26233935965E+02  0.51100000000E-03 0. -1.
        -11    1    3    3    0    0  0.11933074806E+02 -0.57678951684E+01  0.80882801390E+00  0.13278595257E+02  0.51100000000E-03 0.  1.
         12    1    3    3    0    0  0.64449003570E+01  0.93885699993E+00 -0.12392909737E+01  0.66297839479E+01  0.00000000000E+00 0. -1.
</event>
<event>
 7    1  0.2250716E-008  0.4614232E+02  0.7816164E-02  0.1320468E+00
        -11   -1    0    0    0    0  0.00000000000E+00  0.00000000000E+00  0.45593999997E+02  0.45594000000E+02  0.51100000000E-03 0.  1.
         11   -1    0    0    0    0 -0.00000000000E+00 -0.00000000000E+00 -0.45593999997E+02  0.45594000000E+02  0.51100000000E-03 0. -1.
    9900012    2    1    2    0    0  0.17447283887E+01 -0.38010024794E+01  0.44851105533E+02  0.46142319136E+02  0.10000012536E+02 0.  0.
         12    1    1    2    0    0 -0.17447283887E+01  0.38010024794E+01 -0.44851105533E+02  0.45045680864E+02  0.00000000000E+00 0. -1.
         11    1    3    3    0    0 -0.51262971785E-01 -0.54741916897E+01  0.21177385225E+02  0.21873523899E+02  0.51100000000E-03 0. -1.
        -11    1    3    3    0    0  0.13067650140E+01 -0.22290564315E-02  0.13569157123E+01  0.18838418941E+01  0.51100000000E-03 0.  1.
        -12    1    3    3    0    0  0.48922634648E+00  0.16754182667E+01  0.22316804596E+02  0.22384953343E+02  0.00000000000E+00 0.  1.
</event>
<event>
 7    1  0.2250716E-008  0.4614232E+02  0.7816164E-02  0.1320468E+00
        -11   -1    0    0    0    0  0.00000000000E+00  0.00000000000E+00  0.45593999997E+02  0.45594000000E+02  0.51100000000E-03 0. -1.
         11   -1    0    0    0    0 -0.00000000000E+00 -0.00000000000E+00 -0.45593999997E+02  0.45594000000E+02  0.51100000000E-03 0.  1.
    9900012    2    1    2    0    0 -0.35485091685E+02  0.16966930927E+02 -0.21955521945E+02  0.46142318511E+02  0.10000006836E+02 0.  0.
         12    1    1    2    0    0  0.35485091685E+02 -0.16966930927E+02  0.21955521945E+02  0.45045681489E+02  0.00000000000E+00 0. -1.
         11    1    3    3    0    0 -0.23035375131E+01  0.50010081008E+00 -0.17413393239E+01  0.29306396566E+01  0.51100000000E-03 0. -1.
        -11    1    3    3    0    0 -0.23942668077E+02  0.11255838361E+02 -0.18920701715E+02  0.32525962022E+02  0.51100000000E-03 0.  1.
         12    1    3    3    0    0 -0.92388860951E+01  0.52109917554E+01 -0.12934809063E+01  0.10685716832E+02  0.00000000000E+00 0. -1.
</event>
<event>
 7    1  0.2250716E-008  0.4614232E+02  0.7816164E-02  0.1320468E+00
        -11   -1    0    0    0    0  0.00000000000E+00  0.00000000000E+00  0.45593999997E+02  0.45594000000E+02  0.51100000000E-03 0.  1.
         11   -1    0    0    0    0 -0.00000000000E+00 -0.00000000000E+00 -0.45593999997E+02  0.45594000000E+02  0.51100000000E-03 0. -1.
    9900012    2    1    2    0    0  0.22940415556E+02  0.38622934573E+02 -0.33346397402E+01  0.46142316931E+02  0.99999924342E+01 0.  0.
         12    1    1    2    0    0 -0.22940415556E+02 -0.38622934573E+02  0.33346397402E+01  0.45045683069E+02  0.00000000000E+00 0. -1.
         11    1    3    3    0    0  0.33880454292E+01  0.38278698939E+01  0.81646107046E+00  0.51766831751E+01  0.51100000000E-03 0. -1.
        -11    1    3    3    0    0  0.76977935792E-01  0.37576674860E+01  0.11774085895E+01  0.39385634165E+01  0.51100000000E-03 0.  1.
         12    1    3    3    0    0  0.19475392191E+02  0.31037397193E+02 -0.53285094001E+01  0.37027070340E+02  0.00000000000E+00 0. -1.
</event>
<event>
 7    1  0.2250716E-008  0.4614232E+02  0.7816164E-02  0.1320468E+00
        -11   -1    0    0    0    0  0.00000000000E+00  0.00000000000E+00  0.45593999997E+02  0.45594000000E+02  0.51100000000E-03 0.  1.
         11   -1    0    0    0    0 -0.00000000000E+00 -0.00000000000E+00 -0.45593999997E+02  0.45594000000E+02  0.51100000000E-03 0. -1.
    9900012    2    1    2    0    0 -0.35358170355E+01  0.36533840584E+02  0.26113022402E+02  0.46142318199E+02  0.10000003996E+02 0.  0.
         12    1    1    2    0    0  0.35358170355E+01 -0.36533840584E+02 -0.26113022402E+02  0.45045681801E+02  0.00000000000E+00 0. -1.
         11    1    3    3    0    0  0.46256766019E+00  0.57812896505E+01  0.64961352408E+01  0.87084471745E+01  0.51100000000E-03 0. -1.
        -11    1    3    3    0    0  0.20495313927E+01  0.49917817035E+01  0.27785928589E+01  0.60695174472E+01  0.51100000000E-03 0.  1.
        -12    1    3    3    0    0 -0.60479160883E+01  0.25760769230E+02  0.16838294302E+02  0.31364353578E+02  0.00000000000E+00 0.  1.
</event>
<event>
 7    1  0.2250716E-008  0.4614232E+02  0.7816164E-02  0.1320468E+00
        -11   -1    0    0    0    0  0.00000000000E+00  0.00000000000E+00  0.45593999997E+02  0.45594000000E+02  0.51100000000E-03 0.  1.
         11   -1    0    0    0    0 -0.00000000000E+00 -0.00000000000E+00 -0.45593999997E+02  0.45594000000E+02  0.51100000000E-03 0. -1.
    9900012    2    1    2    0    0 -0.41588801612E+02 -0.57274797344E+01  0.16330370870E+02  0.46142318116E+02  0.10000003240E+02 0.  0.
         12    1    1    2    0    0  0.41588801612E+02  0.57274797344E+01 -0.16330370870E+02  0.45045681884E+02  0.00000000000E+00 0. -1.
         11    1    3    3    0    0 -0.90374704236E+01 -0.28913013226E+01  0.20471411374E+01  0.97070223083E+01  0.51100000000E-03 0. -1.
        -11    1    3    3    0    0 -0.12833582681E+02 -0.65316416019E+00  0.96313299770E+01  0.16058953429E+02  0.51100000000E-03 0.  1.
        -12    1    3    3    0    0 -0.19717748507E+02 -0.21830142516E+01  0.46518997557E+01  0.20376342379E+02  0.00000000000E+00 0.  1.
</event>
<event>
 7    1  0.2250716E-008  0.4614232E+02  0.7816164E-02  0.1320468E+00
        -11   -1    0    0    0    0  0.00000000000E+00  0.00000000000E+00  0.45593999997E+02  0.45594000000E+02  0.51100000000E-03 0.  1.
         11   -1    0    0    0    0 -0.00000000000E+00 -0.00000000000E+00 -0.45593999997E+02  0.45594000000E+02  0.51100000000E-03 0. -1.
    9900012    2    1    2    0    0 -0.24757318390E+02 -0.18383953990E+02  0.32836243175E+02  0.46142318253E+02  0.10000004489E+02 0.  0.
         12    1    1    2    0    0  0.24757318390E+02  0.18383953990E+02 -0.32836243175E+02  0.45045681747E+02  0.00000000000E+00 0. -1.
         11    1    3    3    0    0 -0.88215342214E+01 -0.64871715849E+01  0.68191445592E+01  0.12899751702E+02  0.51100000000E-03 0. -1.
        -11    1    3    3    0    0 -0.44254852856E+01 -0.61584511706E+01  0.12208390472E+02  0.14372064535E+02  0.51100000000E-03 0.  1.
        -12    1    3    3    0    0 -0.11510298883E+02 -0.57383312350E+01  0.13808708144E+02  0.18870502016E+02  0.00000000000E+00 0.  1.
</event>
<event>
 7    1  0.2250716E-008  0.4614232E+02  0.7816164E-02  0.1320468E+00
        -11   -1    0    0    0    0  0.00000000000E+00  0.00000000000E+00  0.45593999997E+02  0.45594000000E+02  0.51100000000E-03 0.  1.
         11   -1    0    0    0    0 -0.00000000000E+00 -0.00000000000E+00 -0.45593999997E+02  0.45594000000E+02  0.51100000000E-03 0. -1.
    9900012    2    1    2    0    0  0.16218755776E+02 -0.64606825507E+01  0.41524993264E+02  0.46142317371E+02  0.99999964467E+01 0.  0.
         12    1    1    2    0    0 -0.16218755776E+02  0.64606825507E+01 -0.41524993264E+02  0.45045682629E+02  0.00000000000E+00 0. -1.
         11    1    3    3    0    0  0.11306005354E+01 -0.28946823184E+01  0.91857066877E+01  0.96971465344E+01  0.51100000000E-03 0. -1.
        -11    1    3    3    0    0  0.56869890633E+01 -0.10300893456E+01  0.19455023047E+02  0.20295340616E+02  0.51100000000E-03 0.  1.
         12    1    3    3    0    0  0.94011661769E+01 -0.25359108866E+01  0.12884263528E+02  0.16149830221E+02  0.00000000000E+00 0. -1.
</event>
<event>
 7    1  0.2250716E-008  0.4614232E+02  0.7816164E-02  0.1320468E+00
        -11   -1    0    0    0    0  0.00000000000E+00  0.00000000000E+00  0.45593999997E+02  0.45594000000E+02  0.51100000000E-03 0. -1.
         11   -1    0    0    0    0 -0.00000000000E+00 -0.00000000000E+00 -0.45593999997E+02  0.45594000000E+02  0.51100000000E-03 0.  1.
    9900012    2    1    2    0    0 -0.13930431090E+02  0.81888252883E+00 -0.42829733820E+02  0.46142316766E+02  0.99999909233E+01 0.  0.
         12    1    1    2    0    0  0.13930431090E+02 -0.81888252883E+00  0.42829733820E+02  0.45045683234E+02  0.00000000000E+00 0. -1.
         11    1    3    3    0    0 -0.29211908842E+01  0.23328750641E+01 -0.68710708438E+01  0.78222296725E+01  0.51100000000E-03 0. -1.
        -11    1    3    3    0    0 -0.11852226640E+02 -0.63136808982E+00 -0.34001424410E+02  0.36013480312E+02  0.51100000000E-03 0.  1.
        -12    1    3    3    0    0  0.84298643419E+00 -0.88262444545E+00 -0.19572385663E+01  0.23066067816E+01  0.00000000000E+00 0.  1.
</event>
<event>
 7    1  0.2250716E-008  0.4614232E+02  0.7816164E-02  0.1320468E+00
        -11   -1    0    0    0    0  0.00000000000E+00  0.00000000000E+00  0.45593999997E+02  0.45594000000E+02  0.51100000000E-03 0. -1.
         11   -1    0    0    0    0 -0.00000000000E+00 -0.00000000000E+00 -0.45593999997E+02  0.45594000000E+02  0.51100000000E-03 0.  1.
    9900012    2    1    2    0    0 -0.12155045635E+02 -0.19331390757E+02 -0.38828670231E+02  0.46142318354E+02  0.10000005409E+02 0.  0.
         12    1    1    2    0    0  0.12155045635E+02  0.19331390757E+02  0.38828670231E+02  0.45045681646E+02  0.00000000000E+00 0. -1.
         11    1    3    3    0    0 -0.19470041210E+01 -0.90254842695E+01 -0.11702631077E+02  0.14906433703E+02  0.51100000000E-03 0. -1.
        -11    1    3    3    0    0 -0.43640137357E+01 -0.80855295746E+01 -0.17329153800E+02  0.19614279902E+02  0.51100000000E-03 0.  1.
         12    1    3    3    0    0 -0.58440277785E+01 -0.22203769129E+01 -0.97968853538E+01  0.11621604749E+02  0.00000000000E+00 0. -1.
</event>
<event>
 7    1  0.2250716E-008  0.4614232E+02  0.7816164E-02  0.1320468E+00
        -11   -1    0    0    0    0  0.00000000000E+00  0.00000000000E+00  0.45593999997E+02  0.45594000000E+02  0.51100000000E-03 0. -1.
         11   -1    0    0    0    0 -0.00000000000E+00 -0.00000000000E+00 -0.45593999997E+02  0.45594000000E+02  0.51100000000E-03 0.  1.
    9900012    2    1    2    0    0  0.32663214963E+02 -0.82306040811E+01 -0.29907941929E+02  0.46142318234E+02  0.10000004316E+02 0.  0.
         12    1    1    2    0    0 -0.32663214963E+02  0.82306040811E+01  0.29907941929E+02  0.45045681766E+02  0.00000000000E+00 0. -1.
         11    1    3    3    0    0  0.40868580197E+01 -0.21629131645E+01 -0.35587979501E+01  0.58348646035E+01  0.51100000000E-03 0.  1.
        -11    1    3    3    0    0  0.26645009043E+02 -0.29174799193E+01 -0.22961216125E+02  0.35294272088E+02  0.51100000000E-03 0. -1.
         12    1    3    3    0    0  0.19313479002E+01 -0.31502109973E+01 -0.33879278545E+01  0.50131815433E+01  0.00000000000E+00 0. -1.
</event>
<event>
 7    1  0.2250716E-008  0.4614232E+02  0.7816164E-02  0.1320468E+00
        -11   -1    0    0    0    0  0.00000000000E+00  0.00000000000E+00  0.45593999997E+02  0.45594000000E+02  0.51100000000E-03 0.  1.
         11   -1    0    0    0    0 -0.00000000000E+00 -0.00000000000E+00 -0.45593999997E+02  0.45594000000E+02  0.51100000000E-03 0. -1.
    9900012    2    1    2    0    0  0.33107589807E+02  0.10684362270E+02  0.28615475970E+02  0.46142316912E+02  0.99999922543E+01 0.  0.
         12    1    1    2    0    0 -0.33107589807E+02 -0.10684362270E+02 -0.28615475970E+02  0.45045683088E+02  0.00000000000E+00 0. -1.
         11    1    3    3    0    0  0.11546068537E+02  0.72495825484E+01  0.10363995276E+02  0.17125435589E+02  0.51100000000E-03 0. -1.
        -11    1    3    3    0    0  0.18048138402E+02  0.24673776938E+01  0.12104951244E+02  0.21871284767E+02  0.51100000000E-03 0.  1.
        -12    1    3    3    0    0  0.35133828674E+01  0.96740202749E+00  0.61465294497E+01  0.71455965554E+01  0.00000000000E+00 0.  1.
</event>
<event>
 7    1  0.2250716E-008  0.4614232E+02  0.7816164E-02  0.1320468E+00
        -11   -1    0    0    0    0  0.00000000000E+00  0.00000000000E+00  0.45593999997E+02  0.45594000000E+02  0.51100000000E-03 0. -1.
         11   -1    0    0    0    0 -0.00000000000E+00 -0.00000000000E+00 -0.45593999997E+02  0.45594000000E+02  0.51100000000E-03 0.  1.
    9900012    2    1    2    0    0 -0.60338497344E+01  0.12065787558E+02 -0.42978164035E+02  0.46142321452E+02  0.10000033661E+02 0.  0.
         12    1    1    2    0    0  0.60338497344E+01 -0.12065787558E+02  0.42978164035E+02  0.45045678548E+02  0.00000000000E+00 0. -1.
         11    1    3    3    0    0 -0.12569540877E+01  0.16548913441E+01 -0.24553690401E+01  0.32167431237E+01  0.51100000000E-03 0. -1.
        -11    1    3    3    0    0  0.84192649990E+00  0.62331404752E+01 -0.26697024198E+02  0.27427941623E+02  0.51100000000E-03 0.  1.
         12    1    3    3    0    0 -0.56188221466E+01  0.41777557384E+01 -0.13825770797E+02  0.15497636705E+02  0.00000000000E+00 0. -1.
</event>
<event>
 7    1  0.2250716E-008  0.4614232E+02  0.7816164E-02  0.1320468E+00
        -11   -1    0    0    0    0  0.00000000000E+00  0.00000000000E+00  0.45593999997E+02  0.45594000000E+02  0.51100000000E-03 0. -1.
         11   -1    0    0    0    0 -0.00000000000E+00 -0.00000000000E+00 -0.45593999997E+02  0.45594000000E+02  0.51100000000E-03 0.  1.
    9900012    2    1    2    0    0  0.31661689311E+02  0.29177826390E+02 -0.13240294547E+02  0.46142317381E+02  0.99999965366E+01 0.  0.
         12    1    1    2    0    0 -0.31661689311E+02 -0.29177826390E+02  0.13240294547E+02  0.45045682619E+02  0.00000000000E+00 0. -1.
         11    1    3    3    0    0  0.62868721606E+01  0.38804692386E+01 -0.42535376037E+00  0.74002519659E+01  0.51100000000E-03 0. -1.
        -11    1    3    3    0    0  0.13153306920E+01  0.84354426413E+00 -0.24487918757E+01  0.29048655161E+01  0.51100000000E-03 0.  1.
        -12    1    3    3    0    0  0.24059486458E+02  0.24453812887E+02 -0.10366148911E+02  0.35837199899E+02  0.00000000000E+00 0.  1.
</event>
<event>
 7    1  0.2250716E-008  0.4614232E+02  0.7816164E-02  0.1320468E+00
        -11   -1    0    0    0    0  0.00000000000E+00  0.00000000000E+00  0.45593999997E+02  0.45594000000E+02  0.51100000000E-03 0. -1.
         11   -1    0    0    0    0 -0.00000000000E+00 -0.00000000000E+00 -0.45593999997E+02  0.45594000000E+02  0.51100000000E-03 0.  1.
    9900012    2    1    2    0    0 -0.71136128847E+01  0.51833884559E+01 -0.44177397249E+02  0.46142318389E+02  0.10000005722E+02 0.  0.
         12    1    1    2    0    0  0.71136128847E+01 -0.51833884559E+01  0.44177397249E+02  0.45045681611E+02  0.00000000000E+00 0. -1.
         11    1    3    3    0    0 -0.25163621267E+01  0.83579733147E+00 -0.71344954682E+01  0.76112851332E+01  0.51100000000E-03 0. -1.
        -11    1    3    3    0    0 -0.20918309612E+01  0.58919144032E+01 -0.32650701745E+02  0.33243927819E+02  0.51100000000E-03 0.  1.
        -12    1    3    3    0    0 -0.25054197967E+01 -0.15443232788E+01 -0.43922000353E+01  0.52871054366E+01  0.00000000000E+00 0.  1.
</event>
<event>
 7    1  0.2250716E-008  0.4614232E+02  0.7816164E-02  0.1320468E+00
        -11   -1    0    0    0    0  0.00000000000E+00  0.00000000000E+00  0.45593999997E+02  0.45594000000E+02  0.51100000000E-03 0.  1.
         11   -1    0    0    0    0 -0.00000000000E+00 -0.00000000000E+00 -0.45593999997E+02  0.45594000000E+02  0.51100000000E-03 0. -1.
    9900012    2    1    2    0    0  0.43481971965E+02  0.52072574827E+01  0.10550645209E+02  0.46142317290E+02  0.99999957025E+01 0.  0.
         12    1    1    2    0    0 -0.43481971965E+02 -0.52072574827E+01 -0.10550645209E+02  0.45045682710E+02  0.00000000000E+00 0. -1.
         11    1    3    3    0    0  0.14266720311E+02  0.76933231893E+00  0.12716117670E+01  0.14343924756E+02  0.51100000000E-03 0. -1.
        -11    1    3    3    0    0  0.21964526791E+02  0.18403659951E+00  0.59513370131E+01  0.22757256406E+02  0.51100000000E-03 0.  1.
         12    1    3    3    0    0  0.72507248630E+01  0.42538885643E+01  0.33276964292E+01  0.90411361278E+01  0.00000000000E+00 0. -1.
</event>
<event>
 7    1  0.2250716E-008  0.4614231E+02  0.7816164E-02  0.1320468E+00
        -11   -1    0    0    0    0  0.00000000000E+00  0.00000000000E+00  0.45593999997E+02  0.45594000000E+02  0.51100000000E-03 0. -1.
         11   -1    0    0    0    0 -0.00000000000E+00 -0.00000000000E+00 -0.45593999997E+02  0.45594000000E+02  0.51100000000E-03 0.  1.
    9900012    2    1    2    0    0 -0.37232822847E+02 -0.20655482380E+02 -0.14703127751E+02  0.46142311914E+02  0.99999466791E+01 0.  0.
         12    1    1    2    0    0  0.37232822847E+02  0.20655482380E+02  0.14703127751E+02  0.45045688086E+02  0.00000000000E+00 0. -1.
         11    1    3    3    0    0 -0.94686095039E+01 -0.26033101994E+01 -0.15885464491E+01  0.99476263507E+01  0.51100000000E-03 0.  1.
        -11    1    3    3    0    0 -0.36352266572E+01 -0.49198032060E+01 -0.11188368097E+01  0.62186117826E+01  0.51100000000E-03 0. -1.
        -12    1    3    3    0    0 -0.24128986686E+02 -0.13132368974E+02 -0.11995744492E+02  0.29976073780E+02  0.00000000000E+00 0.  1.
</event>
<event>
 7    1  0.2250716E-008  0.4614232E+02  0.7816164E-02  0.1320468E+00
        -11   -1    0    0    0    0  0.00000000000E+00  0.00000000000E+00  0.45593999997E+02  0.45594000000E+02  0.51100000000E-03 0. -1.
         11   -1    0    0    0    0 -0.00000000000E+00 -0.00000000000E+00 -0.45593999997E+02  0.45594000000E+02  0.51100000000E-03 0.  1.
    9900012    2    1    2    0    0  0.30895933907E+02  0.82799901366E+01 -0.31717447472E+02  0.46142318267E+02  0.10000004614E+02 0.  0.
         12    1    1    2    0    0 -0.30895933907E+02 -0.82799901366E+01  0.31717447472E+02  0.45045681733E+02  0.00000000000E+00 0. -1.
         11    1    3    3    0    0 -0.94362225492E-01 -0.81817744176E+00 -0.93986780267E+00  0.12496680773E+01  0.51100000000E-03 0. -1.
        -11    1    3    3    0    0  0.19034736491E+02  0.33815184664E+01 -0.19940522940E+02  0.27773734279E+02  0.51100000000E-03 0.  1.
        -12    1    3    3    0    0  0.11955559641E+02  0.57166491120E+01 -0.10837056730E+02  0.17118915911E+02  0.00000000000E+00 0.  1.
</event>
<event>
 7    1  0.2250716E-008  0.4614232E+02  0.7816164E-02  0.1320468E+00
        -11   -1    0    0    0    0  0.00000000000E+00  0.00000000000E+00  0.45593999997E+02  0.45594000000E+02  0.51100000000E-03 0.  1.
         11   -1    0    0    0    0 -0.00000000000E+00 -0.00000000000E+00 -0.45593999997E+02  0.45594000000E+02  0.51100000000E-03 0. -1.
    9900012    2    1    2    0    0 -0.30751629978E+02  0.32736585138E+02 -0.34302666931E+01  0.46142317828E+02  0.10000000607E+02 0.  0.
         12    1    1    2    0    0  0.30751629978E+02 -0.32736585138E+02  0.34302666931E+01  0.45045682172E+02  0.00000000000E+00 0. -1.
         11    1    3    3    0    0 -0.16731447063E+02  0.21155091566E+02 -0.31610105059E+01  0.27156421113E+02  0.51100000000E-03 0.  1.
        -11    1    3    3    0    0 -0.26300914209E+01  0.26066152438E+01 -0.22761291920E+01  0.43465605105E+01  0.51100000000E-03 0. -1.
        -12    1    3    3    0    0 -0.11390091494E+02  0.89748783286E+01  0.20068730049E+01  0.14639336205E+02  0.00000000000E+00 0.  1.
</event>
<event>
 7    1  0.2250716E-008  0.4614232E+02  0.7816164E-02  0.1320468E+00
        -11   -1    0    0    0    0  0.00000000000E+00  0.00000000000E+00  0.45593999997E+02  0.45594000000E+02  0.51100000000E-03 0. -1.
         11   -1    0    0    0    0 -0.00000000000E+00 -0.00000000000E+00 -0.45593999997E+02  0.45594000000E+02  0.51100000000E-03 0.  1.
    9900012    2    1    2    0    0  0.32639634242E+02 -0.29454138080E+02 -0.98092580863E+01  0.46142317436E+02  0.99999970350E+01 0.  0.
         12    1    1    2    0    0 -0.32639634242E+02  0.29454138080E+02  0.98092580863E+01  0.45045682564E+02  0.00000000000E+00 0. -1.
         11    1    3    3    0    0  0.43418543964E+01 -0.97081614997E+00 -0.49028689664E+00  0.44759987823E+01  0.51100000000E-03 0. -1.
        -11    1    3    3    0    0  0.76943229501E+01 -0.11592468160E+02 -0.21708583574E+01  0.14081922808E+02  0.51100000000E-03 0.  1.
         12    1    3    3    0    0  0.20603456895E+02 -0.16890853769E+02 -0.71481128323E+01  0.27584395845E+02  0.00000000000E+00 0. -1.
</event>
<event>
 7    1  0.2250716E-008  0.4614232E+02  0.7816164E-02  0.1320468E+00
        -11   -1    0    0    0    0  0.00000000000E+00  0.00000000000E+00  0.45593999997E+02  0.45594000000E+02  0.51100000000E-03 0.  1.
         11   -1    0    0    0    0 -0.00000000000E+00 -0.00000000000E+00 -0.45593999997E+02  0.45594000000E+02  0.51100000000E-03 0. -1.
    9900012    2    1    2    0    0 -0.43017721270E+02 -0.18767078619E+01  0.13231289364E+02  0.46142318810E+02  0.10000009560E+02 0.  0.
         12    1    1    2    0    0  0.43017721270E+02  0.18767078619E+01 -0.13231289364E+02  0.45045681190E+02  0.00000000000E+00 0. -1.
         11    1    3    3    0    0 -0.13473555626E+02 -0.67262731457E+00  0.55069491314E+00  0.13501570052E+02  0.51100000000E-03 0. -1.
        -11    1    3    3    0    0 -0.23516600244E+02  0.85904979180E+00  0.84984643797E+01  0.25019839141E+02  0.51100000000E-03 0.  1.
        -12    1    3    3    0    0 -0.60275654001E+01 -0.20631303391E+01  0.41821300714E+01  0.76209096165E+01  0.00000000000E+00 0.  1.
</event>
<event>
 7    1  0.2250716E-008  0.4614232E+02  0.7816164E-02  0.1320468E+00
        -11   -1    0    0    0    0  0.00000000000E+00  0.00000000000E+00  0.45593999997E+02  0.45594000000E+02  0.51100000000E-03 0.  1.
         11   -1    0    0    0    0 -0.00000000000E+00 -0.00000000000E+00 -0.45593999997E+02  0.45594000000E+02  0.51100000000E-03 0. -1.
    9900012    2    1    2    0    0  0.36005433008E+02  0.20655657536E+02  0.17494745007E+02  0.46142317663E+02  0.99999991073E+01 0.  0.
         12    1    1    2    0    0 -0.36005433008E+02 -0.20655657536E+02 -0.17494745007E+02  0.45045682337E+02  0.00000000000E+00 0. -1.
         11    1    3    3    0    0  0.18446680938E+02  0.11301864640E+02  0.12854036745E+02  0.25164229432E+02  0.51100000000E-03 0. -1.
        -11    1    3    3    0    0  0.13465689221E+02  0.78858222898E+01  0.54998649620E+01  0.16545679021E+02  0.51100000000E-03 0.  1.
         12    1    3    3    0    0  0.40930628481E+01  0.14679706062E+01 -0.85915669983E+00  0.44324092110E+01  0.00000000000E+00 0. -1.
</event>
<event>
 7    1  0.2250716E-008  0.4614231E+02  0.7816164E-02  0.1320468E+00
        -11   -1    0    0    0    0  0.00000000000E+00  0.00000000000E+00  0.45593999997E+02  0.45594000000E+02  0.51100000000E-03 0.  1.
         11   -1    0    0    0    0 -0.00000000000E+00 -0.00000000000E+00 -0.45593999997E+02  0.45594000000E+02  0.51100000000E-03 0. -1.
    9900012    2    1    2    0    0 -0.14166426489E+02 -0.13524876844E+02  0.40564813650E+02  0.46142311642E+02  0.99999442040E+01 0.  0.
         12    1    1    2    0    0  0.14166426489E+02  0.13524876844E+02 -0.40564813650E+02  0.45045688358E+02  0.00000000000E+00 0. -1.
         11    1    3    3    0    0 -0.98872504721E+00  0.44473860758E+00  0.26650985730E+01  0.28771722773E+01  0.51100000000E-03 0. -1.
        -11    1    3    3    0    0 -0.56822587774E+01 -0.94845305942E+01  0.27766354580E+02  0.29886699924E+02  0.51100000000E-03 0.  1.
        -12    1    3    3    0    0 -0.74954426643E+01 -0.44850848575E+01  0.10133360497E+02  0.13378439441E+02  0.00000000000E+00 0.  1.
</event>
<event>
 7    1  0.2250716E-008  0.4614232E+02  0.7816164E-02  0.1320468E+00
        -11   -1    0    0    0    0  0.00000000000E+00  0.00000000000E+00  0.45593999997E+02  0.45594000000E+02  0.51100000000E-03 0.  1.
         11   -1    0    0    0    0 -0.00000000000E+00 -0.00000000000E+00 -0.45593999997E+02  0.45594000000E+02  0.51100000000E-03 0. -1.
    9900012    2    1    2    0    0  0.23233010488E+02  0.12647756884E+02  0.36460592512E+02  0.46142319443E+02  0.10000015334E+02 0.  0.
         12    1    1    2    0    0 -0.23233010488E+02 -0.12647756884E+02 -0.36460592512E+02  0.45045680557E+02  0.00000000000E+00 0. -1.
         11    1    3    3    0    0  0.62972074915E+01  0.39509723793E+00  0.64572144796E+01  0.90280974250E+01  0.51100000000E-03 0. -1.
        -11    1    3    3    0    0  0.71951243556E+01  0.15549859784E+01  0.10821150251E+02  0.13087592938E+02  0.51100000000E-03 0.  1.
         12    1    3    3    0    0  0.97406786408E+01  0.10697673668E+02  0.19182227782E+02  0.24026629080E+02  0.00000000000E+00 0. -1.
</event>
<event>
 7    1  0.2250716E-008  0.4614232E+02  0.7816164E-02  0.1320468E+00
        -11   -1    0    0    0    0  0.00000000000E+00  0.00000000000E+00  0.45593999997E+02  0.45594000000E+02  0.51100000000E-03 0.  1.
         11   -1    0    0    0    0 -0.00000000000E+00 -0.00000000000E+00 -0.45593999997E+02  0.45594000000E+02  0.51100000000E-03 0. -1.
    9900012    2    1    2    0    0  0.15093910648E+01 -0.14841559276E+02  0.42503688399E+02  0.46142315738E+02  0.99999815549E+01 0.  0.
         12    1    1    2    0    0 -0.15093910648E+01  0.14841559276E+02 -0.42503688399E+02  0.45045684262E+02  0.00000000000E+00 0. -1.
         11    1    3    3    0    0  0.40455735219E+01 -0.60031433080E+01  0.11995598371E+02  0.14010666481E+02  0.51100000000E-03 0. -1.
        -11    1    3    3    0    0 -0.17430604008E+00 -0.67611097913E+01  0.17842972408E+02  0.19081788512E+02  0.51100000000E-03 0.  1.
         12    1    3    3    0    0 -0.23618764170E+01 -0.20773061764E+01  0.12665117619E+02  0.13049860745E+02  0.00000000000E+00 0. -1.
</event>
<event>
 7    1  0.2250716E-008  0.4614232E+02  0.7816164E-02  0.1320468E+00
        -11   -1    0    0    0    0  0.00000000000E+00  0.00000000000E+00  0.45593999997E+02  0.45594000000E+02  0.51100000000E-03 0.  1.
         11   -1    0    0    0    0 -0.00000000000E+00 -0.00000000000E+00 -0.45593999997E+02  0.45594000000E+02  0.51100000000E-03 0. -1.
    9900012    2    1    2    0    0 -0.39140833210E+02  0.13322019072E+02  0.17878266611E+02  0.46142318370E+02  0.10000005548E+02 0.  0.
         12    1    1    2    0    0  0.39140833210E+02 -0.13322019072E+02 -0.17878266611E+02  0.45045681630E+02  0.00000000000E+00 0. -1.
         11    1    3    3    0    0 -0.16229403386E+02  0.35109459792E+01  0.10765149963E+02  0.19789106345E+02  0.51100000000E-03 0. -1.
        -11    1    3    3    0    0 -0.71726023386E+01  0.25776114100E+01 -0.16764667668E-01  0.76217180612E+01  0.51100000000E-03 0.  1.
        -12    1    3    3    0    0 -0.15738827485E+02  0.72334616832E+01  0.71298813159E+01  0.18731493964E+02  0.00000000000E+00 0.  1.
</event>
<event>
 7    1  0.2250716E-008  0.4614232E+02  0.7816164E-02  0.1320468E+00
        -11   -1    0    0    0    0  0.00000000000E+00  0.00000000000E+00  0.45593999997E+02  0.45594000000E+02  0.51100000000E-03 0.  1.
         11   -1    0    0    0    0 -0.00000000000E+00 -0.00000000000E+00 -0.45593999997E+02  0.45594000000E+02  0.51100000000E-03 0. -1.
    9900012    2    1    2    0    0  0.67896017351E+01  0.43803407733E+02 -0.80172433121E+01  0.46142318619E+02  0.10000007819E+02 0.  0.
         12    1    1    2    0    0 -0.67896017351E+01 -0.43803407733E+02  0.80172433121E+01  0.45045681381E+02  0.00000000000E+00 0. -1.
         11    1    3    3    0    0  0.21543284800E+01  0.12334873170E+02 -0.38586517744E+01  0.13102649392E+02  0.51100000000E-03 0. -1.
        -11    1    3    3    0    0  0.43880206497E+01  0.30289195376E+02 -0.21290336648E+01  0.30679355703E+02  0.51100000000E-03 0.  1.
        -12    1    3    3    0    0  0.24725260531E+00  0.11793391880E+01 -0.20295578728E+01  0.23603135237E+01  0.00000000000E+00 0.  1.
</event>
<event>
 7    1  0.2250716E-008  0.4614232E+02  0.7816164E-02  0.1320468E+00
        -11   -1    0    0    0    0  0.00000000000E+00  0.00000000000E+00  0.45593999997E+02  0.45594000000E+02  0.51100000000E-03 0.  1.
         11   -1    0    0    0    0 -0.00000000000E+00 -0.00000000000E+00 -0.45593999997E+02  0.45594000000E+02  0.51100000000E-03 0. -1.
    9900012    2    1    2    0    0 -0.27491139900E+02  0.16622088549E+01  0.35645306298E+02  0.46142316829E+02  0.99999914999E+01 0.  0.
         12    1    1    2    0    0  0.27491139900E+02 -0.16622088549E+01 -0.35645306298E+02  0.45045683171E+02  0.00000000000E+00 0. -1.
         11    1    3    3    0    0 -0.22286001956E+02 -0.23466973832E+00  0.24526429792E+02  0.33140107297E+02  0.51100000000E-03 0. -1.
        -11    1    3    3    0    0 -0.49429576797E+01  0.10362194679E+01  0.61757605973E+01  0.79778819636E+01  0.51100000000E-03 0.  1.
         12    1    3    3    0    0 -0.26218026355E+00  0.86065912531E+00  0.49431159090E+01  0.50243275680E+01  0.00000000000E+00 0. -1.
</event>
<event>
 7    1  0.2250716E-008  0.4614232E+02  0.7816164E-02  0.1320468E+00
        -11   -1    0    0    0    0  0.00000000000E+00  0.00000000000E+00  0.45593999997E+02  0.45594000000E+02  0.51100000000E-03 0.  1.
         11   -1    0    0    0    0 -0.00000000000E+00 -0.00000000000E+00 -0.45593999997E+02  0.45594000000E+02  0.51100000000E-03 0. -1.
    9900012    2    1    2    0    0 -0.34313081971E+02 -0.28439791488E+02  0.65501332256E+01  0.46142316749E+02  0.99999907744E+01 0.  0.
         12    1    1    2    0    0  0.34313081971E+02  0.28439791488E+02 -0.65501332256E+01  0.45045683251E+02  0.00000000000E+00 0. -1.
         11    1    3    3    0    0 -0.62926921771E+01 -0.52289887578E+01 -0.73001606555E+00  0.82142085426E+01  0.51100000000E-03 0. -1.
        -11    1    3    3    0    0 -0.15468564833E+02 -0.15484901682E+02  0.10095721540E+01  0.21910680370E+02  0.51100000000E-03 0.  1.
        -12    1    3    3    0    0 -0.12551824961E+02 -0.77259010478E+01  0.62705771372E+01  0.16017427836E+02  0.00000000000E+00 0.  1.
</event>
<event>
 7    1  0.2250716E-008  0.4614232E+02  0.7816164E-02  0.1320468E+00
        -11   -1    0    0    0    0  0.00000000000E+00  0.00000000000E+00  0.45593999997E+02  0.45594000000E+02  0.51100000000E-03 0.  1.
         11   -1    0    0    0    0 -0.00000000000E+00 -0.00000000000E+00 -0.45593999997E+02  0.45594000000E+02  0.51100000000E-03 0. -1.
    9900012    2    1    2    0    0 -0.12523233315E+02  0.34800573279E+00  0.43268478146E+02  0.46142315615E+02  0.99999804327E+01 0.  0.
         12    1    1    2    0    0  0.12523233315E+02 -0.34800573279E+00 -0.43268478146E+02  0.45045684385E+02  0.00000000000E+00 0. -1.
         11    1    3    3    0    0 -0.29994089495E+01 -0.37971165805E+00  0.33580642180E+01  0.45185429668E+01  0.51100000000E-03 0. -1.
        -11    1    3    3    0    0 -0.65144504427E+01  0.33494253171E+01  0.19580993312E+02  0.20906267335E+02  0.51100000000E-03 0.  1.
        -12    1    3    3    0    0 -0.30093739224E+01 -0.26217079262E+01  0.20329420616E+02  0.20717505314E+02  0.00000000000E+00 0.  1.
</event>
<event>
 7    1  0.2310774E-008  0.4614232E+02  0.7816164E-02  0.1320468E+00
        -11   -1    0    0    0    0  0.00000000000E+00  0.00000000000E+00  0.45593999997E+02  0.45594000000E+02  0.51100000000E-03 0. -1.
         11   -1    0    0    0    0 -0.00000000000E+00 -0.00000000000E+00 -0.45593999997E+02  0.45594000000E+02  0.51100000000E-03 0.  1.
    9900012    2    1    2    0    0  0.40567803407E+01  0.16554926269E+02 -0.41696408592E+02  0.46142317188E+02  0.99999947736E+01 0.  0.
         12    1    1    2    0    0 -0.40567803407E+01 -0.16554926269E+02  0.41696408592E+02  0.45045682812E+02  0.00000000000E+00 0. -1.
         11    1    3    3    0    0  0.12335730870E+01  0.18017159017E+01 -0.20084582647E+01  0.29667806817E+01  0.51100000000E-03 0. -1.
        -11    1    3    3    0    0  0.46601344620E+01  0.52500256628E+01 -0.12801740478E+02  0.14600143225E+02  0.51100000000E-03 0.  1.
        -12    1    3    3    0    0 -0.18369272083E+01  0.95031847049E+01 -0.26886209850E+02  0.28575393281E+02  0.00000000000E+00 0.  1.
</event>
<event>
 7    1  0.2250716E-008  0.4614232E+02  0.7816164E-02  0.1320468E+00
        -11   -1    0    0    0    0  0.00000000000E+00  0.00000000000E+00  0.45593999997E+02  0.45594000000E+02  0.51100000000E-03 0.  1.
         11   -1    0    0    0    0 -0.00000000000E+00 -0.00000000000E+00 -0.45593999997E+02  0.45594000000E+02  0.51100000000E-03 0. -1.
    9900012    2    1    2    0    0 -0.36534655058E+01 -0.32158520903E+02  0.31330419817E+02  0.46142317824E+02  0.10000000570E+02 0.  0.
         12    1    1    2    0    0  0.36534655058E+01  0.32158520903E+02 -0.31330419817E+02  0.45045682176E+02  0.00000000000E+00 0. -1.
         11    1    3    3    0    0 -0.20500985328E+01 -0.95227085319E+01  0.78791753975E+01  0.12528618718E+02  0.51100000000E-03 0. -1.
        -11    1    3    3    0    0  0.26153237298E+01 -0.30781377983E+01  0.46383840423E+01  0.61505656082E+01  0.51100000000E-03 0.  1.
        -12    1    3    3    0    0 -0.42186907028E+01 -0.19557674573E+02  0.18812860377E+02  0.27463133497E+02  0.00000000000E+00 0.  1.
</event>
<event>
 7    1  0.2250716E-008  0.4614232E+02  0.7816164E-02  0.1320468E+00
        -11   -1    0    0    0    0  0.00000000000E+00  0.00000000000E+00  0.45593999997E+02  0.45594000000E+02  0.51100000000E-03 0. -1.
         11   -1    0    0    0    0 -0.00000000000E+00 -0.00000000000E+00 -0.45593999997E+02  0.45594000000E+02  0.51100000000E-03 0.  1.
    9900012    2    1    2    0    0 -0.22455355226E+02  0.39521285531E+01 -0.38849082408E+02  0.46142317606E+02  0.99999985820E+01 0.  0.
         12    1    1    2    0    0  0.22455355226E+02 -0.39521285531E+01  0.38849082408E+02  0.45045682394E+02  0.00000000000E+00 0. -1.
         11    1    3    3    0    0 -0.95807429766E+01  0.55542188068E+01 -0.18098190688E+02  0.21217551437E+02  0.51100000000E-03 0. -1.
        -11    1    3    3    0    0 -0.86014906280E+01  0.10896529988E+01 -0.14425831387E+02  0.16830852508E+02  0.51100000000E-03 0.  1.
        -12    1    3    3    0    0 -0.42731216213E+01 -0.26917432525E+01 -0.63250603331E+01  0.80939136605E+01  0.00000000000E+00 0.  1.
</event>
<event>
 7    1  0.2250716E-008  0.4614233E+02  0.7816164E-02  0.1320468E+00
        -11   -1    0    0    0    0  0.00000000000E+00  0.00000000000E+00  0.45593999997E+02  0.45594000000E+02  0.51100000000E-03 0. -1.
         11   -1    0    0    0    0 -0.00000000000E+00 -0.00000000000E+00 -0.45593999997E+02  0.45594000000E+02  0.51100000000E-03 0.  1.
    9900012    2    1    2    0    0  0.24979204625E+02  0.14053749299E+02 -0.34751171153E+02  0.46142329514E+02  0.10000107169E+02 0.  0.
         12    1    1    2    0    0 -0.24979204625E+02 -0.14053749299E+02  0.34751171153E+02  0.45045670486E+02  0.00000000000E+00 0. -1.
         11    1    3    3    0    0  0.15250509965E+02  0.54415761027E+01 -0.18605050855E+02  0.24664483012E+02  0.51100000000E-03 0. -1.
        -11    1    3    3    0    0  0.97007706435E+01  0.87277290225E+01 -0.13311242028E+02  0.18640476645E+02  0.51100000000E-03 0.  1.
         12    1    3    3    0    0  0.27924017034E-01 -0.11555582595E+00 -0.28348782696E+01  0.28373698565E+01  0.00000000000E+00 0. -1.
</event>
<event>
 7    1  0.2250716E-008  0.4614232E+02  0.7816164E-02  0.1320468E+00
        -11   -1    0    0    0    0  0.00000000000E+00  0.00000000000E+00  0.45593999997E+02  0.45594000000E+02  0.51100000000E-03 0.  1.
         11   -1    0    0    0    0 -0.00000000000E+00 -0.00000000000E+00 -0.45593999997E+02  0.45594000000E+02  0.51100000000E-03 0. -1.
    9900012    2    1    2    0    0 -0.13748670150E+02  0.19553276230E+02  0.38180583557E+02  0.46142317599E+02  0.99999985247E+01 0.  0.
         12    1    1    2    0    0  0.13748670150E+02 -0.19553276230E+02 -0.38180583557E+02  0.45045682401E+02  0.00000000000E+00 0. -1.
         11    1    3    3    0    0 -0.30083016258E+01  0.76615837786E+00  0.80509095674E+01  0.86286744321E+01  0.51100000000E-03 0. -1.
        -11    1    3    3    0    0 -0.49223748472E-01  0.40717666576E+01  0.42984337889E+01  0.59209999147E+01  0.51100000000E-03 0.  1.
        -12    1    3    3    0    0 -0.10691144776E+02  0.14715351195E+02  0.25831240200E+02  0.31592643253E+02  0.00000000000E+00 0.  1.
</event>
<event>
 7    1  0.2250716E-008  0.4614232E+02  0.7816164E-02  0.1320468E+00
        -11   -1    0    0    0    0  0.00000000000E+00  0.00000000000E+00  0.45593999997E+02  0.45594000000E+02  0.51100000000E-03 0. -1.
         11   -1    0    0    0    0 -0.00000000000E+00 -0.00000000000E+00 -0.45593999997E+02  0.45594000000E+02  0.51100000000E-03 0.  1.
    9900012    2    1    2    0    0  0.25336742219E+02  0.34123427504E+02 -0.14924967681E+02  0.46142317952E+02  0.10000001742E+02 0.  0.
         12    1    1    2    0    0 -0.25336742219E+02 -0.34123427504E+02  0.14924967681E+02  0.45045682048E+02  0.00000000000E+00 0. -1.
         11    1    3    3    0    0  0.85528097405E+01  0.14909073172E+02 -0.24319049289E+01  0.17359296621E+02  0.51100000000E-03 0. -1.
        -11    1    3    3    0    0  0.99690095309E+01  0.14029221281E+02 -0.68276372837E+01  0.18515313444E+02  0.51100000000E-03 0.  1.
        -12    1    3    3    0    0  0.68149229471E+01  0.51851330507E+01 -0.56654254689E+01  0.10267707888E+02  0.00000000000E+00 0.  1.
</event>
<event>
 7    1  0.2250716E-008  0.4614232E+02  0.7816164E-02  0.1320468E+00
        -11   -1    0    0    0    0  0.00000000000E+00  0.00000000000E+00  0.45593999997E+02  0.45594000000E+02  0.51100000000E-03 0.  1.
         11   -1    0    0    0    0 -0.00000000000E+00 -0.00000000000E+00 -0.45593999997E+02  0.45594000000E+02  0.51100000000E-03 0. -1.
    9900012    2    1    2    0    0  0.11828166254E+02  0.43248875019E+02  0.43292952293E+01  0.46142317581E+02  0.99999983595E+01 0.  0.
         12    1    1    2    0    0 -0.11828166254E+02 -0.43248875019E+02 -0.43292952293E+01  0.45045682419E+02  0.00000000000E+00 0. -1.
         11    1    3    3    0    0  0.85722932215E+01  0.16572296762E+02 -0.59219499503E-01  0.18658208335E+02  0.51100000000E-03 0. -1.
        -11    1    3    3    0    0  0.22027313075E+01  0.91877999345E+01  0.29806917429E+01  0.99071800416E+01  0.51100000000E-03 0.  1.
        -12    1    3    3    0    0  0.10531417255E+01  0.17488778323E+02  0.14078229859E+01  0.17576929205E+02  0.00000000000E+00 0.  1.
</event>
<event>
 7    1  0.2250716E-008  0.4614232E+02  0.7816164E-02  0.1320468E+00
        -11   -1    0    0    0    0  0.00000000000E+00  0.00000000000E+00  0.45593999997E+02  0.45594000000E+02  0.51100000000E-03 0.  1.
         11   -1    0    0    0    0 -0.00000000000E+00 -0.00000000000E+00 -0.45593999997E+02  0.45594000000E+02  0.51100000000E-03 0. -1.
    9900012    2    1    2    0    0  0.24748239627E+02 -0.56414815691E+01  0.37213060051E+02  0.46142317440E+02  0.99999970761E+01 0.  0.
         12    1    1    2    0    0 -0.24748239627E+02  0.56414815691E+01 -0.37213060051E+02  0.45045682560E+02  0.00000000000E+00 0. -1.
         11    1    3    3    0    0  0.20164423887E+01 -0.14097160194E+01  0.99188759620E+00  0.26527684457E+01  0.51100000000E-03 0. -1.
        -11    1    3    3    0    0  0.10087474009E+01 -0.15829814483E+01  0.51815459273E+01  0.55110634221E+01  0.51100000000E-03 0.  1.
        -12    1    3    3    0    0  0.21723049837E+02 -0.26487841014E+01  0.31039626527E+02  0.37978485573E+02  0.00000000000E+00 0.  1.
</event>
<event>
 7    1  0.2250716E-008  0.4614232E+02  0.7816164E-02  0.1320468E+00
        -11   -1    0    0    0    0  0.00000000000E+00  0.00000000000E+00  0.45593999997E+02  0.45594000000E+02  0.51100000000E-03 0.  1.
         11   -1    0    0    0    0 -0.00000000000E+00 -0.00000000000E+00 -0.45593999997E+02  0.45594000000E+02  0.51100000000E-03 0. -1.
    9900012    2    1    2    0    0  0.25447979738E+02  0.45181616473E+01  0.36893088416E+02  0.46142318406E+02  0.10000005877E+02 0.  0.
         12    1    1    2    0    0 -0.25447979738E+02 -0.45181616473E+01 -0.36893088416E+02  0.45045681594E+02  0.00000000000E+00 0. -1.
         11    1    3    3    0    0  0.25161716198E+01  0.35916877773E+01  0.41855696765E+01  0.60622054145E+01  0.51100000000E-03 0. -1.
        -11    1    3    3    0    0  0.15542298093E+02  0.16597267856E+01  0.20303862758E+02  0.25623515882E+02  0.51100000000E-03 0.  1.
        -12    1    3    3    0    0  0.73895100250E+01 -0.73325291556E+00  0.12403655982E+02  0.14456597109E+02  0.00000000000E+00 0.  1.
</event>
<event>
 7    1  0.2250716E-008  0.4614231E+02  0.7816164E-02  0.1320468E+00
        -11   -1    0    0    0    0  0.00000000000E+00  0.00000000000E+00  0.45593999997E+02  0.45594000000E+02  0.51100000000E-03 0. -1.
         11   -1    0    0    0    0 -0.00000000000E+00 -0.00000000000E+00 -0.45593999997E+02  0.45594000000E+02  0.51100000000E-03 0.  1.
    9900012    2    1    2    0    0  0.36438659445E+02  0.23929534628E+02 -0.11345309303E+02  0.46142305723E+02  0.99998902286E+01 0.  0.
         12    1    1    2    0    0 -0.36438659445E+02 -0.23929534628E+02  0.11345309303E+02  0.45045694277E+02  0.00000000000E+00 0. -1.
         11    1    3    3    0    0  0.11373431321E+02  0.63336029368E+01  0.10277753040E+01  0.13058552313E+02  0.51100000000E-03 0. -1.
        -11    1    3    3    0    0  0.17579085837E+02  0.13375031456E+02 -0.89234833590E+01  0.23823187881E+02  0.51100000000E-03 0.  1.
        -12    1    3    3    0    0  0.74861422871E+01  0.42209002352E+01 -0.34496012481E+01  0.92605655286E+01  0.00000000000E+00 0.  1.
</event>
<event>
 7    1  0.2250716E-008  0.4614231E+02  0.7816164E-02  0.1320468E+00
        -11   -1    0    0    0    0  0.00000000000E+00  0.00000000000E+00  0.45593999997E+02  0.45594000000E+02  0.51100000000E-03 0. -1.
         11   -1    0    0    0    0 -0.00000000000E+00 -0.00000000000E+00 -0.45593999997E+02  0.45594000000E+02  0.51100000000E-03 0.  1.
    9900012    2    1    2    0    0  0.13746218519E+00 -0.25519870586E+02 -0.37119150770E+02  0.46142311589E+02  0.99999437141E+01 0.  0.
         12    1    1    2    0    0 -0.13746218519E+00  0.25519870586E+02  0.37119150770E+02  0.45045688411E+02  0.00000000000E+00 0. -1.
         11    1    3    3    0    0  0.26379891180E+01 -0.83692979126E+01 -0.77025567041E+01  0.11676194336E+02  0.51100000000E-03 0. -1.
        -11    1    3    3    0    0  0.13934966891E+01 -0.48514140334E+01 -0.77154253281E+01  0.92198611378E+01  0.51100000000E-03 0.  1.
        -12    1    3    3    0    0 -0.38940236219E+01 -0.12299158640E+02 -0.21701168738E+02  0.25246256115E+02  0.00000000000E+00 0.  1.
</event>
<event>
 7    1  0.2250716E-008  0.4614232E+02  0.7816164E-02  0.1320468E+00
        -11   -1    0    0    0    0  0.00000000000E+00  0.00000000000E+00  0.45593999997E+02  0.45594000000E+02  0.51100000000E-03 0. -1.
         11   -1    0    0    0    0 -0.00000000000E+00 -0.00000000000E+00 -0.45593999997E+02  0.45594000000E+02  0.51100000000E-03 0.  1.
    9900012    2    1    2    0    0  0.44854553793E+02  0.13898448674E+01 -0.39052314566E+01  0.46142317660E+02  0.99999990798E+01 0.  0.
         12    1    1    2    0    0 -0.44854553793E+02 -0.13898448674E+01  0.39052314566E+01  0.45045682340E+02  0.00000000000E+00 0. -1.
         11    1    3    3    0    0  0.50825159899E+01  0.87623902010E+00 -0.45752235496E+00  0.51777495666E+01  0.51100000000E-03 0. -1.
        -11    1    3    3    0    0  0.28146515994E+02  0.35150853982E+01  0.36343702397E+00  0.28367486225E+02  0.51100000000E-03 0.  1.
         12    1    3    3    0    0  0.11625521809E+02 -0.30014795509E+01 -0.38111461256E+01  0.12597081869E+02  0.00000000000E+00 0. -1.
</event>
<event>
 7    1  0.2250716E-008  0.4614232E+02  0.7816164E-02  0.1320468E+00
        -11   -1    0    0    0    0  0.00000000000E+00  0.00000000000E+00  0.45593999997E+02  0.45594000000E+02  0.51100000000E-03 0.  1.
         11   -1    0    0    0    0 -0.00000000000E+00 -0.00000000000E+00 -0.45593999997E+02  0.45594000000E+02  0.51100000000E-03 0. -1.
    9900012    2    1    2    0    0  0.10024508025E+02  0.24354085452E+01  0.43848507761E+02  0.46142316424E+02  0.99999878094E+01 0.  0.
         12    1    1    2    0    0 -0.10024508025E+02 -0.24354085452E+01 -0.43848507761E+02  0.45045683576E+02  0.00000000000E+00 0. -1.
         11    1    3    3    0    0  0.40548692787E+01  0.20184708962E+01  0.13167465277E+02  0.13924738120E+02  0.51100000000E-03 0.  1.
        -11    1    3    3    0    0  0.16950208988E+01  0.32937430643E+01  0.63898224881E+01  0.73859102967E+01  0.51100000000E-03 0. -1.
         12    1    3    3    0    0  0.42746178475E+01 -0.28768054154E+01  0.24291219996E+02  0.24831668008E+02  0.00000000000E+00 0. -1.
</event>
<event>
 7    1  0.2250716E-008  0.4614232E+02  0.7816164E-02  0.1320468E+00
        -11   -1    0    0    0    0  0.00000000000E+00  0.00000000000E+00  0.45593999997E+02  0.45594000000E+02  0.51100000000E-03 0.  1.
         11   -1    0    0    0    0 -0.00000000000E+00 -0.00000000000E+00 -0.45593999997E+02  0.45594000000E+02  0.51100000000E-03 0. -1.
    9900012    2    1    2    0    0  0.20347517287E+02 -0.94455351552E+01  0.39062436136E+02  0.46142317510E+02  0.99999977066E+01 0.  0.
         12    1    1    2    0    0 -0.20347517287E+02  0.94455351552E+01 -0.39062436136E+02  0.45045682490E+02  0.00000000000E+00 0. -1.
         11    1    3    3    0    0  0.70449175405E+01 -0.46746200927E+01  0.88273162680E+01  0.12223111262E+02  0.51100000000E-03 0. -1.
        -11    1    3    3    0    0  0.99794453478E+01 -0.52138574575E+01  0.17985845401E+02  0.21219431521E+02  0.51100000000E-03 0.  1.
         12    1    3    3    0    0  0.33231543987E+01  0.44294239508E+00  0.12249274468E+02  0.12699774727E+02  0.00000000000E+00 0. -1.
</event>
<event>
 7    1  0.2250716E-008  0.4614232E+02  0.7816164E-02  0.1320468E+00
        -11   -1    0    0    0    0  0.00000000000E+00  0.00000000000E+00  0.45593999997E+02  0.45594000000E+02  0.51100000000E-03 0.  1.
         11   -1    0    0    0    0 -0.00000000000E+00 -0.00000000000E+00 -0.45593999997E+02  0.45594000000E+02  0.51100000000E-03 0. -1.
    9900012    2    1    2    0    0  0.43789624465E+02  0.83618867465E+01  0.64545442856E+01  0.46142317603E+02  0.99999985538E+01 0.  0.
         12    1    1    2    0    0 -0.43789624465E+02 -0.83618867465E+01 -0.64545442856E+01  0.45045682397E+02  0.00000000000E+00 0. -1.
         11    1    3    3    0    0  0.99467798649E+00 -0.29120893099E+00  0.16302799740E+01  0.19318385008E+01  0.51100000000E-03 0. -1.
        -11    1    3    3    0    0  0.11419266766E+02  0.21766921253E+01 -0.92484548958E+00  0.11661602871E+02  0.51100000000E-03 0.  1.
        -12    1    3    3    0    0  0.31375679712E+02  0.64764035521E+01  0.57491098011E+01  0.32548876231E+02  0.00000000000E+00 0.  1.
</event>
<event>
 7    1  0.2250716E-008  0.4614232E+02  0.7816164E-02  0.1320468E+00
        -11   -1    0    0    0    0  0.00000000000E+00  0.00000000000E+00  0.45593999997E+02  0.45594000000E+02  0.51100000000E-03 0.  1.
         11   -1    0    0    0    0 -0.00000000000E+00 -0.00000000000E+00 -0.45593999997E+02  0.45594000000E+02  0.51100000000E-03 0. -1.
    9900012    2    1    2    0    0  0.39265040633E+02  0.20962627348E+02  0.69237494193E+01  0.46142317996E+02  0.10000002138E+02 0.  0.
         12    1    1    2    0    0 -0.39265040633E+02 -0.20962627348E+02 -0.69237494193E+01  0.45045682004E+02  0.00000000000E+00 0. -1.
         11    1    3    3    0    0  0.30257215831E+02  0.16618863998E+02  0.54643674106E+01  0.34950608891E+02  0.51100000000E-03 0.  1.
        -11    1    3    3    0    0  0.32283717330E+01  0.99871889280E+00 -0.17244223618E+01  0.37938708750E+01  0.51100000000E-03 0. -1.
        -12    1    3    3    0    0  0.57794530691E+01  0.33450444573E+01  0.31838043705E+01  0.73978382294E+01  0.00000000000E+00 0.  1.
</event>
<event>
 7    1  0.2250716E-008  0.4614232E+02  0.7816164E-02  0.1320468E+00
        -11   -1    0    0    0    0  0.00000000000E+00  0.00000000000E+00  0.45593999997E+02  0.45594000000E+02  0.51100000000E-03 0.  1.
         11   -1    0    0    0    0 -0.00000000000E+00 -0.00000000000E+00 -0.45593999997E+02  0.45594000000E+02  0.51100000000E-03 0. -1.
    9900012    2    1    2    0    0  0.99820275723E+01  0.17737364703E+02  0.40185300100E+02  0.46142319572E+02  0.10000016516E+02 0.  0.
         12    1    1    2    0    0 -0.99820275723E+01 -0.17737364703E+02 -0.40185300100E+02  0.45045680428E+02  0.00000000000E+00 0. -1.
         11    1    3    3    0    0  0.39368784177E+01  0.36398802328E+01  0.99873808486E+01  0.11335586278E+02  0.51100000000E-03 0. -1.
        -11    1    3    3    0    0  0.75136309033E+01  0.92859503075E+01  0.17899364058E+02  0.21519078893E+02  0.51100000000E-03 0.  1.
         12    1    3    3    0    0 -0.14684817486E+01  0.48115341629E+01  0.12298555193E+02  0.13287654401E+02  0.00000000000E+00 0. -1.
</event>
<event>
 7    1  0.2250716E-008  0.4614232E+02  0.7816164E-02  0.1320468E+00
        -11   -1    0    0    0    0  0.00000000000E+00  0.00000000000E+00  0.45593999997E+02  0.45594000000E+02  0.51100000000E-03 0.  1.
         11   -1    0    0    0    0 -0.00000000000E+00 -0.00000000000E+00 -0.45593999997E+02  0.45594000000E+02  0.51100000000E-03 0. -1.
    9900012    2    1    2    0    0 -0.30591190975E+02 -0.67948695225E+01 -0.32359267278E+02  0.46142318788E+02  0.10000009366E+02 0.  0.
         12    1    1    2    0    0  0.30591190975E+02  0.67948695225E+01  0.32359267278E+02  0.45045681212E+02  0.00000000000E+00 0. -1.
         11    1    3    3    0    0 -0.20534094359E+02 -0.26358888215E+01 -0.19033843873E+02  0.28122662638E+02  0.51100000000E-03 0. -1.
        -11    1    3    3    0    0 -0.60323641430E+01 -0.45556462362E+01 -0.59963675126E+01  0.96488213472E+01  0.51100000000E-03 0.  1.
         12    1    3    3    0    0 -0.40247324729E+01  0.39666553515E+00 -0.73290558920E+01  0.83708348027E+01  0.00000000000E+00 0. -1.
</event>
<event>
 7    1  0.2250716E-008  0.4614232E+02  0.7816164E-02  0.1320468E+00
        -11   -1    0    0    0    0  0.00000000000E+00  0.00000000000E+00  0.45593999997E+02  0.45594000000E+02  0.51100000000E-03 0. -1.
         11   -1    0    0    0    0 -0.00000000000E+00 -0.00000000000E+00 -0.45593999997E+02  0.45594000000E+02  0.51100000000E-03 0.  1.
    9900012    2    1    2    0    0  0.20724249287E+02 -0.19194926479E+02 -0.35088086142E+02  0.46142317630E+02  0.99999988081E+01 0.  0.
         12    1    1    2    0    0 -0.20724249287E+02  0.19194926479E+02  0.35088086142E+02  0.45045682370E+02  0.00000000000E+00 0. -1.
         11    1    3    3    0    0  0.45217809963E+01 -0.93374078808E+00 -0.90321589003E+01  0.10143878445E+02  0.51100000000E-03 0. -1.
        -11    1    3    3    0    0  0.29488372554E+01 -0.12739557795E+01 -0.44225332399E+01  0.54660227777E+01  0.51100000000E-03 0.  1.
         12    1    3    3    0    0  0.13253631035E+02 -0.16987229912E+02 -0.21633394002E+02  0.30532416408E+02  0.00000000000E+00 0. -1.
</event>
<event>
 7    1  0.2250716E-008  0.4614232E+02  0.7816164E-02  0.1320468E+00
        -11   -1    0    0    0    0  0.00000000000E+00  0.00000000000E+00  0.45593999997E+02  0.45594000000E+02  0.51100000000E-03 0. -1.
         11   -1    0    0    0    0 -0.00000000000E+00 -0.00000000000E+00 -0.45593999997E+02  0.45594000000E+02  0.51100000000E-03 0.  1.
    9900012    2    1    2    0    0 -0.16839556751E+02 -0.40699400264E+02  0.94393643639E+01  0.46142318154E+02  0.10000003581E+02 0.  0.
         12    1    1    2    0    0  0.16839556751E+02  0.40699400264E+02 -0.94393643639E+01  0.45045681846E+02  0.00000000000E+00 0. -1.
         11    1    3    3    0    0 -0.75201079045E+01 -0.13270252638E+02  0.57131301455E+01  0.16287771004E+02  0.51100000000E-03 0. -1.
        -11    1    3    3    0    0 -0.85882004518E+01 -0.27560985049E+02  0.35098853897E+01  0.29080653012E+02  0.51100000000E-03 0.  1.
        -12    1    3    3    0    0 -0.73124839482E+00  0.13183742319E+00  0.21634882876E+00  0.77389413797E+00  0.00000000000E+00 0.  1.
</event>
<event>
 7    1  0.2250716E-008  0.4614232E+02  0.7816164E-02  0.1320468E+00
        -11   -1    0    0    0    0  0.00000000000E+00  0.00000000000E+00  0.45593999997E+02  0.45594000000E+02  0.51100000000E-03 0.  1.
         11   -1    0    0    0    0 -0.00000000000E+00 -0.00000000000E+00 -0.45593999997E+02  0.45594000000E+02  0.51100000000E-03 0. -1.
    9900012    2    1    2    0    0  0.64256443755E+01  0.21008710792E+02  0.39325034109E+02  0.46142321601E+02  0.10000035013E+02 0.  0.
         12    1    1    2    0    0 -0.64256443755E+01 -0.21008710792E+02 -0.39325034109E+02  0.45045678399E+02  0.00000000000E+00 0. -1.
         11    1    3    3    0    0  0.69580602393E+00  0.12813746131E+02  0.17342284660E+02  0.21573851613E+02  0.51100000000E-03 0. -1.
        -11    1    3    3    0    0  0.82513003923E+00  0.34734308151E+01  0.41159364981E+01  0.54485314284E+01  0.51100000000E-03 0.  1.
         12    1    3    3    0    0  0.49047083124E+01  0.47215338459E+01  0.17866812951E+02  0.19119938559E+02  0.00000000000E+00 0. -1.
</event>
<event>
 7    1  0.2250716E-008  0.4614232E+02  0.7816164E-02  0.1320468E+00
        -11   -1    0    0    0    0  0.00000000000E+00  0.00000000000E+00  0.45593999997E+02  0.45594000000E+02  0.51100000000E-03 0.  1.
         11   -1    0    0    0    0 -0.00000000000E+00 -0.00000000000E+00 -0.45593999997E+02  0.45594000000E+02  0.51100000000E-03 0. -1.
    9900012    2    1    2    0    0  0.10753122272E+02  0.22949078538E+02  0.37240080967E+02  0.46142317912E+02  0.10000001376E+02 0.  0.
         12    1    1    2    0    0 -0.10753122272E+02 -0.22949078538E+02 -0.37240080967E+02  0.45045682088E+02  0.00000000000E+00 0. -1.
         11    1    3    3    0    0  0.83573715137E+01  0.13174627336E+02  0.16465486792E+02  0.22683225512E+02  0.51100000000E-03 0. -1.
        -11    1    3    3    0    0 -0.11191060912E+01  0.17220658480E+01  0.49473523890E+01  0.53566972241E+01  0.51100000000E-03 0.  1.
        -12    1    3    3    0    0  0.35148568497E+01  0.80523853532E+01  0.15827241786E+02  0.18102395176E+02  0.00000000000E+00 0.  1.
</event>
<event>
 7    1  0.2250716E-008  0.4614232E+02  0.7816164E-02  0.1320468E+00
        -11   -1    0    0    0    0  0.00000000000E+00  0.00000000000E+00  0.45593999997E+02  0.45594000000E+02  0.51100000000E-03 0.  1.
         11   -1    0    0    0    0 -0.00000000000E+00 -0.00000000000E+00 -0.45593999997E+02  0.45594000000E+02  0.51100000000E-03 0. -1.
    9900012    2    1    2    0    0  0.31281799972E+01 -0.47612962342E+01  0.44683980117E+02  0.46142317287E+02  0.99999956798E+01 0.  0.
         12    1    1    2    0    0 -0.31281799972E+01  0.47612962342E+01 -0.44683980117E+02  0.45045682713E+02  0.00000000000E+00 0. -1.
         11    1    3    3    0    0 -0.20837201640E+01 -0.14474167017E+01  0.11586567980E+02  0.11861090281E+02  0.51100000000E-03 0. -1.
        -11    1    3    3    0    0  0.17084647175E+00  0.46305995187E+00 -0.89667722984E-01  0.50165087222E+00  0.51100000000E-03 0.  1.
        -12    1    3    3    0    0  0.50410536895E+01 -0.37769394843E+01  0.33187079860E+02  0.33779576135E+02  0.00000000000E+00 0.  1.
</event>
<event>
 7    1  0.2250716E-008  0.4614232E+02  0.7816164E-02  0.1320468E+00
        -11   -1    0    0    0    0  0.00000000000E+00  0.00000000000E+00  0.45593999997E+02  0.45594000000E+02  0.51100000000E-03 0.  1.
         11   -1    0    0    0    0 -0.00000000000E+00 -0.00000000000E+00 -0.45593999997E+02  0.45594000000E+02  0.51100000000E-03 0. -1.
    9900012    2    1    2    0    0 -0.15020835034E+02 -0.72318811512E+01  0.41847197605E+02  0.46142317216E+02  0.99999950271E+01 0.  0.
         12    1    1    2    0    0  0.15020835034E+02  0.72318811512E+01 -0.41847197605E+02  0.45045682784E+02  0.00000000000E+00 0. -1.
         11    1    3    3    0    0 -0.56224082810E+01 -0.72572135043E+01  0.14778979928E+02  0.17398185845E+02  0.51100000000E-03 0.  1.
        -11    1    3    3    0    0 -0.54747232990E+01 -0.82154963756E-02  0.12297238576E+02  0.13460859540E+02  0.51100000000E-03 0. -1.
        -12    1    3    3    0    0 -0.39237034545E+01  0.33547849507E-01  0.14770979101E+02  0.15283271831E+02  0.00000000000E+00 0.  1.
</event>
<event>
 7    1  0.2250716E-008  0.4614232E+02  0.7816164E-02  0.1320468E+00
        -11   -1    0    0    0    0  0.00000000000E+00  0.00000000000E+00  0.45593999997E+02  0.45594000000E+02  0.51100000000E-03 0.  1.
         11   -1    0    0    0    0 -0.00000000000E+00 -0.00000000000E+00 -0.45593999997E+02  0.45594000000E+02  0.51100000000E-03 0. -1.
    9900012    2    1    2    0    0 -0.41362127322E+02  0.15789558812E+02 -0.83052873046E+01  0.46142317174E+02  0.99999946447E+01 0.  0.
         12    1    1    2    0    0  0.41362127322E+02 -0.15789558812E+02  0.83052873046E+01  0.45045682826E+02  0.00000000000E+00 0. -1.
         11    1    3    3    0    0 -0.87302705826E+00 -0.10834138964E+01 -0.48555130932E+00  0.14736764402E+01  0.51100000000E-03 0. -1.
        -11    1    3    3    0    0 -0.23191805864E+02  0.90630792395E+01 -0.29407313617E+01  0.25072837209E+02  0.51100000000E-03 0.  1.
        -12    1    3    3    0    0 -0.17297294400E+02  0.78098934685E+01 -0.48790046335E+01  0.19595803524E+02  0.00000000000E+00 0.  1.
</event>
<event>
 7    1  0.2250716E-008  0.4614232E+02  0.7816164E-02  0.1320468E+00
        -11   -1    0    0    0    0  0.00000000000E+00  0.00000000000E+00  0.45593999997E+02  0.45594000000E+02  0.51100000000E-03 0. -1.
         11   -1    0    0    0    0 -0.00000000000E+00 -0.00000000000E+00 -0.45593999997E+02  0.45594000000E+02  0.51100000000E-03 0.  1.
    9900012    2    1    2    0    0 -0.77189441777E+01 -0.42843021985E+02 -0.11576132352E+02  0.46142317940E+02  0.10000001631E+02 0.  0.
         12    1    1    2    0    0  0.77189441777E+01  0.42843021985E+02  0.11576132352E+02  0.45045682060E+02  0.00000000000E+00 0. -1.
         11    1    3    3    0    0 -0.22538027655E+01 -0.73553780319E+01 -0.78197135055E+00  0.77325734624E+01  0.51100000000E-03 0. -1.
        -11    1    3    3    0    0 -0.46507696245E+01 -0.22540197682E+02 -0.28329689227E+01  0.23188701620E+02  0.51100000000E-03 0.  1.
         12    1    3    3    0    0 -0.81437178760E+00 -0.12947446271E+02 -0.79611920793E+01  0.15221042858E+02  0.00000000000E+00 0. -1.
</event>
<event>
 7    1  0.2250716E-008  0.4614232E+02  0.7816164E-02  0.1320468E+00
        -11   -1    0    0    0    0  0.00000000000E+00  0.00000000000E+00  0.45593999997E+02  0.45594000000E+02  0.51100000000E-03 0. -1.
         11   -1    0    0    0    0 -0.00000000000E+00 -0.00000000000E+00 -0.45593999997E+02  0.45594000000E+02  0.51100000000E-03 0.  1.
    9900012    2    1    2    0    0  0.66306878065E+01 -0.43551538076E+02 -0.94027140044E+01  0.46142317408E+02  0.99999967765E+01 0.  0.
         12    1    1    2    0    0 -0.66306878065E+01  0.43551538076E+02  0.94027140044E+01  0.45045682592E+02  0.00000000000E+00 0. -1.
         11    1    3    3    0    0  0.84837949049E+00 -0.87242439585E+01  0.14998611954E+01  0.88927928276E+01  0.51100000000E-03 0. -1.
        -11    1    3    3    0    0  0.31669950127E+01 -0.24387384489E+02 -0.54679598006E+01  0.25192716493E+02  0.51100000000E-03 0.  1.
         12    1    3    3    0    0  0.26153133033E+01 -0.10439909628E+02 -0.54346153992E+01  0.12056808087E+02  0.00000000000E+00 0. -1.
</event>
<event>
 7    1  0.2250716E-008  0.4614232E+02  0.7816164E-02  0.1320468E+00
        -11   -1    0    0    0    0  0.00000000000E+00  0.00000000000E+00  0.45593999997E+02  0.45594000000E+02  0.51100000000E-03 0.  1.
         11   -1    0    0    0    0 -0.00000000000E+00 -0.00000000000E+00 -0.45593999997E+02  0.45594000000E+02  0.51100000000E-03 0. -1.
    9900012    2    1    2    0    0 -0.28285977275E+02  0.61046590916E+01  0.34521735243E+02  0.46142316775E+02  0.99999910110E+01 0.  0.
         12    1    1    2    0    0  0.28285977275E+02 -0.61046590916E+01 -0.34521735243E+02  0.45045683225E+02  0.00000000000E+00 0. -1.
         11    1    3    3    0    0 -0.10965927734E+02  0.20234393459E-01  0.77403072665E+01  0.13422530959E+02  0.51100000000E-03 0. -1.
        -11    1    3    3    0    0  0.16945869131E+00 -0.49559519575E-01  0.36032652222E-01  0.18019713424E+00  0.51100000000E-03 0.  1.
        -12    1    3    3    0    0 -0.17489508232E+02  0.61339842177E+01  0.26745395324E+02  0.32539588682E+02  0.00000000000E+00 0.  1.
</event>
<event>
 7    1  0.2250716E-008  0.4614232E+02  0.7816164E-02  0.1320468E+00
        -11   -1    0    0    0    0  0.00000000000E+00  0.00000000000E+00  0.45593999997E+02  0.45594000000E+02  0.51100000000E-03 0. -1.
         11   -1    0    0    0    0 -0.00000000000E+00 -0.00000000000E+00 -0.45593999997E+02  0.45594000000E+02  0.51100000000E-03 0.  1.
    9900012    2    1    2    0    0  0.19458708857E+02  0.15977458643E+02 -0.37352282598E+02  0.46142317073E+02  0.99999937253E+01 0.  0.
         12    1    1    2    0    0 -0.19458708857E+02 -0.15977458643E+02  0.37352282598E+02  0.45045682927E+02  0.00000000000E+00 0. -1.
         11    1    3    3    0    0 -0.98950343411E-01  0.27745588997E+01 -0.21412304346E+01  0.35061141301E+01  0.51100000000E-03 0. -1.
        -11    1    3    3    0    0  0.66348594560E+01  0.69904872867E+01 -0.12626596960E+02  0.15884559281E+02  0.51100000000E-03 0.  1.
         12    1    3    3    0    0  0.12922799744E+02  0.62124124570E+01 -0.22584455203E+02  0.26751643662E+02  0.00000000000E+00 0. -1.
</event>
<event>
 7    1  0.2250716E-008  0.4614232E+02  0.7816164E-02  0.1320468E+00
        -11   -1    0    0    0    0  0.00000000000E+00  0.00000000000E+00  0.45593999997E+02  0.45594000000E+02  0.51100000000E-03 0. -1.
         11   -1    0    0    0    0 -0.00000000000E+00 -0.00000000000E+00 -0.45593999997E+02  0.45594000000E+02  0.51100000000E-03 0.  1.
    9900012    2    1    2    0    0 -0.82906430651E+01  0.37459671159E+02 -0.23604061304E+02  0.46142318344E+02  0.10000005319E+02 0.  0.
         12    1    1    2    0    0  0.82906430651E+01 -0.37459671159E+02  0.23604061304E+02  0.45045681656E+02  0.00000000000E+00 0. -1.
         11    1    3    3    0    0 -0.47844156742E+01  0.15178954628E+02 -0.53332980010E+01  0.16784974375E+02  0.51100000000E-03 0. -1.
        -11    1    3    3    0    0 -0.10926937875E+01  0.11334790862E+02 -0.11873105857E+02  0.16451203803E+02  0.51100000000E-03 0.  1.
        -12    1    3    3    0    0 -0.24135336034E+01  0.10945925669E+02 -0.63976574455E+01  0.12906140166E+02  0.00000000000E+00 0.  1.
</event>
<event>
 7    1  0.2250716E-008  0.4614232E+02  0.7816164E-02  0.1320468E+00
        -11   -1    0    0    0    0  0.00000000000E+00  0.00000000000E+00  0.45593999997E+02  0.45594000000E+02  0.51100000000E-03 0. -1.
         11   -1    0    0    0    0 -0.00000000000E+00 -0.00000000000E+00 -0.45593999997E+02  0.45594000000E+02  0.51100000000E-03 0.  1.
    9900012    2    1    2    0    0  0.18865300470E+02 -0.40689663067E+02 -0.41910808112E+01  0.46142318734E+02  0.10000008875E+02 0.  0.
         12    1    1    2    0    0 -0.18865300470E+02  0.40689663067E+02  0.41910808112E+01  0.45045681266E+02  0.00000000000E+00 0. -1.
         11    1    3    3    0    0  0.79030533456E+00 -0.79746302779E+00  0.13012997811E+01  0.17186946163E+01  0.51100000000E-03 0. -1.
        -11    1    3    3    0    0  0.67921494218E+01 -0.20942563557E+02 -0.32631782261E+01  0.22256967325E+02  0.51100000000E-03 0.  1.
        -12    1    3    3    0    0  0.11282845713E+02 -0.18949636482E+02 -0.22292023662E+01  0.22166656793E+02  0.00000000000E+00 0.  1.
</event>
<event>
 7    1  0.2250716E-008  0.4614232E+02  0.7816164E-02  0.1320468E+00
        -11   -1    0    0    0    0  0.00000000000E+00  0.00000000000E+00  0.45593999997E+02  0.45594000000E+02  0.51100000000E-03 0.  1.
         11   -1    0    0    0    0 -0.00000000000E+00 -0.00000000000E+00 -0.45593999997E+02  0.45594000000E+02  0.51100000000E-03 0. -1.
    9900012    2    1    2    0    0  0.16805261227E+02 -0.17242421761E+02  0.38070928195E+02  0.46142317780E+02  0.10000000171E+02 0.  0.
         12    1    1    2    0    0 -0.16805261227E+02  0.17242421761E+02 -0.38070928195E+02  0.45045682220E+02  0.00000000000E+00 0. -1.
         11    1    3    3    0    0  0.24334563143E+01 -0.20958148173E+01  0.14558149032E+01  0.35261234628E+01  0.51100000000E-03 0. -1.
        -11    1    3    3    0    0  0.77930716611E+01 -0.91790357893E+01  0.26788857303E+02  0.29370555661E+02  0.51100000000E-03 0.  1.
        -12    1    3    3    0    0  0.65787332512E+01 -0.59675711540E+01  0.98262559882E+01  0.13245638656E+02  0.00000000000E+00 0.  1.
</event>
<event>
 7    1  0.2250716E-008  0.4614232E+02  0.7816164E-02  0.1320468E+00
        -11   -1    0    0    0    0  0.00000000000E+00  0.00000000000E+00  0.45593999997E+02  0.45594000000E+02  0.51100000000E-03 0. -1.
         11   -1    0    0    0    0 -0.00000000000E+00 -0.00000000000E+00 -0.45593999997E+02  0.45594000000E+02  0.51100000000E-03 0.  1.
    9900012    2    1    2    0    0 -0.11063567985E+02  0.33583066276E+02 -0.27908577872E+02  0.46142316567E+02  0.99999891148E+01 0.  0.
         12    1    1    2    0    0  0.11063567985E+02 -0.33583066276E+02  0.27908577872E+02  0.45045683433E+02  0.00000000000E+00 0. -1.
         11    1    3    3    0    0 -0.14475326301E+01  0.48205009930E+01 -0.51381812356E+01  0.71925994752E+01  0.51100000000E-03 0. -1.
        -11    1    3    3    0    0 -0.66125680056E+01  0.26395634995E+02 -0.22126430613E+02  0.35071848174E+02  0.51100000000E-03 0.  1.
         12    1    3    3    0    0 -0.30034673492E+01  0.23669302881E+01 -0.64396602357E+00  0.38778689181E+01  0.00000000000E+00 0. -1.
</event>
<event>
 7    1  0.2250716E-008  0.4614232E+02  0.7816164E-02  0.1320468E+00
        -11   -1    0    0    0    0  0.00000000000E+00  0.00000000000E+00  0.45593999997E+02  0.45594000000E+02  0.51100000000E-03 0. -1.
         11   -1    0    0    0    0 -0.00000000000E+00 -0.00000000000E+00 -0.45593999997E+02  0.45594000000E+02  0.51100000000E-03 0.  1.
    9900012    2    1    2    0    0 -0.22637498064E+02  0.33310183733E+02 -0.20176443107E+02  0.46142317462E+02  0.99999972701E+01 0.  0.
         12    1    1    2    0    0  0.22637498064E+02 -0.33310183733E+02  0.20176443107E+02  0.45045682538E+02  0.00000000000E+00 0. -1.
         11    1    3    3    0    0 -0.12917185686E+02  0.15916184172E+02 -0.11761312105E+02  0.23632754121E+02  0.51100000000E-03 0. -1.
        -11    1    3    3    0    0 -0.89258478863E+01  0.13538101109E+02 -0.89738230851E+01  0.18533225384E+02  0.51100000000E-03 0.  1.
        -12    1    3    3    0    0 -0.79446449118E+00  0.38558984522E+01  0.55869208322E+00  0.39763379567E+01  0.00000000000E+00 0.  1.
</event>
<event>
 7    1  0.2250716E-008  0.4614231E+02  0.7816164E-02  0.1320468E+00
        -11   -1    0    0    0    0  0.00000000000E+00  0.00000000000E+00  0.45593999997E+02  0.45594000000E+02  0.51100000000E-03 0. -1.
         11   -1    0    0    0    0 -0.00000000000E+00 -0.00000000000E+00 -0.45593999997E+02  0.45594000000E+02  0.51100000000E-03 0.  1.
    9900012    2    1    2    0    0  0.12696481050E+02  0.44346185291E-01 -0.43219345121E+02  0.46142307749E+02  0.99999087023E+01 0.  0.
         12    1    1    2    0    0 -0.12696481050E+02 -0.44346185291E-01  0.43219345121E+02  0.45045692251E+02  0.00000000000E+00 0. -1.
         11    1    3    3    0    0  0.20722594625E+01 -0.25690776576E+01 -0.92143814183E+01  0.97877088470E+01  0.51100000000E-03 0. -1.
        -11    1    3    3    0    0  0.44913065526E+01 -0.14533886660E-01 -0.23386290458E+02  0.23813664721E+02  0.51100000000E-03 0.  1.
         12    1    3    3    0    0  0.61329150351E+01  0.26279577296E+01 -0.10618673245E+02  0.12540934181E+02  0.00000000000E+00 0. -1.
</event>
<event>
 7    1  0.2250716E-008  0.4614232E+02  0.7816164E-02  0.1320468E+00
        -11   -1    0    0    0    0  0.00000000000E+00  0.00000000000E+00  0.45593999997E+02  0.45594000000E+02  0.51100000000E-03 0.  1.
         11   -1    0    0    0    0 -0.00000000000E+00 -0.00000000000E+00 -0.45593999997E+02  0.45594000000E+02  0.51100000000E-03 0. -1.
    9900012    2    1    2    0    0  0.40255568666E+02 -0.16720038531E+02  0.11359712917E+02  0.46142316803E+02  0.99999912636E+01 0.  0.
         12    1    1    2    0    0 -0.40255568666E+02  0.16720038531E+02 -0.11359712917E+02  0.45045683197E+02  0.00000000000E+00 0. -1.
         11    1    3    3    0    0  0.45412025328E+01 -0.13207377139E+01 -0.29903923889E+00  0.47388071579E+01  0.51100000000E-03 0. -1.
        -11    1    3    3    0    0  0.24510068698E+02 -0.66465001227E+01  0.89750999566E+01  0.26934584663E+02  0.51100000000E-03 0.  1.
        -12    1    3    3    0    0  0.11204297435E+02 -0.87528006942E+01  0.26836521990E+01  0.14468924982E+02  0.00000000000E+00 0.  1.
</event>
<event>
 7    1  0.2250716E-008  0.4614232E+02  0.7816164E-02  0.1320468E+00
        -11   -1    0    0    0    0  0.00000000000E+00  0.00000000000E+00  0.45593999997E+02  0.45594000000E+02  0.51100000000E-03 0. -1.
         11   -1    0    0    0    0 -0.00000000000E+00 -0.00000000000E+00 -0.45593999997E+02  0.45594000000E+02  0.51100000000E-03 0.  1.
    9900012    2    1    2    0    0  0.13569722633E+02 -0.15105807175E+02 -0.40209336698E+02  0.46142317183E+02  0.99999947279E+01 0.  0.
         12    1    1    2    0    0 -0.13569722633E+02  0.15105807175E+02  0.40209336698E+02  0.45045682817E+02  0.00000000000E+00 0. -1.
         11    1    3    3    0    0  0.89708293580E+01 -0.48780661447E+01 -0.12994458451E+02  0.16526562237E+02  0.51100000000E-03 0. -1.
        -11    1    3    3    0    0  0.32154221605E+00 -0.13472704844E+01 -0.68774762853E+01  0.70155689342E+01  0.51100000000E-03 0.  1.
        -12    1    3    3    0    0  0.42773510586E+01 -0.88804705458E+01 -0.20337401962E+02  0.22600186011E+02  0.00000000000E+00 0.  1.
</event>
<event>
 7    1  0.2250716E-008  0.4614232E+02  0.7816164E-02  0.1320468E+00
        -11   -1    0    0    0    0  0.00000000000E+00  0.00000000000E+00  0.45593999997E+02  0.45594000000E+02  0.51100000000E-03 0. -1.
         11   -1    0    0    0    0 -0.00000000000E+00 -0.00000000000E+00 -0.45593999997E+02  0.45594000000E+02  0.51100000000E-03 0.  1.
    9900012    2    1    2    0    0  0.57691271569E+01  0.40715682860E+02 -0.18386513530E+02  0.46142317202E+02  0.99999949025E+01 0.  0.
         12    1    1    2    0    0 -0.57691271569E+01 -0.40715682860E+02  0.18386513530E+02  0.45045682798E+02  0.00000000000E+00 0. -1.
         11    1    3    3    0    0 -0.17597367189E+01  0.17375807507E+02 -0.86468036762E+01  0.19488011030E+02  0.51100000000E-03 0. -1.
        -11    1    3    3    0    0  0.10151239085E+01  0.39876570590E+01 -0.20798805201E+00  0.41200903704E+01  0.51100000000E-03 0.  1.
        -12    1    3    3    0    0  0.65137399674E+01  0.19352218294E+02 -0.95317218018E+01  0.22534215801E+02  0.00000000000E+00 0.  1.
</event>
<event>
 7    1  0.2250716E-008  0.4614232E+02  0.7816164E-02  0.1320468E+00
        -11   -1    0    0    0    0  0.00000000000E+00  0.00000000000E+00  0.45593999997E+02  0.45594000000E+02  0.51100000000E-03 0. -1.
         11   -1    0    0    0    0 -0.00000000000E+00 -0.00000000000E+00 -0.45593999997E+02  0.45594000000E+02  0.51100000000E-03 0.  1.
    9900012    2    1    2    0    0  0.42078799717E+02 -0.95998122452E+01 -0.12896964439E+02  0.46142317937E+02  0.10000001606E+02 0.  0.
         12    1    1    2    0    0 -0.42078799717E+02  0.95998122452E+01  0.12896964439E+02  0.45045682063E+02  0.00000000000E+00 0. -1.
         11    1    3    3    0    0  0.25580940978E+01  0.79857323011E+00 -0.27071026312E+01  0.38091953919E+01  0.51100000000E-03 0. -1.
        -11    1    3    3    0    0  0.59260956351E+01 -0.31836852060E+01 -0.15761510807E+01  0.69093207668E+01  0.51100000000E-03 0.  1.
        -12    1    3    3    0    0  0.33594609984E+02 -0.72147002693E+01 -0.86137107276E+01  0.35423801779E+02  0.00000000000E+00 0.  1.
</event>
<event>
 7    1  0.2250716E-008  0.4614232E+02  0.7816164E-02  0.1320468E+00
        -11   -1    0    0    0    0  0.00000000000E+00  0.00000000000E+00  0.45593999997E+02  0.45594000000E+02  0.51100000000E-03 0. -1.
         11   -1    0    0    0    0 -0.00000000000E+00 -0.00000000000E+00 -0.45593999997E+02  0.45594000000E+02  0.51100000000E-03 0.  1.
    9900012    2    1    2    0    0 -0.44940693263E+00 -0.13331136527E+02 -0.43025484081E+02  0.46142318208E+02  0.10000004079E+02 0.  0.
         12    1    1    2    0    0  0.44940693263E+00  0.13331136527E+02  0.43025484081E+02  0.45045681792E+02  0.00000000000E+00 0. -1.
         11    1    3    3    0    0 -0.21048472632E+01 -0.31992899056E+01 -0.68824898402E+01  0.78761986112E+01  0.51100000000E-03 0. -1.
        -11    1    3    3    0    0  0.29866430583E+00 -0.76100572930E+01 -0.13988698759E+02  0.15927519129E+02  0.51100000000E-03 0.  1.
         12    1    3    3    0    0  0.13567760247E+01 -0.25217893279E+01 -0.22154295482E+02  0.22338600468E+02  0.00000000000E+00 0. -1.
</event>
<event>
 7    1  0.2250716E-008  0.4614232E+02  0.7816164E-02  0.1320468E+00
        -11   -1    0    0    0    0  0.00000000000E+00  0.00000000000E+00  0.45593999997E+02  0.45594000000E+02  0.51100000000E-03 0. -1.
         11   -1    0    0    0    0 -0.00000000000E+00 -0.00000000000E+00 -0.45593999997E+02  0.45594000000E+02  0.51100000000E-03 0.  1.
    9900012    2    1    2    0    0  0.33920331055E+02  0.66218176887E+01 -0.28890760953E+02  0.46142318777E+02  0.10000009267E+02 0.  0.
         12    1    1    2    0    0 -0.33920331055E+02 -0.66218176887E+01  0.28890760953E+02  0.45045681223E+02  0.00000000000E+00 0. -1.
         11    1    3    3    0    0  0.11681675453E+02  0.12420550618E+01 -0.54953299248E+01  0.12969305818E+02  0.51100000000E-03 0. -1.
        -11    1    3    3    0    0  0.20649552735E+01 -0.49874350310E-01 -0.39886448062E+00  0.21037159665E+01  0.51100000000E-03 0.  1.
        -12    1    3    3    0    0  0.20173700329E+02  0.54296369773E+01 -0.22996566548E+02  0.31069296993E+02  0.00000000000E+00 0.  1.
</event>
<event>
 7    1  0.2250716E-008  0.4614232E+02  0.7816164E-02  0.1320468E+00
        -11   -1    0    0    0    0  0.00000000000E+00  0.00000000000E+00  0.45593999997E+02  0.45594000000E+02  0.51100000000E-03 0.  1.
         11   -1    0    0    0    0 -0.00000000000E+00 -0.00000000000E+00 -0.45593999997E+02  0.45594000000E+02  0.51100000000E-03 0. -1.
    9900012    2    1    2    0    0 -0.27192244285E+02 -0.59392461573E+01  0.35417802767E+02  0.46142317111E+02  0.99999940682E+01 0.  0.
         12    1    1    2    0    0  0.27192244285E+02  0.59392461573E+01 -0.35417802767E+02  0.45045682889E+02  0.00000000000E+00 0. -1.
         11    1    3    3    0    0 -0.45739133871E-01 -0.14575239448E+01  0.40157219091E+00  0.15125239184E+01  0.51100000000E-03 0. -1.
        -11    1    3    3    0    0 -0.12084186577E+02 -0.59427348446E+00  0.16081371953E+02  0.20124394410E+02  0.51100000000E-03 0.  1.
        -12    1    3    3    0    0 -0.15062318574E+02 -0.38874487281E+01  0.18934858623E+02  0.24505398783E+02  0.00000000000E+00 0.  1.
</event>
<event>
 7    1  0.2250716E-008  0.4614232E+02  0.7816164E-02  0.1320468E+00
        -11   -1    0    0    0    0  0.00000000000E+00  0.00000000000E+00  0.45593999997E+02  0.45594000000E+02  0.51100000000E-03 0.  1.
         11   -1    0    0    0    0 -0.00000000000E+00 -0.00000000000E+00 -0.45593999997E+02  0.45594000000E+02  0.51100000000E-03 0. -1.
    9900012    2    1    2    0    0  0.16004974007E+02 -0.79854161434E+00  0.42098892339E+02  0.46142316546E+02  0.99999889165E+01 0.  0.
         12    1    1    2    0    0 -0.16004974007E+02  0.79854161434E+00 -0.42098892339E+02  0.45045683454E+02  0.00000000000E+00 0. -1.
         11    1    3    3    0    0  0.30967788132E+01  0.92936503717E+00  0.18872532779E+02  0.19147486837E+02  0.51100000000E-03 0. -1.
        -11    1    3    3    0    0  0.81506237433E+01 -0.26487786431E+01  0.17554147562E+02  0.19534502619E+02  0.51100000000E-03 0.  1.
         12    1    3    3    0    0  0.47575714507E+01  0.92087199156E+00  0.56722119982E+01  0.74603270897E+01  0.00000000000E+00 0. -1.
</event>
<event>
 7    1  0.2250716E-008  0.4614232E+02  0.7816164E-02  0.1320468E+00
        -11   -1    0    0    0    0  0.00000000000E+00  0.00000000000E+00  0.45593999997E+02  0.45594000000E+02  0.51100000000E-03 0.  1.
         11   -1    0    0    0    0 -0.00000000000E+00 -0.00000000000E+00 -0.45593999997E+02  0.45594000000E+02  0.51100000000E-03 0. -1.
    9900012    2    1    2    0    0  0.21179858926E+02 -0.39610646984E+02  0.33946805562E+01  0.46142316137E+02  0.99999851889E+01 0.  0.
         12    1    1    2    0    0 -0.21179858926E+02  0.39610646984E+02 -0.33946805562E+01  0.45045683863E+02  0.00000000000E+00 0. -1.
         11    1    3    3    0    0  0.88588911109E+01 -0.11849642964E+02  0.40421111380E+01  0.15337296137E+02  0.51100000000E-03 0. -1.
        -11    1    3    3    0    0  0.98359028098E+01 -0.17133921091E+02  0.92757291118E+00  0.19778185655E+02  0.51100000000E-03 0.  1.
        -12    1    3    3    0    0  0.24850650055E+01 -0.10627082929E+02 -0.15750034930E+01  0.11026834345E+02  0.00000000000E+00 0.  1.
</event>
<event>
 7    1  0.2250716E-008  0.4614232E+02  0.7816164E-02  0.1320468E+00
        -11   -1    0    0    0    0  0.00000000000E+00  0.00000000000E+00  0.45593999997E+02  0.45594000000E+02  0.51100000000E-03 0.  1.
         11   -1    0    0    0    0 -0.00000000000E+00 -0.00000000000E+00 -0.45593999997E+02  0.45594000000E+02  0.51100000000E-03 0. -1.
    9900012    2    1    2    0    0  0.10907160385E+02 -0.24981461218E+01  0.43633780261E+02  0.46142315839E+02  0.99999824696E+01 0.  0.
         12    1    1    2    0    0 -0.10907160385E+02  0.24981461218E+01 -0.43633780261E+02  0.45045684161E+02  0.00000000000E+00 0. -1.
         11    1    3    3    0    0  0.12550095923E+01  0.13847556517E+01  0.81152637877E+01  0.83276709768E+01  0.51100000000E-03 0. -1.
        -11    1    3    3    0    0  0.66431683044E+01 -0.62398721488E+01  0.26331739218E+02  0.27864460879E+02  0.51100000000E-03 0.  1.
         12    1    3    3    0    0  0.30089824879E+01  0.23569703752E+01  0.91867772548E+01  0.99501839828E+01  0.00000000000E+00 0. -1.
</event>
<event>
 7    1  0.2250716E-008  0.4614232E+02  0.7816164E-02  0.1320468E+00
        -11   -1    0    0    0    0  0.00000000000E+00  0.00000000000E+00  0.45593999997E+02  0.45594000000E+02  0.51100000000E-03 0.  1.
         11   -1    0    0    0    0 -0.00000000000E+00 -0.00000000000E+00 -0.45593999997E+02  0.45594000000E+02  0.51100000000E-03 0. -1.
    9900012    2    1    2    0    0 -0.12816938140E+02  0.17921288305E+02  0.39289529120E+02  0.46142316786E+02  0.99999911041E+01 0.  0.
         12    1    1    2    0    0  0.12816938140E+02 -0.17921288305E+02 -0.39289529120E+02  0.45045683214E+02  0.00000000000E+00 0. -1.
         11    1    3    3    0    0 -0.71969292920E+01  0.57478749464E+01  0.11405704871E+02  0.14660285178E+02  0.51100000000E-03 0. -1.
        -11    1    3    3    0    0 -0.48725989322E+01  0.50155792136E+01  0.17525121594E+02  0.18868708020E+02  0.51100000000E-03 0.  1.
        -12    1    3    3    0    0 -0.74740991575E+00  0.71578341451E+01  0.10358702655E+02  0.12613323587E+02  0.00000000000E+00 0.  1.
</event>
<event>
 7    1  0.2250716E-008  0.4614232E+02  0.7816164E-02  0.1320468E+00
        -11   -1    0    0    0    0  0.00000000000E+00  0.00000000000E+00  0.45593999997E+02  0.45594000000E+02  0.51100000000E-03 0.  1.
         11   -1    0    0    0    0 -0.00000000000E+00 -0.00000000000E+00 -0.45593999997E+02  0.45594000000E+02  0.51100000000E-03 0. -1.
    9900012    2    1    2    0    0 -0.12449030333E+02 -0.16836540697E+02  0.39883153082E+02  0.46142319201E+02  0.10000013134E+02 0.  0.
         12    1    1    2    0    0  0.12449030333E+02  0.16836540697E+02 -0.39883153082E+02  0.45045680799E+02  0.00000000000E+00 0. -1.
         11    1    3    3    0    0 -0.43513067102E+01 -0.73958833117E+01  0.15636350367E+02  0.17836154661E+02  0.51100000000E-03 0. -1.
        -11    1    3    3    0    0 -0.56617171871E+01 -0.67964602809E+01  0.22754670689E+02  0.24413560827E+02  0.51100000000E-03 0.  1.
         12    1    3    3    0    0 -0.24360064358E+01 -0.26441971043E+01  0.14921320263E+01  0.38926037129E+01  0.00000000000E+00 0. -1.
</event>
<event>
 7    1  0.2250716E-008  0.4614232E+02  0.7816164E-02  0.1320468E+00
        -11   -1    0    0    0    0  0.00000000000E+00  0.00000000000E+00  0.45593999997E+02  0.45594000000E+02  0.51100000000E-03 0.  1.
         11   -1    0    0    0    0 -0.00000000000E+00 -0.00000000000E+00 -0.45593999997E+02  0.45594000000E+02  0.51100000000E-03 0. -1.
    9900012    2    1    2    0    0  0.40794327235E+02  0.13312830404E+02  0.13700541014E+02  0.46142318609E+02  0.10000007728E+02 0.  0.
         12    1    1    2    0    0 -0.40794327235E+02 -0.13312830404E+02 -0.13700541014E+02  0.45045681391E+02  0.00000000000E+00 0. -1.
         11    1    3    3    0    0  0.13756984800E+02  0.43552365431E+01  0.85625432428E+01  0.16779149656E+02  0.51100000000E-03 0. -1.
        -11    1    3    3    0    0  0.22007863541E+02  0.92220823690E+01  0.39233312038E+01  0.24182336298E+02  0.51100000000E-03 0.  1.
         12    1    3    3    0    0  0.50294788947E+01 -0.26448850777E+00  0.12146665671E+01  0.51808326543E+01  0.00000000000E+00 0. -1.
</event>
<event>
 7    1  0.2250716E-008  0.4614232E+02  0.7816164E-02  0.1320468E+00
        -11   -1    0    0    0    0  0.00000000000E+00  0.00000000000E+00  0.45593999997E+02  0.45594000000E+02  0.51100000000E-03 0.  1.
         11   -1    0    0    0    0 -0.00000000000E+00 -0.00000000000E+00 -0.45593999997E+02  0.45594000000E+02  0.51100000000E-03 0. -1.
    9900012    2    1    2    0    0 -0.24784237155E+02  0.11550547982E+02  0.35797208460E+02  0.46142315373E+02  0.99999782220E+01 0.  0.
         12    1    1    2    0    0  0.24784237155E+02 -0.11550547982E+02 -0.35797208460E+02  0.45045684627E+02  0.00000000000E+00 0. -1.
         11    1    3    3    0    0 -0.22330837530E+01 -0.11909377476E+01  0.13953985502E+01  0.28900057338E+01  0.51100000000E-03 0. -1.
        -11    1    3    3    0    0 -0.18754775035E+02  0.87645790322E+01  0.27790991042E+02  0.34653984123E+02  0.51100000000E-03 0.  1.
         12    1    3    3    0    0 -0.37963783665E+01  0.39769066978E+01  0.66108188678E+01  0.85983255165E+01  0.00000000000E+00 0. -1.
</event>
<event>
 7    1  0.2250716E-008  0.4614232E+02  0.7816164E-02  0.1320468E+00
        -11   -1    0    0    0    0  0.00000000000E+00  0.00000000000E+00  0.45593999997E+02  0.45594000000E+02  0.51100000000E-03 0. -1.
         11   -1    0    0    0    0 -0.00000000000E+00 -0.00000000000E+00 -0.45593999997E+02  0.45594000000E+02  0.51100000000E-03 0.  1.
    9900012    2    1    2    0    0  0.11002234599E+02 -0.25773023493E+02 -0.35267770500E+02  0.46142317163E+02  0.99999945493E+01 0.  0.
         12    1    1    2    0    0 -0.11002234599E+02  0.25773023493E+02  0.35267770500E+02  0.45045682837E+02  0.00000000000E+00 0. -1.
         11    1    3    3    0    0 -0.38578679308E+00  0.70678341753E+00 -0.10819508227E+01  0.13487001493E+01  0.51100000000E-03 0. -1.
        -11    1    3    3    0    0  0.42237209129E+01 -0.69095036899E+01 -0.99820409938E+01  0.12853878880E+02  0.51100000000E-03 0.  1.
         12    1    3    3    0    0  0.71643004791E+01 -0.19570303221E+02 -0.24203778684E+02  0.31939738134E+02  0.00000000000E+00 0. -1.
</event>
<event>
 7    1  0.2250716E-008  0.4614232E+02  0.7816164E-02  0.1320468E+00
        -11   -1    0    0    0    0  0.00000000000E+00  0.00000000000E+00  0.45593999997E+02  0.45594000000E+02  0.51100000000E-03 0.  1.
         11   -1    0    0    0    0 -0.00000000000E+00 -0.00000000000E+00 -0.45593999997E+02  0.45594000000E+02  0.51100000000E-03 0. -1.
    9900012    2    1    2    0    0  0.21558044376E+01  0.49274711221E+01  0.44723439214E+02  0.46142317859E+02  0.10000000889E+02 0.  0.
         12    1    1    2    0    0 -0.21558044376E+01 -0.49274711221E+01 -0.44723439214E+02  0.45045682141E+02  0.00000000000E+00 0. -1.
         11    1    3    3    0    0 -0.38489479304E+00  0.59400176087E+01  0.18462009681E+02  0.19397880166E+02  0.51100000000E-03 0.  1.
        -11    1    3    3    0    0 -0.10804858073E+01  0.23683822696E+00  0.37622376207E+01  0.39214760106E+01  0.51100000000E-03 0. -1.
        -12    1    3    3    0    0  0.36211850380E+01 -0.12493847136E+01  0.22499191912E+02  0.22822961682E+02  0.00000000000E+00 0.  1.
</event>
<event>
 7    1  0.2250716E-008  0.4614232E+02  0.7816164E-02  0.1320468E+00
        -11   -1    0    0    0    0  0.00000000000E+00  0.00000000000E+00  0.45593999997E+02  0.45594000000E+02  0.51100000000E-03 0.  1.
         11   -1    0    0    0    0 -0.00000000000E+00 -0.00000000000E+00 -0.45593999997E+02  0.45594000000E+02  0.51100000000E-03 0. -1.
    9900012    2    1    2    0    0  0.79817929608E+00 -0.29072042483E+02  0.34399022387E+02  0.46142317793E+02  0.10000000288E+02 0.  0.
         12    1    1    2    0    0 -0.79817929608E+00  0.29072042483E+02 -0.34399022387E+02  0.45045682207E+02  0.00000000000E+00 0. -1.
         11    1    3    3    0    0 -0.23737277365E+01 -0.13345031236E+02  0.15441870145E+02  0.20546916943E+02  0.51100000000E-03 0.  1.
        -11    1    3    3    0    0 -0.17829096432E+01 -0.25027022371E+01  0.35574511463E+01  0.47008237792E+01  0.51100000000E-03 0. -1.
        -12    1    3    3    0    0  0.49548166758E+01 -0.13224309010E+02  0.15399701096E+02  0.20894577070E+02  0.00000000000E+00 0.  1.
</event>
<event>
 7    1  0.2250716E-008  0.4614232E+02  0.7816164E-02  0.1320468E+00
        -11   -1    0    0    0    0  0.00000000000E+00  0.00000000000E+00  0.45593999997E+02  0.45594000000E+02  0.51100000000E-03 0. -1.
         11   -1    0    0    0    0 -0.00000000000E+00 -0.00000000000E+00 -0.45593999997E+02  0.45594000000E+02  0.51100000000E-03 0.  1.
    9900012    2    1    2    0    0 -0.24227057718E+01  0.16044956362E+02 -0.42021462726E+02  0.46142318103E+02  0.10000003118E+02 0.  0.
         12    1    1    2    0    0  0.24227057718E+01 -0.16044956362E+02  0.42021462726E+02  0.45045681897E+02  0.00000000000E+00 0. -1.
         11    1    3    3    0    0 -0.27013848776E+01  0.19682968716E+01 -0.15567989060E+02  0.15922749651E+02  0.51100000000E-03 0. -1.
        -11    1    3    3    0    0 -0.35957564372E+00  0.13200586778E+02 -0.25716394946E+02  0.28908783357E+02  0.51100000000E-03 0.  1.
        -12    1    3    3    0    0  0.63825474957E+00  0.87607271287E+00 -0.73707872016E+00  0.13107850942E+01  0.00000000000E+00 0.  1.
</event>
<event>
 7    1  0.2250716E-008  0.4614232E+02  0.7816164E-02  0.1320468E+00
        -11   -1    0    0    0    0  0.00000000000E+00  0.00000000000E+00  0.45593999997E+02  0.45594000000E+02  0.51100000000E-03 0. -1.
         11   -1    0    0    0    0 -0.00000000000E+00 -0.00000000000E+00 -0.45593999997E+02  0.45594000000E+02  0.51100000000E-03 0.  1.
    9900012    2    1    2    0    0 -0.29345786927E+01  0.12179425167E+02 -0.43268502782E+02  0.46142317827E+02  0.10000000597E+02 0.  0.
         12    1    1    2    0    0  0.29345786927E+01 -0.12179425167E+02  0.43268502782E+02  0.45045682173E+02  0.00000000000E+00 0. -1.
         11    1    3    3    0    0 -0.10964030970E+00 -0.67664262495E+00 -0.29985252791E+01  0.30758771675E+01  0.51100000000E-03 0. -1.
        -11    1    3    3    0    0  0.23145536242E+01  0.56200634742E+01 -0.12260266349E+02  0.13684166147E+02  0.51100000000E-03 0.  1.
        -12    1    3    3    0    0 -0.51394920072E+01  0.72360043182E+01 -0.28009711154E+02  0.29382274512E+02  0.00000000000E+00 0.  1.
</event>
<event>
 7    1  0.2250716E-008  0.4614232E+02  0.7816164E-02  0.1320468E+00
        -11   -1    0    0    0    0  0.00000000000E+00  0.00000000000E+00  0.45593999997E+02  0.45594000000E+02  0.51100000000E-03 0. -1.
         11   -1    0    0    0    0 -0.00000000000E+00 -0.00000000000E+00 -0.45593999997E+02  0.45594000000E+02  0.51100000000E-03 0.  1.
    9900012    2    1    2    0    0 -0.40432605626E+02  0.16119780971E+02 -0.11596140655E+02  0.46142318583E+02  0.10000007493E+02 0.  0.
         12    1    1    2    0    0  0.40432605626E+02 -0.16119780971E+02  0.11596140655E+02  0.45045681417E+02  0.00000000000E+00 0. -1.
         11    1    3    3    0    0 -0.18984363655E+01 -0.13033646572E-01 -0.71106056510E+00  0.20272735134E+01  0.51100000000E-03 0. -1.
        -11    1    3    3    0    0 -0.33730916038E+02  0.13422900791E+02 -0.12455511626E+02  0.38380838091E+02  0.51100000000E-03 0.  1.
         12    1    3    3    0    0 -0.48032532226E+01  0.27099138262E+01  0.15704315365E+01  0.57342069789E+01  0.00000000000E+00 0. -1.
</event>
<event>
 7    1  0.2250716E-008  0.4614233E+02  0.7816164E-02  0.1320468E+00
        -11   -1    0    0    0    0  0.00000000000E+00  0.00000000000E+00  0.45593999997E+02  0.45594000000E+02  0.51100000000E-03 0.  1.
         11   -1    0    0    0    0 -0.00000000000E+00 -0.00000000000E+00 -0.45593999997E+02  0.45594000000E+02  0.51100000000E-03 0. -1.
    9900012    2    1    2    0    0  0.27131697442E+02  0.12429864811E+02  0.33741397194E+02  0.46142329510E+02  0.10000107134E+02 0.  0.
         12    1    1    2    0    0 -0.27131697442E+02 -0.12429864811E+02 -0.33741397194E+02  0.45045670490E+02  0.00000000000E+00 0. -1.
         11    1    3    3    0    0  0.17092467232E+01  0.34997033792E+01  0.61540076013E+01  0.72829429437E+01  0.51100000000E-03 0. -1.
        -11    1    3    3    0    0  0.57634594167E+01  0.21187587910E+01  0.36480696872E+01  0.71424796791E+01  0.51100000000E-03 0.  1.
        -12    1    3    3    0    0  0.19658991302E+02  0.68114026410E+01  0.23939319905E+02  0.31716906887E+02  0.00000000000E+00 0.  1.
</event>
<event>
 7    1  0.2250716E-008  0.4614231E+02  0.7816164E-02  0.1320468E+00
        -11   -1    0    0    0    0  0.00000000000E+00  0.00000000000E+00  0.45593999997E+02  0.45594000000E+02  0.51100000000E-03 0. -1.
         11   -1    0    0    0    0 -0.00000000000E+00 -0.00000000000E+00 -0.45593999997E+02  0.45594000000E+02  0.51100000000E-03 0.  1.
    9900012    2    1    2    0    0 -0.31063692978E+02  0.31511774946E+02 -0.84361684446E+01  0.46142312973E+02  0.99999563425E+01 0.  0.
         12    1    1    2    0    0  0.31063692978E+02 -0.31511774946E+02  0.84361684446E+01  0.45045687027E+02  0.00000000000E+00 0. -1.
         11    1    3    3    0    0 -0.22696722923E+01  0.40187655573E+01 -0.31973390695E+01  0.56147009097E+01  0.51100000000E-03 0. -1.
        -11    1    3    3    0    0 -0.70858276300E+01  0.10139899849E+02 -0.94785064215E+00  0.12406649155E+02  0.51100000000E-03 0.  1.
        -12    1    3    3    0    0 -0.21708193056E+02  0.17353109539E+02 -0.42909787329E+01  0.28120962909E+02  0.00000000000E+00 0.  1.
</event>
<event>
 7    1  0.2250716E-008  0.4614232E+02  0.7816164E-02  0.1320468E+00
        -11   -1    0    0    0    0  0.00000000000E+00  0.00000000000E+00  0.45593999997E+02  0.45594000000E+02  0.51100000000E-03 0.  1.
         11   -1    0    0    0    0 -0.00000000000E+00 -0.00000000000E+00 -0.45593999997E+02  0.45594000000E+02  0.51100000000E-03 0. -1.
    9900012    2    1    2    0    0 -0.19320604767E+02  0.27024924372E+02  0.30421722517E+02  0.46142317557E+02  0.99999981383E+01 0.  0.
         12    1    1    2    0    0  0.19320604767E+02 -0.27024924372E+02 -0.30421722517E+02  0.45045682443E+02  0.00000000000E+00 0. -1.
         11    1    3    3    0    0 -0.13909169710E+01  0.43766900594E+01  0.43211673007E+01  0.63057555453E+01  0.51100000000E-03 0. -1.
        -11    1    3    3    0    0 -0.10900180002E+02  0.16490430777E+02  0.12686548363E+02  0.23488225581E+02  0.51100000000E-03 0.  1.
        -12    1    3    3    0    0 -0.70295077935E+01  0.61578035350E+01  0.13414006853E+02  0.16348336431E+02  0.00000000000E+00 0.  1.
</event>
<event>
 7    1  0.2250716E-008  0.4614232E+02  0.7816164E-02  0.1320468E+00
        -11   -1    0    0    0    0  0.00000000000E+00  0.00000000000E+00  0.45593999997E+02  0.45594000000E+02  0.51100000000E-03 0.  1.
         11   -1    0    0    0    0 -0.00000000000E+00 -0.00000000000E+00 -0.45593999997E+02  0.45594000000E+02  0.51100000000E-03 0. -1.
    9900012    2    1    2    0    0  0.30614456298E+02  0.32466479878E+02 -0.61478514846E+01  0.46142319541E+02  0.10000016235E+02 0.  0.
         12    1    1    2    0    0 -0.30614456298E+02 -0.32466479878E+02  0.61478514846E+01  0.45045680459E+02  0.00000000000E+00 0. -1.
         11    1    3    3    0    0  0.14721462909E+01 -0.28928619435E+00 -0.16677084107E+00  0.15095409828E+01  0.51100000000E-03 0. -1.
        -11    1    3    3    0    0  0.18718623893E+02  0.21724389816E+02 -0.11277797112E+01  0.28698569314E+02  0.51100000000E-03 0.  1.
         12    1    3    3    0    0  0.10423686114E+02  0.11031376256E+02 -0.48533009324E+01  0.15934209244E+02  0.00000000000E+00 0. -1.
</event>
<event>
 7    1  0.2250716E-008  0.4614232E+02  0.7816164E-02  0.1320468E+00
        -11   -1    0    0    0    0  0.00000000000E+00  0.00000000000E+00  0.45593999997E+02  0.45594000000E+02  0.51100000000E-03 0.  1.
         11   -1    0    0    0    0 -0.00000000000E+00 -0.00000000000E+00 -0.45593999997E+02  0.45594000000E+02  0.51100000000E-03 0. -1.
    9900012    2    1    2    0    0 -0.12198127682E+02  0.24097348759E+02  0.36050478325E+02  0.46142317370E+02  0.99999964296E+01 0.  0.
         12    1    1    2    0    0  0.12198127682E+02 -0.24097348759E+02 -0.36050478325E+02  0.45045682630E+02  0.00000000000E+00 0. -1.
         11    1    3    3    0    0 -0.13273806996E+01  0.11150931365E+02  0.10413761177E+02  0.15315078581E+02  0.51100000000E-03 0. -1.
        -11    1    3    3    0    0 -0.58425726222E+01  0.62386037499E+01  0.10655490703E+02  0.13659989531E+02  0.51100000000E-03 0.  1.
        -12    1    3    3    0    0 -0.50281743605E+01  0.67078136442E+01  0.14981226445E+02  0.17167249258E+02  0.00000000000E+00 0.  1.
</event>
<event>
 7    1  0.2250716E-008  0.4614232E+02  0.7816164E-02  0.1320468E+00
        -11   -1    0    0    0    0  0.00000000000E+00  0.00000000000E+00  0.45593999997E+02  0.45594000000E+02  0.51100000000E-03 0.  1.
         11   -1    0    0    0    0 -0.00000000000E+00 -0.00000000000E+00 -0.45593999997E+02  0.45594000000E+02  0.51100000000E-03 0. -1.
    9900012    2    1    2    0    0 -0.18228858379E+02 -0.24664305477E+02  0.32992337034E+02  0.46142317128E+02  0.99999942249E+01 0.  0.
         12    1    1    2    0    0  0.18228858379E+02  0.24664305477E+02 -0.32992337034E+02  0.45045682872E+02  0.00000000000E+00 0. -1.
         11    1    3    3    0    0 -0.12276311919E+02 -0.14604653608E+02  0.14940671678E+02  0.24232775569E+02  0.51100000000E-03 0. -1.
        -11    1    3    3    0    0 -0.46833528571E+01 -0.96707718369E+01  0.14014010219E+02  0.17659278144E+02  0.51100000000E-03 0.  1.
         12    1    3    3    0    0 -0.12691936029E+01 -0.38888003163E+00  0.40376551374E+01  0.42502634141E+01  0.00000000000E+00 0. -1.
</event>
<event>
 7    1  0.2250716E-008  0.4614232E+02  0.7816164E-02  0.1320468E+00
        -11   -1    0    0    0    0  0.00000000000E+00  0.00000000000E+00  0.45593999997E+02  0.45594000000E+02  0.51100000000E-03 0.  1.
         11   -1    0    0    0    0 -0.00000000000E+00 -0.00000000000E+00 -0.45593999997E+02  0.45594000000E+02  0.51100000000E-03 0. -1.
    9900012    2    1    2    0    0 -0.17349680633E+02  0.10270654334E+02  0.40281704832E+02  0.46142317602E+02  0.99999985485E+01 0.  0.
         12    1    1    2    0    0  0.17349680633E+02 -0.10270654334E+02 -0.40281704832E+02  0.45045682398E+02  0.00000000000E+00 0. -1.
         11    1    3    3    0    0 -0.52044705673E+01  0.27428246948E+01  0.18905820849E+02  0.19799991501E+02  0.51100000000E-03 0. -1.
        -11    1    3    3    0    0 -0.47997899996E+01  0.76255771003E+00  0.10540744090E+02  0.11607185901E+02  0.51100000000E-03 0.  1.
        -12    1    3    3    0    0 -0.73454200659E+01  0.67652719289E+01  0.10835139893E+02  0.14735140200E+02  0.00000000000E+00 0.  1.
</event>
<event>
 7    1  0.2250716E-008  0.4614232E+02  0.7816164E-02  0.1320468E+00
        -11   -1    0    0    0    0  0.00000000000E+00  0.00000000000E+00  0.45593999997E+02  0.45594000000E+02  0.51100000000E-03 0. -1.
         11   -1    0    0    0    0 -0.00000000000E+00 -0.00000000000E+00 -0.45593999997E+02  0.45594000000E+02  0.51100000000E-03 0.  1.
    9900012    2    1    2    0    0  0.21694526435E+02  0.38497511704E+02 -0.87408502350E+01  0.46142319325E+02  0.10000014261E+02 0.  0.
         12    1    1    2    0    0 -0.21694526435E+02 -0.38497511704E+02  0.87408502350E+01  0.45045680675E+02  0.00000000000E+00 0. -1.
         11    1    3    3    0    0  0.92480681743E+01  0.17683523189E+02 -0.17163549934E+01  0.20029469091E+02  0.51100000000E-03 0. -1.
        -11    1    3    3    0    0  0.86925736658E+01  0.19100200392E+02 -0.63989374943E+01  0.21939117878E+02  0.51100000000E-03 0.  1.
         12    1    3    3    0    0  0.37538845950E+01  0.17137881221E+01 -0.62555774718E+00  0.41737323554E+01  0.00000000000E+00 0. -1.
</event>
<event>
 7    1  0.2250716E-008  0.4614232E+02  0.7816164E-02  0.1320468E+00
        -11   -1    0    0    0    0  0.00000000000E+00  0.00000000000E+00  0.45593999997E+02  0.45594000000E+02  0.51100000000E-03 0.  1.
         11   -1    0    0    0    0 -0.00000000000E+00 -0.00000000000E+00 -0.45593999997E+02  0.45594000000E+02  0.51100000000E-03 0. -1.
    9900012    2    1    2    0    0  0.20743421215E+02  0.11237961688E+02  0.38373586534E+02  0.46142318186E+02  0.10000003876E+02 0.  0.
         12    1    1    2    0    0 -0.20743421215E+02 -0.11237961688E+02 -0.38373586534E+02  0.45045681814E+02  0.00000000000E+00 0. -1.
         11    1    3    3    0    0 -0.33870943254E+00 -0.96224236762E-01  0.49419562382E+01  0.49544843228E+01  0.51100000000E-03 0. -1.
        -11    1    3    3    0    0  0.92826877453E+01  0.43172522031E+01  0.12521722436E+02  0.16174068486E+02  0.51100000000E-03 0.  1.
         12    1    3    3    0    0  0.11799442902E+02  0.70169337215E+01  0.20909907860E+02  0.25013765377E+02  0.00000000000E+00 0. -1.
</event>
<event>
 7    1  0.2250716E-008  0.4614232E+02  0.7816164E-02  0.1320468E+00
        -11   -1    0    0    0    0  0.00000000000E+00  0.00000000000E+00  0.45593999997E+02  0.45594000000E+02  0.51100000000E-03 0.  1.
         11   -1    0    0    0    0 -0.00000000000E+00 -0.00000000000E+00 -0.45593999997E+02  0.45594000000E+02  0.51100000000E-03 0. -1.
    9900012    2    1    2    0    0  0.24236887099E+02  0.31369793150E+02  0.21392123674E+02  0.46142316813E+02  0.99999913516E+01 0.  0.
         12    1    1    2    0    0 -0.24236887099E+02 -0.31369793150E+02 -0.21392123674E+02  0.45045683187E+02  0.00000000000E+00 0. -1.
         11    1    3    3    0    0  0.36401001129E+01  0.73937858468E+01  0.96978499624E+00  0.82981251605E+01  0.51100000000E-03 0. -1.
        -11    1    3    3    0    0  0.89743168051E+01  0.76268080692E+01  0.68488223289E+01  0.13623983668E+02  0.51100000000E-03 0.  1.
        -12    1    3    3    0    0  0.11622470181E+02  0.16349199234E+02  0.13573516349E+02  0.24220207984E+02  0.00000000000E+00 0.  1.
</event>
<event>
 7    1  0.2250716E-008  0.4614232E+02  0.7816164E-02  0.1320468E+00
        -11   -1    0    0    0    0  0.00000000000E+00  0.00000000000E+00  0.45593999997E+02  0.45594000000E+02  0.51100000000E-03 0. -1.
         11   -1    0    0    0    0 -0.00000000000E+00 -0.00000000000E+00 -0.45593999997E+02  0.45594000000E+02  0.51100000000E-03 0.  1.
    9900012    2    1    2    0    0 -0.41387093870E+02 -0.17234203543E+02 -0.43822809106E+01  0.46142315448E+02  0.99999789049E+01 0.  0.
         12    1    1    2    0    0  0.41387093870E+02  0.17234203543E+02  0.43822809106E+01  0.45045684552E+02  0.00000000000E+00 0. -1.
         11    1    3    3    0    0 -0.12897091414E+02 -0.62999769341E+01 -0.16490540346E+01  0.14447977567E+02  0.51100000000E-03 0. -1.
        -11    1    3    3    0    0 -0.26339368637E+02 -0.72853093820E+01 -0.20629995318E+01  0.27406094948E+02  0.51100000000E-03 0.  1.
         12    1    3    3    0    0 -0.21506338197E+01 -0.36489172270E+01 -0.67022734428E+00  0.42882429326E+01  0.00000000000E+00 0. -1.
</event>
<event>
 7    1  0.2250716E-008  0.4614232E+02  0.7816164E-02  0.1320468E+00
        -11   -1    0    0    0    0  0.00000000000E+00  0.00000000000E+00  0.45593999997E+02  0.45594000000E+02  0.51100000000E-03 0.  1.
         11   -1    0    0    0    0 -0.00000000000E+00 -0.00000000000E+00 -0.45593999997E+02  0.45594000000E+02  0.51100000000E-03 0. -1.
    9900012    2    1    2    0    0 -0.39205340455E+02  0.10758377601E+02  0.19398754669E+02  0.46142322166E+02  0.10000040170E+02 0.  0.
         12    1    1    2    0    0  0.39205340455E+02 -0.10758377601E+02 -0.19398754669E+02  0.45045677834E+02  0.00000000000E+00 0. -1.
         11    1    3    3    0    0 -0.12476109973E+02  0.12155939767E+01  0.40030897977E+01  0.13158864577E+02  0.51100000000E-03 0. -1.
        -11    1    3    3    0    0 -0.11129199764E+01 -0.12913901035E+00 -0.60131594263E+00  0.12715537274E+01  0.51100000000E-03 0.  1.
        -12    1    3    3    0    0 -0.25616310506E+02  0.96719226346E+01  0.15996980813E+02  0.31711903861E+02  0.00000000000E+00 0.  1.
</event>
<event>
 7    1  0.2250716E-008  0.4614232E+02  0.7816164E-02  0.1320468E+00
        -11   -1    0    0    0    0  0.00000000000E+00  0.00000000000E+00  0.45593999997E+02  0.45594000000E+02  0.51100000000E-03 0.  1.
         11   -1    0    0    0    0 -0.00000000000E+00 -0.00000000000E+00 -0.45593999997E+02  0.45594000000E+02  0.51100000000E-03 0. -1.
    9900012    2    1    2    0    0  0.17977945578E+02 -0.40534096967E+02 -0.79305681203E+01  0.46142318133E+02  0.10000003391E+02 0.  0.
         12    1    1    2    0    0 -0.17977945578E+02  0.40534096967E+02  0.79305681203E+01  0.45045681867E+02  0.00000000000E+00 0. -1.
         11    1    3    3    0    0  0.39168811823E+01 -0.58863251336E+01 -0.27938860467E+01  0.76024062820E+01  0.51100000000E-03 0.  1.
        -11    1    3    3    0    0  0.50503308879E+01 -0.18411593814E+02 -0.58178235814E+01  0.19958449347E+02  0.51100000000E-03 0. -1.
         12    1    3    3    0    0  0.90107335080E+01 -0.16236178019E+02  0.68114150777E+00  0.18581462504E+02  0.00000000000E+00 0. -1.
</event>
<event>
 7    1  0.2250716E-008  0.4614232E+02  0.7816164E-02  0.1320468E+00
        -11   -1    0    0    0    0  0.00000000000E+00  0.00000000000E+00  0.45593999997E+02  0.45594000000E+02  0.51100000000E-03 0.  1.
         11   -1    0    0    0    0 -0.00000000000E+00 -0.00000000000E+00 -0.45593999997E+02  0.45594000000E+02  0.51100000000E-03 0. -1.
    9900012    2    1    2    0    0 -0.37023814784E+02  0.13507780013E+02  0.21814918687E+02  0.46142315863E+02  0.99999826940E+01 0.  0.
         12    1    1    2    0    0  0.37023814784E+02 -0.13507780013E+02 -0.21814918687E+02  0.45045684137E+02  0.00000000000E+00 0. -1.
         11    1    3    3    0    0  0.20875857190E+00  0.77159636643E+00  0.16219128662E+01  0.18081876841E+01  0.51100000000E-03 0. -1.
        -11    1    3    3    0    0 -0.24201399437E+02  0.89370144951E+01  0.14684956659E+02  0.29685449553E+02  0.51100000000E-03 0.  1.
        -12    1    3    3    0    0 -0.13031173919E+02  0.37991691510E+01  0.55080491619E+01  0.14648678626E+02  0.00000000000E+00 0.  1.
</event>
<event>
 7    1  0.2250716E-008  0.4614232E+02  0.7816164E-02  0.1320468E+00
        -11   -1    0    0    0    0  0.00000000000E+00  0.00000000000E+00  0.45593999997E+02  0.45594000000E+02  0.51100000000E-03 0. -1.
         11   -1    0    0    0    0 -0.00000000000E+00 -0.00000000000E+00 -0.45593999997E+02  0.45594000000E+02  0.51100000000E-03 0.  1.
    9900012    2    1    2    0    0  0.10603784993E+02  0.29797356685E+02 -0.32074769144E+02  0.46142317219E+02  0.99999950563E+01 0.  0.
         12    1    1    2    0    0 -0.10603784993E+02 -0.29797356685E+02  0.32074769144E+02  0.45045682781E+02  0.00000000000E+00 0. -1.
         11    1    3    3    0    0 -0.76831602096E+00  0.21300081468E+01 -0.61035024141E+00  0.23451592466E+01  0.51100000000E-03 0. -1.
        -11    1    3    3    0    0  0.56237611267E+01  0.14122091884E+02 -0.11833723563E+02  0.19263882839E+02  0.51100000000E-03 0.  1.
        -12    1    3    3    0    0  0.57483398876E+01  0.13545256653E+02 -0.19630695339E+02  0.24533275133E+02  0.00000000000E+00 0.  1.
</event>
<event>
 7    1  0.2250716E-008  0.4614232E+02  0.7816164E-02  0.1320468E+00
        -11   -1    0    0    0    0  0.00000000000E+00  0.00000000000E+00  0.45593999997E+02  0.45594000000E+02  0.51100000000E-03 0.  1.
         11   -1    0    0    0    0 -0.00000000000E+00 -0.00000000000E+00 -0.45593999997E+02  0.45594000000E+02  0.51100000000E-03 0. -1.
    9900012    2    1    2    0    0  0.31191945439E+02  0.32496392624E+02 -0.40090617460E+00  0.46142315194E+02  0.99999765892E+01 0.  0.
         12    1    1    2    0    0 -0.31191945439E+02 -0.32496392624E+02  0.40090617460E+00  0.45045684806E+02  0.00000000000E+00 0. -1.
         11    1    3    3    0    0  0.13750181865E+02  0.13230351383E+02  0.45469075887E+01  0.19615913640E+02  0.51100000000E-03 0.  1.
        -11    1    3    3    0    0  0.14991431217E+01  0.21169944733E+01 -0.10047100548E+01  0.27818228295E+01  0.51100000000E-03 0. -1.
        -12    1    3    3    0    0  0.15942620453E+02  0.17149046768E+02 -0.39431037085E+01  0.23744578724E+02  0.00000000000E+00 0.  1.
</event>
<event>
 7    1  0.2250716E-008  0.4614232E+02  0.7816164E-02  0.1320468E+00
        -11   -1    0    0    0    0  0.00000000000E+00  0.00000000000E+00  0.45593999997E+02  0.45594000000E+02  0.51100000000E-03 0. -1.
         11   -1    0    0    0    0 -0.00000000000E+00 -0.00000000000E+00 -0.45593999997E+02  0.45594000000E+02  0.51100000000E-03 0.  1.
    9900012    2    1    2    0    0  0.25790350694E+02 -0.33598945320E+02 -0.15332388881E+02  0.46142318028E+02  0.10000002431E+02 0.  0.
         12    1    1    2    0    0 -0.25790350694E+02  0.33598945320E+02  0.15332388881E+02  0.45045681972E+02  0.00000000000E+00 0. -1.
         11    1    3    3    0    0  0.40803549944E+01 -0.97310680837E+01 -0.53292281768E+01  0.11821322098E+02  0.51100000000E-03 0. -1.
        -11    1    3    3    0    0  0.20029738356E+02 -0.23836312909E+02 -0.92514859738E+01  0.32479997301E+02  0.51100000000E-03 0.  1.
         12    1    3    3    0    0  0.16802573443E+01 -0.31564327472E-01 -0.75167473009E+00  0.18409986284E+01  0.00000000000E+00 0. -1.
</event>
<event>
 7    1  0.2250716E-008  0.4614232E+02  0.7816164E-02  0.1320468E+00
        -11   -1    0    0    0    0  0.00000000000E+00  0.00000000000E+00  0.45593999997E+02  0.45594000000E+02  0.51100000000E-03 0.  1.
         11   -1    0    0    0    0 -0.00000000000E+00 -0.00000000000E+00 -0.45593999997E+02  0.45594000000E+02  0.51100000000E-03 0. -1.
    9900012    2    1    2    0    0  0.80765357641E+01  0.31865894366E+02  0.30796879737E+02  0.46142318129E+02  0.10000003355E+02 0.  0.
         12    1    1    2    0    0 -0.80765357641E+01 -0.31865894366E+02 -0.30796879737E+02  0.45045681871E+02  0.00000000000E+00 0. -1.
         11    1    3    3    0    0  0.61835023684E+01  0.22791833559E+02  0.16695780397E+02  0.28921487891E+02  0.51100000000E-03 0. -1.
        -11    1    3    3    0    0  0.81399884414E+00  0.11970517360E+00  0.16798488321E+01  0.18705121776E+01  0.51100000000E-03 0.  1.
         12    1    3    3    0    0  0.10790345516E+01  0.89543556340E+01  0.12421250508E+02  0.15350318060E+02  0.00000000000E+00 0. -1.
</event>
<event>
 7    1  0.2250716E-008  0.4614233E+02  0.7816164E-02  0.1320468E+00
        -11   -1    0    0    0    0  0.00000000000E+00  0.00000000000E+00  0.45593999997E+02  0.45594000000E+02  0.51100000000E-03 0. -1.
         11   -1    0    0    0    0 -0.00000000000E+00 -0.00000000000E+00 -0.45593999997E+02  0.45594000000E+02  0.51100000000E-03 0.  1.
    9900012    2    1    2    0    0  0.33972810240E+02 -0.11545049780E+02 -0.27233669594E+02  0.46142325740E+02  0.10000072754E+02 0.  0.
         12    1    1    2    0    0 -0.33972810240E+02  0.11545049780E+02  0.27233669594E+02  0.45045674260E+02  0.00000000000E+00 0. -1.
         11    1    3    3    0    0  0.33308279001E+01 -0.32294874467E+01 -0.43197105076E+01  0.63390774407E+01  0.51100000000E-03 0. -1.
        -11    1    3    3    0    0  0.23447236575E+02 -0.76149352808E+01 -0.20844852800E+02  0.32284176168E+02  0.51100000000E-03 0.  1.
        -12    1    3    3    0    0  0.71947457642E+01 -0.70062705200E+00 -0.20691062870E+01  0.75190721306E+01  0.00000000000E+00 0.  1.
</event>
<event>
 7    1  0.2250716E-008  0.4614232E+02  0.7816164E-02  0.1320468E+00
        -11   -1    0    0    0    0  0.00000000000E+00  0.00000000000E+00  0.45593999997E+02  0.45594000000E+02  0.51100000000E-03 0.  1.
         11   -1    0    0    0    0 -0.00000000000E+00 -0.00000000000E+00 -0.45593999997E+02  0.45594000000E+02  0.51100000000E-03 0. -1.
    9900012    2    1    2    0    0 -0.11509792384E+01  0.21552522182E+01  0.44979369745E+02  0.46142316877E+02  0.99999919396E+01 0.  0.
         12    1    1    2    0    0  0.11509792384E+01 -0.21552522182E+01 -0.44979369745E+02  0.45045683123E+02  0.00000000000E+00 0. -1.
         11    1    3    3    0    0 -0.63374054489E+00  0.15052086929E+01  0.12762477795E+02  0.12866550432E+02  0.51100000000E-03 0. -1.
        -11    1    3    3    0    0 -0.14337016712E+01  0.33344945545E+01  0.27736124989E+02  0.27972611321E+02  0.51100000000E-03 0.  1.
         12    1    3    3    0    0  0.91646297769E+00 -0.26844510292E+01  0.44807669608E+01  0.53031551246E+01  0.00000000000E+00 0. -1.
</event>
<event>
 7    1  0.2250716E-008  0.4614232E+02  0.7816164E-02  0.1320468E+00
        -11   -1    0    0    0    0  0.00000000000E+00  0.00000000000E+00  0.45593999997E+02  0.45594000000E+02  0.51100000000E-03 0.  1.
         11   -1    0    0    0    0 -0.00000000000E+00 -0.00000000000E+00 -0.45593999997E+02  0.45594000000E+02  0.51100000000E-03 0. -1.
    9900012    2    1    2    0    0  0.67124848383E+01 -0.12147724514E+02  0.42854273251E+02  0.46142318748E+02  0.10000009003E+02 0.  0.
         12    1    1    2    0    0 -0.67124848383E+01  0.12147724514E+02 -0.42854273251E+02  0.45045681252E+02  0.00000000000E+00 0. -1.
         11    1    3    3    0    0  0.22338052431E+01 -0.21043594894E+01  0.26204228688E+01  0.40354468150E+01  0.51100000000E-03 0. -1.
        -11    1    3    3    0    0  0.41498425065E+01 -0.24520630443E+01  0.15497978305E+02  0.16230253781E+02  0.51100000000E-03 0.  1.
        -12    1    3    3    0    0  0.32883708876E+00 -0.75913019807E+01  0.24735872077E+02  0.25876618152E+02  0.00000000000E+00 0.  1.
</event>
<event>
 7    1  0.2250716E-008  0.4614232E+02  0.7816164E-02  0.1320468E+00
        -11   -1    0    0    0    0  0.00000000000E+00  0.00000000000E+00  0.45593999997E+02  0.45594000000E+02  0.51100000000E-03 0. -1.
         11   -1    0    0    0    0 -0.00000000000E+00 -0.00000000000E+00 -0.45593999997E+02  0.45594000000E+02  0.51100000000E-03 0.  1.
    9900012    2    1    2    0    0 -0.37847594197E+02 -0.17508250878E+02 -0.17033327733E+02  0.46142317755E+02  0.99999999423E+01 0.  0.
         12    1    1    2    0    0  0.37847594197E+02  0.17508250878E+02  0.17033327733E+02  0.45045682245E+02  0.00000000000E+00 0. -1.
         11    1    3    3    0    0 -0.56172694187E+01 -0.12790550356E+01 -0.51493050513E+01  0.77269036670E+01  0.51100000000E-03 0. -1.
        -11    1    3    3    0    0 -0.24567649686E+02 -0.12853663193E+02 -0.11547330820E+02  0.30035427713E+02  0.51100000000E-03 0.  1.
        -12    1    3    3    0    0 -0.76626750919E+01 -0.33755326490E+01 -0.33669186145E+00  0.83799863746E+01  0.00000000000E+00 0.  1.
</event>
<event>
 7    1  0.2250716E-008  0.4614232E+02  0.7816164E-02  0.1320468E+00
        -11   -1    0    0    0    0  0.00000000000E+00  0.00000000000E+00  0.45593999997E+02  0.45594000000E+02  0.51100000000E-03 0.  1.
         11   -1    0    0    0    0 -0.00000000000E+00 -0.00000000000E+00 -0.45593999997E+02  0.45594000000E+02  0.51100000000E-03 0. -1.
    9900012    2    1    2    0    0  0.10780795834E+02  0.22796270605E+02  0.37325835388E+02  0.46142317635E+02  0.99999988508E+01 0.  0.
         12    1    1    2    0    0 -0.10780795834E+02 -0.22796270605E+02 -0.37325835388E+02  0.45045682365E+02  0.00000000000E+00 0. -1.
         11    1    3    3    0    0  0.18189988427E+01  0.10935170376E+02  0.16444863652E+02  0.19832303163E+02  0.51100000000E-03 0. -1.
        -11    1    3    3    0    0  0.88193577628E+01  0.12085778173E+02  0.21166080468E+02  0.25920070757E+02  0.51100000000E-03 0.  1.
         12    1    3    3    0    0  0.14243922831E+00 -0.22467794343E+00 -0.28510873242E+00  0.38994371559E+00  0.00000000000E+00 0. -1.
</event>
<event>
 7    1  0.2250716E-008  0.4614232E+02  0.7816164E-02  0.1320468E+00
        -11   -1    0    0    0    0  0.00000000000E+00  0.00000000000E+00  0.45593999997E+02  0.45594000000E+02  0.51100000000E-03 0. -1.
         11   -1    0    0    0    0 -0.00000000000E+00 -0.00000000000E+00 -0.45593999997E+02  0.45594000000E+02  0.51100000000E-03 0.  1.
    9900012    2    1    2    0    0  0.25517699930E+02 -0.36841402388E+02 -0.45465964448E+01  0.46142317866E+02  0.10000000958E+02 0.  0.
         12    1    1    2    0    0 -0.25517699930E+02  0.36841402388E+02  0.45465964448E+01  0.45045682134E+02  0.00000000000E+00 0. -1.
         11    1    3    3    0    0 -0.23264024949E+00  0.38505650221E+00  0.44003195387E-01  0.45202493062E+00  0.51100000000E-03 0. -1.
        -11    1    3    3    0    0  0.98267003095E+00 -0.36509136533E+00 -0.15905537676E+00  0.10602975850E+01  0.51100000000E-03 0.  1.
        -12    1    3    3    0    0  0.24767670149E+02 -0.36861367525E+02 -0.44315442635E+01  0.44629995351E+02  0.00000000000E+00 0.  1.
</event>
<event>
 7    1  0.2250716E-008  0.4614232E+02  0.7816164E-02  0.1320468E+00
        -11   -1    0    0    0    0  0.00000000000E+00  0.00000000000E+00  0.45593999997E+02  0.45594000000E+02  0.51100000000E-03 0.  1.
         11   -1    0    0    0    0 -0.00000000000E+00 -0.00000000000E+00 -0.45593999997E+02  0.45594000000E+02  0.51100000000E-03 0. -1.
    9900012    2    1    2    0    0 -0.41704688150E+02 -0.16985911984E+02 -0.11451083853E+01  0.46142317712E+02  0.99999995503E+01 0.  0.
         12    1    1    2    0    0  0.41704688150E+02  0.16985911984E+02  0.11451083853E+01  0.45045682288E+02  0.00000000000E+00 0. -1.
         11    1    3    3    0    0 -0.13754080531E+02 -0.17079330347E+01 -0.77205424540E+00  0.13881204362E+02  0.51100000000E-03 0. -1.
        -11    1    3    3    0    0 -0.17398138242E+02 -0.96824277780E+01 -0.26974602710E+01  0.20092807523E+02  0.51100000000E-03 0.  1.
        -12    1    3    3    0    0 -0.10552469376E+02 -0.55955511709E+01  0.23244061311E+01  0.12168305827E+02  0.00000000000E+00 0.  1.
</event>
<event>
 7    1  0.2295532E-008  0.4614232E+02  0.7816164E-02  0.1320468E+00
        -11   -1    0    0    0    0  0.00000000000E+00  0.00000000000E+00  0.45593999997E+02  0.45594000000E+02  0.51100000000E-03 0. -1.
         11   -1    0    0    0    0 -0.00000000000E+00 -0.00000000000E+00 -0.45593999997E+02  0.45594000000E+02  0.51100000000E-03 0.  1.
    9900012    2    1    2    0    0  0.29819461374E+02  0.33760494315E+02 -0.37711709186E+00  0.46142317961E+02  0.10000001826E+02 0.  0.
         12    1    1    2    0    0 -0.29819461374E+02 -0.33760494315E+02  0.37711709186E+00  0.45045682039E+02  0.00000000000E+00 0. -1.
         11    1    3    3    0    0  0.10268198778E+01  0.50976106941E+01 -0.68759748822E-01  0.52004540200E+01  0.51100000000E-03 0. -1.
        -11    1    3    3    0    0  0.16036899894E+01  0.14818325607E+01  0.11519693747E+01  0.24687411815E+01  0.51100000000E-03 0.  1.
        -12    1    3    3    0    0  0.27188951506E+02  0.27181051060E+02 -0.14603267177E+01  0.38473122760E+02  0.00000000000E+00 0.  1.
</event>
<event>
 7    1  0.2250716E-008  0.4614232E+02  0.7816164E-02  0.1320468E+00
        -11   -1    0    0    0    0  0.00000000000E+00  0.00000000000E+00  0.45593999997E+02  0.45594000000E+02  0.51100000000E-03 0. -1.
         11   -1    0    0    0    0 -0.00000000000E+00 -0.00000000000E+00 -0.45593999997E+02  0.45594000000E+02  0.51100000000E-03 0.  1.
    9900012    2    1    2    0    0  0.20584891021E+02 -0.69695155283E+01 -0.39456325792E+02  0.46142317299E+02  0.99999957837E+01 0.  0.
         12    1    1    2    0    0 -0.20584891021E+02  0.69695155283E+01  0.39456325792E+02  0.45045682701E+02  0.00000000000E+00 0. -1.
         11    1    3    3    0    0  0.88882279325E+01 -0.60029555197E+01 -0.12841742468E+02  0.16731599464E+02  0.51100000000E-03 0.  1.
        -11    1    3    3    0    0  0.55055498963E+01  0.85137303639E+00 -0.83318596379E+01  0.10022764139E+02  0.51100000000E-03 0. -1.
        -12    1    3    3    0    0  0.61911131922E+01 -0.18179330450E+01 -0.18282723686E+02  0.19387953695E+02  0.00000000000E+00 0.  1.
</event>
<event>
 7    1  0.2250716E-008  0.4614232E+02  0.7816164E-02  0.1320468E+00
        -11   -1    0    0    0    0  0.00000000000E+00  0.00000000000E+00  0.45593999997E+02  0.45594000000E+02  0.51100000000E-03 0. -1.
         11   -1    0    0    0    0 -0.00000000000E+00 -0.00000000000E+00 -0.45593999997E+02  0.45594000000E+02  0.51100000000E-03 0.  1.
    9900012    2    1    2    0    0 -0.16385082084E+02  0.25953914490E+02  0.32970242831E+02  0.46142317581E+02  0.99999983611E+01 0.  0.
         12    1    1    2    0    0  0.16385082084E+02 -0.25953914490E+02 -0.32970242831E+02  0.45045682419E+02  0.00000000000E+00 0. -1.
         11    1    3    3    0    0 -0.86425036375E+01  0.82574537181E+01  0.11093960456E+02  0.16308107489E+02  0.51100000000E-03 0. -1.
        -11    1    3    3    0    0 -0.60342177082E+01  0.10626552451E+02  0.17504281206E+02  0.21347956838E+02  0.51100000000E-03 0.  1.
        -12    1    3    3    0    0 -0.17083607380E+01  0.70699083206E+01  0.43720011691E+01  0.84862532543E+01  0.00000000000E+00 0.  1.
</event>
<event>
 7    1  0.2250716E-008  0.4614232E+02  0.7816164E-02  0.1320468E+00
        -11   -1    0    0    0    0  0.00000000000E+00  0.00000000000E+00  0.45593999997E+02  0.45594000000E+02  0.51100000000E-03 0.  1.
         11   -1    0    0    0    0 -0.00000000000E+00 -0.00000000000E+00 -0.45593999997E+02  0.45594000000E+02  0.51100000000E-03 0. -1.
    9900012    2    1    2    0    0 -0.13131894025E+02  0.29140268735E+01  0.42990411082E+02  0.46142316097E+02  0.99999848230E+01 0.  0.
         12    1    1    2    0    0  0.13131894025E+02 -0.29140268735E+01 -0.42990411082E+02  0.45045683903E+02  0.00000000000E+00 0. -1.
         11    1    3    3    0    0 -0.45335918768E+01  0.17423509849E+01  0.19004859004E+02  0.19615654673E+02  0.51100000000E-03 0. -1.
        -11    1    3    3    0    0 -0.98491785452E+01  0.16371754749E+01  0.21508583977E+02  0.23712988983E+02  0.51100000000E-03 0.  1.
         12    1    3    3    0    0  0.12508763971E+01 -0.46549958620E+00  0.24769681019E+01  0.28136724406E+01  0.00000000000E+00 0. -1.
</event>
<event>
 7    1  0.2250716E-008  0.4614232E+02  0.7816164E-02  0.1320468E+00
        -11   -1    0    0    0    0  0.00000000000E+00  0.00000000000E+00  0.45593999997E+02  0.45594000000E+02  0.51100000000E-03 0.  1.
         11   -1    0    0    0    0 -0.00000000000E+00 -0.00000000000E+00 -0.45593999997E+02  0.45594000000E+02  0.51100000000E-03 0. -1.
    9900012    2    1    2    0    0  0.22308960798E+02 -0.20327845491E+02  0.33439533238E+02  0.46142318549E+02  0.10000007187E+02 0.  0.
         12    1    1    2    0    0 -0.22308960798E+02  0.20327845491E+02 -0.33439533238E+02  0.45045681451E+02  0.00000000000E+00 0. -1.
         11    1    3    3    0    0  0.10624234331E+02 -0.10644839217E+02  0.11651086421E+02  0.19024583363E+02  0.51100000000E-03 0. -1.
        -11    1    3    3    0    0  0.10589468184E+02 -0.57800088254E+01  0.15620302535E+02  0.19736747198E+02  0.51100000000E-03 0.  1.
         12    1    3    3    0    0  0.10952582826E+01 -0.39029974480E+01  0.61681442825E+01  0.73809879877E+01  0.00000000000E+00 0. -1.
</event>
<event>
 7    1  0.2250716E-008  0.4614232E+02  0.7816164E-02  0.1320468E+00
        -11   -1    0    0    0    0  0.00000000000E+00  0.00000000000E+00  0.45593999997E+02  0.45594000000E+02  0.51100000000E-03 0.  1.
         11   -1    0    0    0    0 -0.00000000000E+00 -0.00000000000E+00 -0.45593999997E+02  0.45594000000E+02  0.51100000000E-03 0. -1.
    9900012    2    1    2    0    0 -0.18527891220E+02 -0.28979982344E+02 -0.29085926548E+02  0.46142320375E+02  0.10000023840E+02 0.  0.
         12    1    1    2    0    0  0.18527891220E+02  0.28979982344E+02  0.29085926548E+02  0.45045679625E+02  0.00000000000E+00 0. -1.
         11    1    3    3    0    0 -0.76381579315E+01 -0.15934769547E+02 -0.13638153257E+02  0.22321683664E+02  0.51100000000E-03 0.  1.
        -11    1    3    3    0    0 -0.47604440837E+01 -0.50304934682E+01 -0.24068394489E+01  0.73321599001E+01  0.51100000000E-03 0. -1.
        -12    1    3    3    0    0 -0.61292892046E+01 -0.80147193290E+01 -0.13040933842E+02  0.16488476811E+02  0.00000000000E+00 0.  1.
</event>
<event>
 7    1  0.2250716E-008  0.4614232E+02  0.7816164E-02  0.1320468E+00
        -11   -1    0    0    0    0  0.00000000000E+00  0.00000000000E+00  0.45593999997E+02  0.45594000000E+02  0.51100000000E-03 0.  1.
         11   -1    0    0    0    0 -0.00000000000E+00 -0.00000000000E+00 -0.45593999997E+02  0.45594000000E+02  0.51100000000E-03 0. -1.
    9900012    2    1    2    0    0 -0.12453412244E+02 -0.22147876718E+02  0.37195397269E+02  0.46142317658E+02  0.99999990639E+01 0.  0.
         12    1    1    2    0    0  0.12453412244E+02  0.22147876718E+02 -0.37195397269E+02  0.45045682342E+02  0.00000000000E+00 0. -1.
         11    1    3    3    0    0 -0.32753545228E+00  0.61507588348E+00  0.17108212320E+01  0.18472973133E+01  0.51100000000E-03 0. -1.
        -11    1    3    3    0    0 -0.99864749062E+01 -0.19890308367E+02  0.33443816261E+02  0.40172663521E+02  0.51100000000E-03 0.  1.
         12    1    3    3    0    0 -0.21394018851E+01 -0.28726442345E+01  0.20407597756E+01  0.41223568241E+01  0.00000000000E+00 0. -1.
</event>
<event>
 7    1  0.2250716E-008  0.4614232E+02  0.7816164E-02  0.1320468E+00
        -11   -1    0    0    0    0  0.00000000000E+00  0.00000000000E+00  0.45593999997E+02  0.45594000000E+02  0.51100000000E-03 0. -1.
         11   -1    0    0    0    0 -0.00000000000E+00 -0.00000000000E+00 -0.45593999997E+02  0.45594000000E+02  0.51100000000E-03 0.  1.
    9900012    2    1    2    0    0  0.78621185664E+01  0.42078415808E+02 -0.14025249766E+02  0.46142316342E+02  0.99999870550E+01 0.  0.
         12    1    1    2    0    0 -0.78621185664E+01 -0.42078415808E+02  0.14025249766E+02  0.45045683658E+02  0.00000000000E+00 0. -1.
         11    1    3    3    0    0  0.33661720891E+01  0.17974911727E+02 -0.84829273297E+01  0.20159082878E+02  0.51100000000E-03 0. -1.
        -11    1    3    3    0    0  0.20800175580E+01  0.54694580780E+01 -0.40857357603E+01  0.71368537656E+01  0.51100000000E-03 0.  1.
         12    1    3    3    0    0  0.24159289192E+01  0.18634046003E+02 -0.14565866763E+01  0.18846379698E+02  0.00000000000E+00 0. -1.
</event>
<event>
 7    1  0.2250716E-008  0.4614232E+02  0.7816164E-02  0.1320468E+00
        -11   -1    0    0    0    0  0.00000000000E+00  0.00000000000E+00  0.45593999997E+02  0.45594000000E+02  0.51100000000E-03 0.  1.
         11   -1    0    0    0    0 -0.00000000000E+00 -0.00000000000E+00 -0.45593999997E+02  0.45594000000E+02  0.51100000000E-03 0. -1.
    9900012    2    1    2    0    0  0.30933299322E+02  0.26365712355E+02  0.19418899746E+02  0.46142318051E+02  0.10000002639E+02 0.  0.
         12    1    1    2    0    0 -0.30933299322E+02 -0.26365712355E+02 -0.19418899746E+02  0.45045681949E+02  0.00000000000E+00 0. -1.
         11    1    3    3    0    0  0.28810353333E+01 -0.18840170814E+00  0.11759248516E+01  0.31174764334E+01  0.51100000000E-03 0. -1.
        -11    1    3    3    0    0  0.44265849074E+01  0.70678215059E+01  0.37656051543E+01  0.91503298968E+01  0.51100000000E-03 0.  1.
        -12    1    3    3    0    0  0.23625679081E+02  0.19486292558E+02  0.14477369741E+02  0.33874511720E+02  0.00000000000E+00 0.  1.
</event>
<event>
 7    1  0.2250716E-008  0.4614232E+02  0.7816164E-02  0.1320468E+00
        -11   -1    0    0    0    0  0.00000000000E+00  0.00000000000E+00  0.45593999997E+02  0.45594000000E+02  0.51100000000E-03 0.  1.
         11   -1    0    0    0    0 -0.00000000000E+00 -0.00000000000E+00 -0.45593999997E+02  0.45594000000E+02  0.51100000000E-03 0. -1.
    9900012    2    1    2    0    0  0.21022761154E+02 -0.38903219255E+02 -0.85846679835E+01  0.46142317862E+02  0.10000000915E+02 0.  0.
         12    1    1    2    0    0 -0.21022761154E+02  0.38903219255E+02  0.85846679835E+01  0.45045682138E+02  0.00000000000E+00 0. -1.
         11    1    3    3    0    0  0.42706063251E+01 -0.80675804785E+01 -0.23335246018E+00  0.91311766379E+01  0.51100000000E-03 0. -1.
        -11    1    3    3    0    0  0.88248636297E+01 -0.24037644638E+02 -0.62696850629E+01  0.26362767853E+02  0.51100000000E-03 0.  1.
         12    1    3    3    0    0  0.79272911992E+01 -0.67979941382E+01 -0.20816304604E+01  0.10648373370E+02  0.00000000000E+00 0. -1.
</event>
<event>
 7    1  0.2250716E-008  0.4614232E+02  0.7816164E-02  0.1320468E+00
        -11   -1    0    0    0    0  0.00000000000E+00  0.00000000000E+00  0.45593999997E+02  0.45594000000E+02  0.51100000000E-03 0.  1.
         11   -1    0    0    0    0 -0.00000000000E+00 -0.00000000000E+00 -0.45593999997E+02  0.45594000000E+02  0.51100000000E-03 0. -1.
    9900012    2    1    2    0    0 -0.13932145470E+02  0.15876488747E+02  0.39786252245E+02  0.46142318298E+02  0.10000004896E+02 0.  0.
         12    1    1    2    0    0  0.13932145470E+02 -0.15876488747E+02 -0.39786252245E+02  0.45045681702E+02  0.00000000000E+00 0. -1.
         11    1    3    3    0    0 -0.52692699423E+01  0.36119858963E+01  0.75974213392E+01  0.99263517521E+01  0.51100000000E-03 0. -1.
        -11    1    3    3    0    0 -0.79732268589E+01  0.56695552012E+01  0.16484398386E+02  0.19169026922E+02  0.51100000000E-03 0.  1.
        -12    1    3    3    0    0 -0.68964866857E+00  0.65949476490E+01  0.15704432520E+02  0.17046939624E+02  0.00000000000E+00 0.  1.
</event>
<event>
 7    1  0.2632824E-008  0.4614232E+02  0.7816164E-02  0.1320468E+00
        -11   -1    0    0    0    0  0.00000000000E+00  0.00000000000E+00  0.45593999997E+02  0.45594000000E+02  0.51100000000E-03 0. -1.
         11   -1    0    0    0    0 -0.00000000000E+00 -0.00000000000E+00 -0.45593999997E+02  0.45594000000E+02  0.51100000000E-03 0.  1.
    9900012    2    1    2    0    0 -0.39169090998E+02 -0.21761660243E+02  0.46179950870E+01  0.46142318467E+02  0.10000006434E+02 0.  0.
         12    1    1    2    0    0  0.39169090998E+02  0.21761660243E+02 -0.46179950870E+01  0.45045681533E+02  0.00000000000E+00 0. -1.
         11    1    3    3    0    0 -0.39609294277E+01 -0.32321020441E+01  0.22209164723E+01  0.55738600443E+01  0.51100000000E-03 0. -1.
        -11    1    3    3    0    0 -0.43656314748E+01 -0.45106751105E+01  0.23112029351E+01  0.66892890052E+01  0.51100000000E-03 0.  1.
        -12    1    3    3    0    0 -0.30842530096E+02 -0.14018883089E+02  0.85875679587E-01  0.33879169417E+02  0.00000000000E+00 0.  1.
</event>
<event>
 7    1  0.2250716E-008  0.4614232E+02  0.7816164E-02  0.1320468E+00
        -11   -1    0    0    0    0  0.00000000000E+00  0.00000000000E+00  0.45593999997E+02  0.45594000000E+02  0.51100000000E-03 0.  1.
         11   -1    0    0    0    0 -0.00000000000E+00 -0.00000000000E+00 -0.45593999997E+02  0.45594000000E+02  0.51100000000E-03 0. -1.
    9900012    2    1    2    0    0  0.23009209664E+02 -0.18259386358E+02  0.34150908701E+02  0.46142317803E+02  0.10000000379E+02 0.  0.
         12    1    1    2    0    0 -0.23009209664E+02  0.18259386358E+02 -0.34150908701E+02  0.45045682197E+02  0.00000000000E+00 0. -1.
         11    1    3    3    0    0  0.10421979679E+01 -0.13189102650E+01  0.27995602188E+00  0.17041351257E+01  0.51100000000E-03 0. -1.
        -11    1    3    3    0    0  0.72110607165E+01 -0.10149406445E+02  0.13144889398E+02  0.18105191669E+02  0.51100000000E-03 0.  1.
         12    1    3    3    0    0  0.14755950979E+02 -0.67910696480E+01  0.20726063281E+02  0.26332991008E+02  0.00000000000E+00 0. -1.
</event>
<event>
 7    1  0.2250716E-008  0.4614232E+02  0.7816164E-02  0.1320468E+00
        -11   -1    0    0    0    0  0.00000000000E+00  0.00000000000E+00  0.45593999997E+02  0.45594000000E+02  0.51100000000E-03 0.  1.
         11   -1    0    0    0    0 -0.00000000000E+00 -0.00000000000E+00 -0.45593999997E+02  0.45594000000E+02  0.51100000000E-03 0. -1.
    9900012    2    1    2    0    0  0.75854073451E+00  0.35305084182E+01  0.44900707798E+02  0.46142318359E+02  0.10000005452E+02 0.  0.
         12    1    1    2    0    0 -0.75854073451E+00 -0.35305084182E+01 -0.44900707798E+02  0.45045681641E+02  0.00000000000E+00 0. -1.
         11    1    3    3    0    0 -0.62685777177E+00 -0.20298104756E+01  0.12133575094E+02  0.12318146211E+02  0.51100000000E-03 0. -1.
        -11    1    3    3    0    0  0.88757240431E+00  0.86685125697E+00  0.22387349993E+02  0.22421700556E+02  0.51100000000E-03 0.  1.
        -12    1    3    3    0    0  0.49782610197E+00  0.46934676368E+01  0.10379782711E+02  0.11402471592E+02  0.00000000000E+00 0.  1.
</event>
<event>
 7    1  0.2250716E-008  0.4614232E+02  0.7816164E-02  0.1320468E+00
        -11   -1    0    0    0    0  0.00000000000E+00  0.00000000000E+00  0.45593999997E+02  0.45594000000E+02  0.51100000000E-03 0. -1.
         11   -1    0    0    0    0 -0.00000000000E+00 -0.00000000000E+00 -0.45593999997E+02  0.45594000000E+02  0.51100000000E-03 0.  1.
    9900012    2    1    2    0    0 -0.25717133739E+02 -0.28128849598E+02 -0.24010630434E+02  0.46142317396E+02  0.99999966722E+01 0.  0.
         12    1    1    2    0    0  0.25717133739E+02  0.28128849598E+02  0.24010630434E+02  0.45045682604E+02  0.00000000000E+00 0. -1.
         11    1    3    3    0    0 -0.96865825125E+01 -0.12282184391E+02 -0.15484476210E+02  0.22010246203E+02  0.51100000000E-03 0.  1.
        -11    1    3    3    0    0 -0.75253469084E+01 -0.68769985714E+01 -0.43649168821E+01  0.11089474969E+02  0.51100000000E-03 0. -1.
        -12    1    3    3    0    0 -0.85052043176E+01 -0.89696666355E+01 -0.41612373417E+01  0.13042596224E+02  0.00000000000E+00 0.  1.
</event>
<event>
 7    1  0.2250716E-008  0.4614232E+02  0.7816164E-02  0.1320468E+00
        -11   -1    0    0    0    0  0.00000000000E+00  0.00000000000E+00  0.45593999997E+02  0.45594000000E+02  0.51100000000E-03 0.  1.
         11   -1    0    0    0    0 -0.00000000000E+00 -0.00000000000E+00 -0.45593999997E+02  0.45594000000E+02  0.51100000000E-03 0. -1.
    9900012    2    1    2    0    0  0.32877500631E+02 -0.21602096670E+02  0.21943856752E+02  0.46142317882E+02  0.10000001104E+02 0.  0.
         12    1    1    2    0    0 -0.32877500631E+02  0.21602096670E+02 -0.21943856752E+02  0.45045682118E+02  0.00000000000E+00 0. -1.
         11    1    3    3    0    0  0.97934221914E+01 -0.72461999300E+01  0.11228942261E+02  0.16568273181E+02  0.51100000000E-03 0. -1.
        -11    1    3    3    0    0  0.17268286576E+02 -0.86970375531E+01  0.87638647237E+01  0.21228224340E+02  0.51100000000E-03 0.  1.
         12    1    3    3    0    0  0.58157918638E+01 -0.56588591873E+01  0.19510497670E+01  0.83458203610E+01  0.00000000000E+00 0. -1.
</event>
<event>
 7    1  0.2250716E-008  0.4614232E+02  0.7816164E-02  0.1320468E+00
        -11   -1    0    0    0    0  0.00000000000E+00  0.00000000000E+00  0.45593999997E+02  0.45594000000E+02  0.51100000000E-03 0.  1.
         11   -1    0    0    0    0 -0.00000000000E+00 -0.00000000000E+00 -0.45593999997E+02  0.45594000000E+02  0.51100000000E-03 0. -1.
    9900012    2    1    2    0    0  0.28271896147E+02 -0.27691207097E+02  0.21517682019E+02  0.46142315393E+02  0.99999784078E+01 0.  0.
         12    1    1    2    0    0 -0.28271896147E+02  0.27691207097E+02 -0.21517682019E+02  0.45045684607E+02  0.00000000000E+00 0. -1.
         11    1    3    3    0    0  0.39658036751E+01 -0.47324121148E+01  0.14795361416E+01  0.63492007898E+01  0.51100000000E-03 0.  1.
        -11    1    3    3    0    0 -0.12148023984E+00 -0.25344854808E+01  0.15653773281E+01  0.29814057996E+01  0.51100000000E-03 0. -1.
        -12    1    3    3    0    0  0.24427572712E+02 -0.20424309501E+02  0.18472768549E+02  0.36811708804E+02  0.00000000000E+00 0.  1.
</event>
<event>
 7    1  0.2250716E-008  0.4614232E+02  0.7816164E-02  0.1320468E+00
        -11   -1    0    0    0    0  0.00000000000E+00  0.00000000000E+00  0.45593999997E+02  0.45594000000E+02  0.51100000000E-03 0.  1.
         11   -1    0    0    0    0 -0.00000000000E+00 -0.00000000000E+00 -0.45593999997E+02  0.45594000000E+02  0.51100000000E-03 0. -1.
    9900012    2    1    2    0    0 -0.13891834623E+02 -0.32829494036E+02  0.27538239731E+02  0.46142318794E+02  0.10000009420E+02 0.  0.
         12    1    1    2    0    0  0.13891834623E+02  0.32829494036E+02 -0.27538239731E+02  0.45045681206E+02  0.00000000000E+00 0. -1.
         11    1    3    3    0    0 -0.54840744752E+01 -0.72682916654E+01  0.68964170052E+01  0.11422070931E+02  0.51100000000E-03 0. -1.
        -11    1    3    3    0    0 -0.53457829571E+01 -0.13548473826E+02  0.66042449513E+01  0.15992329101E+02  0.51100000000E-03 0.  1.
         12    1    3    3    0    0 -0.30619771906E+01 -0.12012728545E+02  0.14037577774E+02  0.18727918762E+02  0.00000000000E+00 0. -1.
</event>
<event>
 7    1  0.2250716E-008  0.4614232E+02  0.7816164E-02  0.1320468E+00
        -11   -1    0    0    0    0  0.00000000000E+00  0.00000000000E+00  0.45593999997E+02  0.45594000000E+02  0.51100000000E-03 0. -1.
         11   -1    0    0    0    0 -0.00000000000E+00 -0.00000000000E+00 -0.45593999997E+02  0.45594000000E+02  0.51100000000E-03 0.  1.
    9900012    2    1    2    0    0 -0.38596293819E+01  0.18281203421E+02 -0.40987978820E+02  0.46142317130E+02  0.99999942481E+01 0.  0.
         12    1    1    2    0    0  0.38596293819E+01 -0.18281203421E+02  0.40987978820E+02  0.45045682870E+02  0.00000000000E+00 0. -1.
         11    1    3    3    0    0 -0.31523006869E+01  0.61369162680E+01 -0.91548679523E+01  0.11463435279E+02  0.51100000000E-03 0. -1.
        -11    1    3    3    0    0 -0.98080756305E+00  0.10116045833E+02 -0.17799259518E+02  0.20496585238E+02  0.51100000000E-03 0.  1.
        -12    1    3    3    0    0  0.27347886807E+00  0.20282413197E+01 -0.14033851350E+02  0.14182296614E+02  0.00000000000E+00 0.  1.
</event>
<event>
 7    1  0.2250716E-008  0.4614232E+02  0.7816164E-02  0.1320468E+00
        -11   -1    0    0    0    0  0.00000000000E+00  0.00000000000E+00  0.45593999997E+02  0.45594000000E+02  0.51100000000E-03 0.  1.
         11   -1    0    0    0    0 -0.00000000000E+00 -0.00000000000E+00 -0.45593999997E+02  0.45594000000E+02  0.51100000000E-03 0. -1.
    9900012    2    1    2    0    0 -0.40926008871E+02  0.10872091783E+02  0.15361407955E+02  0.46142318341E+02  0.10000005284E+02 0.  0.
         12    1    1    2    0    0  0.40926008871E+02 -0.10872091783E+02 -0.15361407955E+02  0.45045681659E+02  0.00000000000E+00 0. -1.
         11    1    3    3    0    0 -0.65725157216E+01  0.43663849308E+01  0.63375083669E+00  0.79161177770E+01  0.51100000000E-03 0.  1.
        -11    1    3    3    0    0 -0.24634785640E+02  0.64548141619E+01  0.11863383696E+02  0.28094076998E+02  0.51100000000E-03 0. -1.
        -12    1    3    3    0    0 -0.97187075092E+01  0.50892690261E-01  0.28642734226E+01  0.10132123566E+02  0.00000000000E+00 0.  1.
</event>
<event>
 7    1  0.2250716E-008  0.4614232E+02  0.7816164E-02  0.1320468E+00
        -11   -1    0    0    0    0  0.00000000000E+00  0.00000000000E+00  0.45593999997E+02  0.45594000000E+02  0.51100000000E-03 0. -1.
         11   -1    0    0    0    0 -0.00000000000E+00 -0.00000000000E+00 -0.45593999997E+02  0.45594000000E+02  0.51100000000E-03 0.  1.
    9900012    2    1    2    0    0  0.30273636945E+02  0.33234663631E+02  0.28420969049E+01  0.46142317905E+02  0.10000001315E+02 0.  0.
         12    1    1    2    0    0 -0.30273636945E+02 -0.33234663631E+02 -0.28420969049E+01  0.45045682095E+02  0.00000000000E+00 0. -1.
         11    1    3    3    0    0  0.27499955873E+01  0.36947882698E+01 -0.13773505060E+01  0.48073933442E+01  0.51100000000E-03 0. -1.
        -11    1    3    3    0    0  0.20225748575E+02  0.24380145637E+02  0.57521879649E+00  0.31682854727E+02  0.51100000000E-03 0.  1.
         12    1    3    3    0    0  0.72978927824E+01  0.51597297246E+01  0.36442286144E+01  0.96520698344E+01  0.00000000000E+00 0. -1.
</event>
<event>
 7    1  0.2250716E-008  0.4614232E+02  0.7816164E-02  0.1320468E+00
        -11   -1    0    0    0    0  0.00000000000E+00  0.00000000000E+00  0.45593999997E+02  0.45594000000E+02  0.51100000000E-03 0.  1.
         11   -1    0    0    0    0 -0.00000000000E+00 -0.00000000000E+00 -0.45593999997E+02  0.45594000000E+02  0.51100000000E-03 0. -1.
    9900012    2    1    2    0    0  0.11073663803E+02  0.72842526015E+01  0.43051446920E+02  0.46142318210E+02  0.10000004097E+02 0.  0.
         12    1    1    2    0    0 -0.11073663803E+02 -0.72842526015E+01 -0.43051446920E+02  0.45045681790E+02  0.00000000000E+00 0. -1.
         11    1    3    3    0    0  0.55159258133E+01  0.56386211529E+01  0.31800960775E+02  0.32764624102E+02  0.51100000000E-03 0. -1.
        -11    1    3    3    0    0  0.41358083633E+01  0.17902720764E+01  0.11050970139E+02  0.11934568539E+02  0.51100000000E-03 0.  1.
        -12    1    3    3    0    0  0.14219296262E+01 -0.14464062783E+00  0.19951600585E+00  0.14431255696E+01  0.00000000000E+00 0.  1.
</event>
<event>
 7    1  0.2250716E-008  0.4614232E+02  0.7816164E-02  0.1320468E+00
        -11   -1    0    0    0    0  0.00000000000E+00  0.00000000000E+00  0.45593999997E+02  0.45594000000E+02  0.51100000000E-03 0. -1.
         11   -1    0    0    0    0 -0.00000000000E+00 -0.00000000000E+00 -0.45593999997E+02  0.45594000000E+02  0.51100000000E-03 0.  1.
    9900012    2    1    2    0    0  0.33993948638E+02  0.29114949923E+02 -0.50837607258E+01  0.46142317897E+02  0.10000001238E+02 0.  0.
         12    1    1    2    0    0 -0.33993948638E+02 -0.29114949923E+02  0.50837607258E+01  0.45045682103E+02  0.00000000000E+00 0. -1.
         11    1    3    3    0    0  0.12765210550E+01  0.34716248948E+01 -0.53819265810E-01  0.36992677909E+01  0.51100000000E-03 0. -1.
        -11    1    3    3    0    0  0.13523762142E+02  0.11490286137E+02 -0.55382866205E+01  0.18590089750E+02  0.51100000000E-03 0.  1.
         12    1    3    3    0    0  0.19193665441E+02  0.14153038892E+02  0.50834516047E+00  0.23852960356E+02  0.00000000000E+00 0. -1.
</event>
<event>
 7    1  0.2250716E-008  0.4614232E+02  0.7816164E-02  0.1320468E+00
        -11   -1    0    0    0    0  0.00000000000E+00  0.00000000000E+00  0.45593999997E+02  0.45594000000E+02  0.51100000000E-03 0. -1.
         11   -1    0    0    0    0 -0.00000000000E+00 -0.00000000000E+00 -0.45593999997E+02  0.45594000000E+02  0.51100000000E-03 0.  1.
    9900012    2    1    2    0    0  0.21847229090E+01  0.15128486568E+02 -0.42372978584E+02  0.46142318364E+02  0.10000005495E+02 0.  0.
         12    1    1    2    0    0 -0.21847229090E+01 -0.15128486568E+02  0.42372978584E+02  0.45045681636E+02  0.00000000000E+00 0. -1.
         11    1    3    3    0    0 -0.18391884333E+01  0.11165140179E+02 -0.26586789473E+02  0.28894642134E+02  0.51100000000E-03 0. -1.
        -11    1    3    3    0    0  0.89552081386E+00  0.92432644032E+00 -0.55010663272E+00  0.13996265448E+01  0.51100000000E-03 0.  1.
        -12    1    3    3    0    0  0.31283905284E+01  0.30390199488E+01 -0.15236082478E+02  0.15848049685E+02  0.00000000000E+00 0.  1.
</event>
<event>
 7    1  0.2250716E-008  0.4614232E+02  0.7816164E-02  0.1320468E+00
        -11   -1    0    0    0    0  0.00000000000E+00  0.00000000000E+00  0.45593999997E+02  0.45594000000E+02  0.51100000000E-03 0.  1.
         11   -1    0    0    0    0 -0.00000000000E+00 -0.00000000000E+00 -0.45593999997E+02  0.45594000000E+02  0.51100000000E-03 0. -1.
    9900012    2    1    2    0    0 -0.11560049316E+02  0.54621646873E+01  0.43193095073E+02  0.46142318240E+02  0.10000004367E+02 0.  0.
         12    1    1    2    0    0  0.11560049316E+02 -0.54621646873E+01 -0.43193095073E+02  0.45045681760E+02  0.00000000000E+00 0. -1.
         11    1    3    3    0    0 -0.94307558452E+01  0.43602514977E+01  0.31235582889E+02  0.32918271334E+02  0.51100000000E-03 0. -1.
        -11    1    3    3    0    0 -0.30384374947E+01  0.17324623776E+01  0.11511486791E+02  0.12031120342E+02  0.51100000000E-03 0.  1.
         12    1    3    3    0    0  0.90914402378E+00 -0.63054918797E+00  0.44602539254E+00  0.11929265632E+01  0.00000000000E+00 0. -1.
</event>
<event>
 7    1  0.2250716E-008  0.4614232E+02  0.7816164E-02  0.1320468E+00
        -11   -1    0    0    0    0  0.00000000000E+00  0.00000000000E+00  0.45593999997E+02  0.45594000000E+02  0.51100000000E-03 0.  1.
         11   -1    0    0    0    0 -0.00000000000E+00 -0.00000000000E+00 -0.45593999997E+02  0.45594000000E+02  0.51100000000E-03 0. -1.
    9900012    2    1    2    0    0  0.33816256458E+02 -0.29565938191E+02 -0.33807787246E+01  0.46142316892E+02  0.99999920717E+01 0.  0.
         12    1    1    2    0    0 -0.33816256458E+02  0.29565938191E+02  0.33807787246E+01  0.45045683108E+02  0.00000000000E+00 0. -1.
         11    1    3    3    0    0  0.24962617818E+02 -0.18241636067E+02 -0.23883660581E+01  0.31009577027E+02  0.51100000000E-03 0. -1.
        -11    1    3    3    0    0  0.90748688623E+01 -0.93689975427E+01 -0.30064268831E+00  0.13046905614E+02  0.51100000000E-03 0.  1.
         12    1    3    3    0    0 -0.22123022250E+00 -0.19553045809E+01 -0.69176997818E+00  0.20858342500E+01  0.00000000000E+00 0. -1.
</event>
<event>
 7    1  0.2250716E-008  0.4614232E+02  0.7816164E-02  0.1320468E+00
        -11   -1    0    0    0    0  0.00000000000E+00  0.00000000000E+00  0.45593999997E+02  0.45594000000E+02  0.51100000000E-03 0.  1.
         11   -1    0    0    0    0 -0.00000000000E+00 -0.00000000000E+00 -0.45593999997E+02  0.45594000000E+02  0.51100000000E-03 0. -1.
    9900012    2    1    2    0    0 -0.57215120490E+01 -0.41293818392E+02  0.17064527709E+02  0.46142320480E+02  0.10000024793E+02 0.  0.
         12    1    1    2    0    0  0.57215120490E+01  0.41293818392E+02 -0.17064527709E+02  0.45045679520E+02  0.00000000000E+00 0. -1.
         11    1    3    3    0    0 -0.47528565107E+00 -0.17068828267E+02  0.69130732741E+01  0.18421763684E+02  0.51100000000E-03 0. -1.
        -11    1    3    3    0    0 -0.50695676365E+01 -0.23484434937E+02  0.11132071247E+02  0.26479090068E+02  0.51100000000E-03 0.  1.
         12    1    3    3    0    0 -0.17665876143E+00 -0.74055518803E+00 -0.98061681270E+00  0.12414667285E+01  0.00000000000E+00 0. -1.
</event>
<event>
 7    1  0.2250716E-008  0.4614232E+02  0.7816164E-02  0.1320468E+00
        -11   -1    0    0    0    0  0.00000000000E+00  0.00000000000E+00  0.45593999997E+02  0.45594000000E+02  0.51100000000E-03 0.  1.
         11   -1    0    0    0    0 -0.00000000000E+00 -0.00000000000E+00 -0.45593999997E+02  0.45594000000E+02  0.51100000000E-03 0. -1.
    9900012    2    1    2    0    0 -0.24911484517E+02  0.27046438720E+02  0.26019641759E+02  0.46142315794E+02  0.99999820658E+01 0.  0.
         12    1    1    2    0    0  0.24911484517E+02 -0.27046438720E+02 -0.26019641759E+02  0.45045684206E+02  0.00000000000E+00 0. -1.
         11    1    3    3    0    0 -0.57842149265E+01  0.11159080088E+02  0.96088568409E+01  0.15821262300E+02  0.51100000000E-03 0.  1.
        -11    1    3    3    0    0 -0.30228718790E+01  0.51688598347E+01  0.53919891631E+01  0.80578169367E+01  0.51100000000E-03 0. -1.
        -12    1    3    3    0    0 -0.16104397712E+02  0.10718498797E+02  0.11018795755E+02  0.22263236558E+02  0.00000000000E+00 0.  1.
</event>
<event>
 7    1  0.2250716E-008  0.4614233E+02  0.7816164E-02  0.1320468E+00
        -11   -1    0    0    0    0  0.00000000000E+00  0.00000000000E+00  0.45593999997E+02  0.45594000000E+02  0.51100000000E-03 0. -1.
         11   -1    0    0    0    0 -0.00000000000E+00 -0.00000000000E+00 -0.45593999997E+02  0.45594000000E+02  0.51100000000E-03 0.  1.
    9900012    2    1    2    0    0 -0.70746551443E+01  0.42491122424E+02 -0.13174464212E+02  0.46142326095E+02  0.10000075995E+02 0.  0.
         12    1    1    2    0    0  0.70746551443E+01 -0.42491122424E+02  0.13174464212E+02  0.45045673905E+02  0.00000000000E+00 0. -1.
         11    1    3    3    0    0  0.74997383828E+00  0.18503477701E+01  0.14631976545E+00  0.20019134255E+01  0.51100000000E-03 0. -1.
        -11    1    3    3    0    0 -0.52811559751E+01  0.20287174447E+02 -0.10466355274E+02  0.23430848223E+02  0.51100000000E-03 0.  1.
        -12    1    3    3    0    0 -0.25434730075E+01  0.20353600207E+02 -0.28544287028E+01  0.20709564446E+02  0.00000000000E+00 0.  1.
</event>
<event>
 7    1  0.2250716E-008  0.4614232E+02  0.7816164E-02  0.1320468E+00
        -11   -1    0    0    0    0  0.00000000000E+00  0.00000000000E+00  0.45593999997E+02  0.45594000000E+02  0.51100000000E-03 0.  1.
         11   -1    0    0    0    0 -0.00000000000E+00 -0.00000000000E+00 -0.45593999997E+02  0.45594000000E+02  0.51100000000E-03 0. -1.
    9900012    2    1    2    0    0 -0.19056166020E+02  0.22676469681E+02  0.33937498026E+02  0.46142317490E+02  0.99999975273E+01 0.  0.
         12    1    1    2    0    0  0.19056166020E+02 -0.22676469681E+02 -0.33937498026E+02  0.45045682510E+02  0.00000000000E+00 0. -1.
         11    1    3    3    0    0 -0.65917269575E+01  0.80125228302E+01  0.69095802200E+01  0.12465700360E+02  0.51100000000E-03 0. -1.
        -11    1    3    3    0    0 -0.55312603178E+01  0.45631601767E+01  0.60437849241E+01  0.93778786499E+01  0.51100000000E-03 0.  1.
        -12    1    3    3    0    0 -0.69331787444E+01  0.10100786674E+02  0.20984132882E+02  0.24298738480E+02  0.00000000000E+00 0.  1.
</event>
<event>
 7    1  0.2250716E-008  0.4614232E+02  0.7816164E-02  0.1320468E+00
        -11   -1    0    0    0    0  0.00000000000E+00  0.00000000000E+00  0.45593999997E+02  0.45594000000E+02  0.51100000000E-03 0.  1.
         11   -1    0    0    0    0 -0.00000000000E+00 -0.00000000000E+00 -0.45593999997E+02  0.45594000000E+02  0.51100000000E-03 0. -1.
    9900012    2    1    2    0    0 -0.16365897271E+02 -0.37154653311E+02  0.19514154451E+02  0.46142322293E+02  0.10000041324E+02 0.  0.
         12    1    1    2    0    0  0.16365897271E+02  0.37154653311E+02 -0.19514154451E+02  0.45045677707E+02  0.00000000000E+00 0. -1.
         11    1    3    3    0    0 -0.11649044605E+01 -0.77148135956E+01  0.11823209207E+01  0.78913391917E+01  0.51100000000E-03 0. -1.
        -11    1    3    3    0    0 -0.20453270472E+01 -0.21706348493E+01  0.33001085134E+01  0.44481158753E+01  0.51100000000E-03 0.  1.
        -12    1    3    3    0    0 -0.13155665763E+02 -0.27269204866E+02  0.15031725017E+02  0.33802867226E+02  0.00000000000E+00 0.  1.
</event>
<event>
 7    1  0.2250716E-008  0.4614232E+02  0.7816164E-02  0.1320468E+00
        -11   -1    0    0    0    0  0.00000000000E+00  0.00000000000E+00  0.45593999997E+02  0.45594000000E+02  0.51100000000E-03 0.  1.
         11   -1    0    0    0    0 -0.00000000000E+00 -0.00000000000E+00 -0.45593999997E+02  0.45594000000E+02  0.51100000000E-03 0. -1.
    9900012    2    1    2    0    0 -0.39368155925E+02  0.11599087342E+02  0.18566716849E+02  0.46142317603E+02  0.99999985565E+01 0.  0.
         12    1    1    2    0    0  0.39368155925E+02 -0.11599087342E+02 -0.18566716849E+02  0.45045682397E+02  0.00000000000E+00 0. -1.
         11    1    3    3    0    0 -0.13631778565E+02  0.50417247319E+00  0.71963154275E+01  0.15422922314E+02  0.51100000000E-03 0. -1.
        -11    1    3    3    0    0 -0.17971749973E+02  0.77670052842E+01  0.10528773423E+02  0.22229827670E+02  0.51100000000E-03 0.  1.
         12    1    3    3    0    0 -0.77646273872E+01  0.33279095848E+01  0.84162799834E+00  0.84895676188E+01  0.00000000000E+00 0. -1.
</event>
<event>
 7    1  0.2250716E-008  0.4614230E+02  0.7816164E-02  0.1320468E+00
        -11   -1    0    0    0    0  0.00000000000E+00  0.00000000000E+00  0.45593999997E+02  0.45594000000E+02  0.51100000000E-03 0. -1.
         11   -1    0    0    0    0 -0.00000000000E+00 -0.00000000000E+00 -0.45593999997E+02  0.45594000000E+02  0.51100000000E-03 0.  1.
    9900012    2    1    2    0    0 -0.22147304428E+02 -0.30021926846E+02  0.25244714327E+02  0.46142303353E+02  0.99998686146E+01 0.  0.
         12    1    1    2    0    0  0.22147304428E+02  0.30021926846E+02 -0.25244714327E+02  0.45045696647E+02  0.00000000000E+00 0. -1.
         11    1    3    3    0    0 -0.40875952030E+01 -0.71708247248E+01  0.69711075444E+01  0.10803957721E+02  0.51100000000E-03 0. -1.
        -11    1    3    3    0    0 -0.16214560925E+02 -0.19252485459E+02  0.18575674151E+02  0.31282996224E+02  0.51100000000E-03 0.  1.
         12    1    3    3    0    0 -0.18451483003E+01 -0.35986166614E+01 -0.30206736796E+00  0.40553494080E+01  0.00000000000E+00 0. -1.
</event>
<event>
 7    1  0.2250716E-008  0.4614233E+02  0.7816164E-02  0.1320468E+00
        -11   -1    0    0    0    0  0.00000000000E+00  0.00000000000E+00  0.45593999997E+02  0.45594000000E+02  0.51100000000E-03 0.  1.
         11   -1    0    0    0    0 -0.00000000000E+00 -0.00000000000E+00 -0.45593999997E+02  0.45594000000E+02  0.51100000000E-03 0. -1.
    9900012    2    1    2    0    0  0.35363871689E+02 -0.10643719296E+02  0.25791868020E+02  0.46142327208E+02  0.10000086142E+02 0.  0.
         12    1    1    2    0    0 -0.35363871689E+02  0.10643719296E+02 -0.25791868020E+02  0.45045672792E+02  0.00000000000E+00 0. -1.
         11    1    3    3    0    0  0.43677771621E+01  0.10660908069E+01  0.27812981658E+01  0.52867425410E+01  0.51100000000E-03 0. -1.
        -11    1    3    3    0    0  0.13737243738E+02 -0.54440400968E+01  0.14186268164E+02  0.20484131487E+02  0.51100000000E-03 0.  1.
        -12    1    3    3    0    0  0.17258850789E+02 -0.62657700059E+01  0.88243016908E+01  0.20371453180E+02  0.00000000000E+00 0.  1.
</event>
<event>
 7    1  0.2250716E-008  0.4614232E+02  0.7816164E-02  0.1320468E+00
        -11   -1    0    0    0    0  0.00000000000E+00  0.00000000000E+00  0.45593999997E+02  0.45594000000E+02  0.51100000000E-03 0.  1.
         11   -1    0    0    0    0 -0.00000000000E+00 -0.00000000000E+00 -0.45593999997E+02  0.45594000000E+02  0.51100000000E-03 0. -1.
    9900012    2    1    2    0    0 -0.28995988495E+00  0.24140266071E+01  0.44980016839E+02  0.46142317455E+02  0.99999972043E+01 0.  0.
         12    1    1    2    0    0  0.28995988495E+00 -0.24140266071E+01 -0.44980016839E+02  0.45045682545E+02  0.00000000000E+00 0. -1.
         11    1    3    3    0    0 -0.19241894154E+01  0.13966071537E+01  0.25872637783E+02  0.25981655115E+02  0.51100000000E-03 0. -1.
        -11    1    3    3    0    0 -0.48990232834E+00  0.29115681385E+01  0.14055766927E+02  0.14362514316E+02  0.51100000000E-03 0.  1.
         12    1    3    3    0    0  0.21241318588E+01 -0.18941486851E+01  0.50516121294E+01  0.57981480234E+01  0.00000000000E+00 0. -1.
</event>
<event>
 7    1  0.2250716E-008  0.4614232E+02  0.7816164E-02  0.1320468E+00
        -11   -1    0    0    0    0  0.00000000000E+00  0.00000000000E+00  0.45593999997E+02  0.45594000000E+02  0.51100000000E-03 0.  1.
         11   -1    0    0    0    0 -0.00000000000E+00 -0.00000000000E+00 -0.45593999997E+02  0.45594000000E+02  0.51100000000E-03 0. -1.
    9900012    2    1    2    0    0  0.46566848246E+01  0.42973741473E+02  0.12676208436E+02  0.46142318408E+02  0.10000005898E+02 0.  0.
         12    1    1    2    0    0 -0.46566848246E+01 -0.42973741473E+02 -0.12676208436E+02  0.45045681592E+02  0.00000000000E+00 0. -1.
         11    1    3    3    0    0  0.21837685031E+01  0.11327571264E+02 -0.66827772881E+00  0.11555488349E+02  0.51100000000E-03 0.  1.
        -11    1    3    3    0    0  0.27029944202E+01  0.14119340688E+02  0.57162196697E+01  0.15470524486E+02  0.51100000000E-03 0. -1.
        -12    1    3    3    0    0 -0.23007809867E+00  0.17526829521E+02  0.76282664954E+01  0.19116305572E+02  0.00000000000E+00 0.  1.
</event>
<event>
 7    1  0.2250716E-008  0.4614232E+02  0.7816164E-02  0.1320468E+00
        -11   -1    0    0    0    0  0.00000000000E+00  0.00000000000E+00  0.45593999997E+02  0.45594000000E+02  0.51100000000E-03 0.  1.
         11   -1    0    0    0    0 -0.00000000000E+00 -0.00000000000E+00 -0.45593999997E+02  0.45594000000E+02  0.51100000000E-03 0. -1.
    9900012    2    1    2    0    0  0.15155182678E+02 -0.26688684443E+02  0.32971926229E+02  0.46142319203E+02  0.10000013144E+02 0.  0.
         12    1    1    2    0    0 -0.15155182678E+02  0.26688684443E+02 -0.32971926229E+02  0.45045680797E+02  0.00000000000E+00 0. -1.
         11    1    3    3    0    0  0.46814403936E+01 -0.45892792955E+01  0.28693599880E+01  0.71561578806E+01  0.51100000000E-03 0. -1.
        -11    1    3    3    0    0  0.20335393704E+01 -0.22690603655E+01  0.54277966256E+01  0.62245396443E+01  0.51100000000E-03 0.  1.
        -12    1    3    3    0    0  0.84402029141E+01 -0.19830344782E+02  0.24674769615E+02  0.32761621678E+02  0.00000000000E+00 0.  1.
</event>
<event>
 7    1  0.2250716E-008  0.4614232E+02  0.7816164E-02  0.1320468E+00
        -11   -1    0    0    0    0  0.00000000000E+00  0.00000000000E+00  0.45593999997E+02  0.45594000000E+02  0.51100000000E-03 0.  1.
         11   -1    0    0    0    0 -0.00000000000E+00 -0.00000000000E+00 -0.45593999997E+02  0.45594000000E+02  0.51100000000E-03 0. -1.
    9900012    2    1    2    0    0 -0.20386155582E+01  0.19981964786E+02  0.40319705297E+02  0.46142317573E+02  0.99999982845E+01 0.  0.
         12    1    1    2    0    0  0.20386155582E+01 -0.19981964786E+02 -0.40319705297E+02  0.45045682427E+02  0.00000000000E+00 0. -1.
         11    1    3    3    0    0  0.14873738005E+01  0.15449901368E+02  0.25413203567E+02  0.29778224409E+02  0.51100000000E-03 0. -1.
        -11    1    3    3    0    0 -0.11569276043E+01  0.28539740660E+01  0.38357451421E+01  0.49190029993E+01  0.51100000000E-03 0.  1.
        -12    1    3    3    0    0 -0.23690617544E+01  0.16780893512E+01  0.11070756587E+02  0.11445090165E+02  0.00000000000E+00 0.  1.
</event>
<event>
 7    1  0.2250716E-008  0.4614232E+02  0.7816164E-02  0.1320468E+00
        -11   -1    0    0    0    0  0.00000000000E+00  0.00000000000E+00  0.45593999997E+02  0.45594000000E+02  0.51100000000E-03 0.  1.
         11   -1    0    0    0    0 -0.00000000000E+00 -0.00000000000E+00 -0.45593999997E+02  0.45594000000E+02  0.51100000000E-03 0. -1.
    9900012    2    1    2    0    0  0.35454584969E+02 -0.22729929430E+02  0.15982374389E+02  0.46142316763E+02  0.99999908979E+01 0.  0.
         12    1    1    2    0    0 -0.35454584969E+02  0.22729929430E+02 -0.15982374389E+02  0.45045683237E+02  0.00000000000E+00 0. -1.
         11    1    3    3    0    0  0.10249325321E+02 -0.24913333137E+01  0.37922405940E+01  0.11208768897E+02  0.51100000000E-03 0. -1.
        -11    1    3    3    0    0  0.23365285626E+02 -0.18548565893E+02  0.96105171585E+01  0.31342429858E+02  0.51100000000E-03 0.  1.
         12    1    3    3    0    0  0.18399740220E+01 -0.16900302230E+01  0.25796166363E+01  0.35911180079E+01  0.00000000000E+00 0. -1.
</event>
<event>
 7    1  0.2250716E-008  0.4614232E+02  0.7816164E-02  0.1320468E+00
        -11   -1    0    0    0    0  0.00000000000E+00  0.00000000000E+00  0.45593999997E+02  0.45594000000E+02  0.51100000000E-03 0.  1.
         11   -1    0    0    0    0 -0.00000000000E+00 -0.00000000000E+00 -0.45593999997E+02  0.45594000000E+02  0.51100000000E-03 0. -1.
    9900012    2    1    2    0    0 -0.19481058460E+02  0.74386798473E+01  0.39928283370E+02  0.46142318636E+02  0.10000007981E+02 0.  0.
         12    1    1    2    0    0  0.19481058460E+02 -0.74386798473E+01 -0.39928283370E+02  0.45045681364E+02  0.00000000000E+00 0. -1.
         11    1    3    3    0    0 -0.73144509462E+00 -0.66246780543E+00  0.14280100786E+01  0.17358250388E+01  0.51100000000E-03 0. -1.
        -11    1    3    3    0    0 -0.16821642968E+02  0.37561483980E+01  0.32092069845E+02  0.36427699215E+02  0.51100000000E-03 0.  1.
        -12    1    3    3    0    0 -0.19279703979E+01  0.43449992547E+01  0.64082034468E+01  0.79787943822E+01  0.00000000000E+00 0.  1.
</event>
<event>
 7    1  0.2250716E-008  0.4614232E+02  0.7816164E-02  0.1320468E+00
        -11   -1    0    0    0    0  0.00000000000E+00  0.00000000000E+00  0.45593999997E+02  0.45594000000E+02  0.51100000000E-03 0.  1.
         11   -1    0    0    0    0 -0.00000000000E+00 -0.00000000000E+00 -0.45593999997E+02  0.45594000000E+02  0.51100000000E-03 0. -1.
    9900012    2    1    2    0    0 -0.21640602330E+02 -0.27928219741E+02  0.27943019463E+02  0.46142318033E+02  0.10000002480E+02 0.  0.
         12    1    1    2    0    0  0.21640602330E+02  0.27928219741E+02 -0.27943019463E+02  0.45045681967E+02  0.00000000000E+00 0. -1.
         11    1    3    3    0    0 -0.54126961475E+01 -0.69188173597E+01  0.77954893418E+01  0.11744656980E+02  0.51100000000E-03 0. -1.
        -11    1    3    3    0    0 -0.14434751968E+02 -0.13436028371E+02  0.16875024464E+02  0.25954871868E+02  0.51100000000E-03 0.  1.
         12    1    3    3    0    0 -0.17931542152E+01 -0.75733740104E+01  0.32725056571E+01  0.84427891846E+01  0.00000000000E+00 0. -1.
</event>
<event>
 7    1  0.2250716E-008  0.4614232E+02  0.7816164E-02  0.1320468E+00
        -11   -1    0    0    0    0  0.00000000000E+00  0.00000000000E+00  0.45593999997E+02  0.45594000000E+02  0.51100000000E-03 0.  1.
         11   -1    0    0    0    0 -0.00000000000E+00 -0.00000000000E+00 -0.45593999997E+02  0.45594000000E+02  0.51100000000E-03 0. -1.
    9900012    2    1    2    0    0  0.36030497479E+02 -0.90645763491E+00  0.27020271367E+02  0.46142317867E+02  0.10000000967E+02 0.  0.
         12    1    1    2    0    0 -0.36030497479E+02  0.90645763491E+00 -0.27020271367E+02  0.45045682133E+02  0.00000000000E+00 0. -1.
         11    1    3    3    0    0  0.10791861876E+02  0.16953904515E+01  0.35200540056E+01  0.11477343420E+02  0.51100000000E-03 0. -1.
        -11    1    3    3    0    0  0.94026639189E+01  0.64445320452E-01  0.93721551472E+01  0.13275975834E+02  0.51100000000E-03 0.  1.
        -12    1    3    3    0    0  0.15835971685E+02 -0.26662934069E+01  0.14128062214E+02  0.21388998613E+02  0.00000000000E+00 0.  1.
</event>
<event>
 7    1  0.2250716E-008  0.4614232E+02  0.7816164E-02  0.1320468E+00
        -11   -1    0    0    0    0  0.00000000000E+00  0.00000000000E+00  0.45593999997E+02  0.45594000000E+02  0.51100000000E-03 0.  1.
         11   -1    0    0    0    0 -0.00000000000E+00 -0.00000000000E+00 -0.45593999997E+02  0.45594000000E+02  0.51100000000E-03 0. -1.
    9900012    2    1    2    0    0 -0.19273844441E+02 -0.29187142555E+01  0.40609278616E+02  0.46142317830E+02  0.10000000625E+02 0.  0.
         12    1    1    2    0    0  0.19273844441E+02  0.29187142555E+01 -0.40609278616E+02  0.45045682170E+02  0.00000000000E+00 0. -1.
         11    1    3    3    0    0 -0.20827087574E+01 -0.52738546190E+00  0.46655046451E+00  0.21985178622E+01  0.51100000000E-03 0. -1.
        -11    1    3    3    0    0 -0.94436233773E+00  0.67918004671E+00  0.45777037252E+01  0.47231850924E+01  0.51100000000E-03 0.  1.
        -12    1    3    3    0    0 -0.16246773346E+02 -0.30705088403E+01  0.35565024427E+02  0.39220614875E+02  0.00000000000E+00 0.  1.
</event>
<event>
 7    1  0.2841452E-008  0.4614232E+02  0.7816164E-02  0.1320468E+00
        -11   -1    0    0    0    0  0.00000000000E+00  0.00000000000E+00  0.45593999997E+02  0.45594000000E+02  0.51100000000E-03 0. -1.
         11   -1    0    0    0    0 -0.00000000000E+00 -0.00000000000E+00 -0.45593999997E+02  0.45594000000E+02  0.51100000000E-03 0.  1.
    9900012    2    1    2    0    0  0.22378870296E+02  0.21547779027E+02 -0.32618902663E+02  0.46142318435E+02  0.10000006143E+02 0.  0.
         12    1    1    2    0    0 -0.22378870296E+02 -0.21547779027E+02  0.32618902663E+02  0.45045681565E+02  0.00000000000E+00 0. -1.
         11    1    3    3    0    0  0.15335146252E+01 -0.16920585794E+00 -0.19836557940E+01  0.25130038397E+01  0.51100000000E-03 0. -1.
        -11    1    3    3    0    0  0.29506554541E+01  0.30105066843E+00 -0.16569028715E+01  0.33973999618E+01  0.51100000000E-03 0.  1.
        -12    1    3    3    0    0  0.17894700217E+02  0.21415934216E+02 -0.28978343998E+02  0.40231914633E+02  0.00000000000E+00 0.  1.
</event>
<event>
 7    1  0.2250716E-008  0.4614232E+02  0.7816164E-02  0.1320468E+00
        -11   -1    0    0    0    0  0.00000000000E+00  0.00000000000E+00  0.45593999997E+02  0.45594000000E+02  0.51100000000E-03 0.  1.
         11   -1    0    0    0    0 -0.00000000000E+00 -0.00000000000E+00 -0.45593999997E+02  0.45594000000E+02  0.51100000000E-03 0. -1.
    9900012    2    1    2    0    0 -0.43311599505E+02  0.10488249093E+02  0.65738379371E+01  0.46142319120E+02  0.10000012387E+02 0.  0.
         12    1    1    2    0    0  0.43311599505E+02 -0.10488249093E+02 -0.65738379371E+01  0.45045680880E+02  0.00000000000E+00 0. -1.
         11    1    3    3    0    0 -0.84991546212E+01  0.26066534446E+01 -0.97423409625E-01  0.88904309815E+01  0.51100000000E-03 0. -1.
        -11    1    3    3    0    0 -0.31153763868E+02  0.56712761138E+01  0.82033695055E+01  0.32711093644E+02  0.51100000000E-03 0.  1.
        -12    1    3    3    0    0 -0.36586810168E+01  0.22103195347E+01 -0.15321081588E+01  0.45407944942E+01  0.00000000000E+00 0.  1.
</event>
<event>
 7    1  0.2250716E-008  0.4614232E+02  0.7816164E-02  0.1320468E+00
        -11   -1    0    0    0    0  0.00000000000E+00  0.00000000000E+00  0.45593999997E+02  0.45594000000E+02  0.51100000000E-03 0.  1.
         11   -1    0    0    0    0 -0.00000000000E+00 -0.00000000000E+00 -0.45593999997E+02  0.45594000000E+02  0.51100000000E-03 0. -1.
    9900012    2    1    2    0    0  0.35766546546E+02  0.24893404473E+02  0.11409905269E+02  0.46142319005E+02  0.10000011339E+02 0.  0.
         12    1    1    2    0    0 -0.35766546546E+02 -0.24893404473E+02 -0.11409905269E+02  0.45045680995E+02  0.00000000000E+00 0. -1.
         11    1    3    3    0    0  0.39951472781E+01  0.29308564399E+01  0.33625313399E+01  0.59881331413E+01  0.51100000000E-03 0. -1.
        -11    1    3    3    0    0  0.20398196548E+02  0.17738597847E+02  0.72915738963E+01  0.27998416493E+02  0.51100000000E-03 0.  1.
        -12    1    3    3    0    0  0.11373202720E+02  0.42239501863E+01  0.75580003274E+00  0.12155769370E+02  0.00000000000E+00 0.  1.
</event>
<event>
 7    1  0.2250716E-008  0.4614233E+02  0.7816164E-02  0.1320468E+00
        -11   -1    0    0    0    0  0.00000000000E+00  0.00000000000E+00  0.45593999997E+02  0.45594000000E+02  0.51100000000E-03 0. -1.
         11   -1    0    0    0    0 -0.00000000000E+00 -0.00000000000E+00 -0.45593999997E+02  0.45594000000E+02  0.51100000000E-03 0.  1.
    9900012    2    1    2    0    0  0.19975876170E+02 -0.20963694094E+02 -0.34505075645E+02  0.46142330463E+02  0.10000115821E+02 0.  0.
         12    1    1    2    0    0 -0.19975876170E+02  0.20963694094E+02  0.34505075645E+02  0.45045669537E+02  0.00000000000E+00 0. -1.
         11    1    3    3    0    0  0.19428325844E+01 -0.10077241253E+01 -0.65883273924E+00  0.22856437175E+01  0.51100000000E-03 0. -1.
        -11    1    3    3    0    0  0.83466149493E+00 -0.73640066357E+00 -0.51702629361E+01  0.52887205294E+01  0.51100000000E-03 0.  1.
         12    1    3    3    0    0  0.17198382091E+02 -0.19219569305E+02 -0.28675979969E+02  0.38567966216E+02  0.00000000000E+00 0. -1.
</event>
<event>
 7    1  0.2250716E-008  0.4614232E+02  0.7816164E-02  0.1320468E+00
        -11   -1    0    0    0    0  0.00000000000E+00  0.00000000000E+00  0.45593999997E+02  0.45594000000E+02  0.51100000000E-03 0.  1.
         11   -1    0    0    0    0 -0.00000000000E+00 -0.00000000000E+00 -0.45593999997E+02  0.45594000000E+02  0.51100000000E-03 0. -1.
    9900012    2    1    2    0    0  0.21385118550E+01 -0.34176842827E+02  0.29265741651E+02  0.46142318154E+02  0.10000003586E+02 0.  0.
         12    1    1    2    0    0 -0.21385118550E+01  0.34176842827E+02 -0.29265741651E+02  0.45045681846E+02  0.00000000000E+00 0. -1.
         11    1    3    3    0    0  0.17679951378E+00 -0.88496431364E+01  0.59355039223E+01  0.10657281491E+02  0.51100000000E-03 0. -1.
        -11    1    3    3    0    0  0.38590156439E+01 -0.49723896591E+01  0.54392291613E+01  0.83187664225E+01  0.51100000000E-03 0.  1.
        -12    1    3    3    0    0 -0.18973033027E+01 -0.20354810032E+02  0.17891008567E+02  0.27166270241E+02  0.00000000000E+00 0.  1.
</event>
<event>
 7    1  0.2250716E-008  0.4614233E+02  0.7816164E-02  0.1320468E+00
        -11   -1    0    0    0    0  0.00000000000E+00  0.00000000000E+00  0.45593999997E+02  0.45594000000E+02  0.51100000000E-03 0.  1.
         11   -1    0    0    0    0 -0.00000000000E+00 -0.00000000000E+00 -0.45593999997E+02  0.45594000000E+02  0.51100000000E-03 0. -1.
    9900012    2    1    2    0    0  0.36025298634E+02 -0.13620405651E+01  0.27008062745E+02  0.46142325964E+02  0.10000074799E+02 0.  0.
         12    1    1    2    0    0 -0.36025298634E+02  0.13620405651E+01 -0.27008062745E+02  0.45045674036E+02  0.00000000000E+00 0. -1.
         11    1    3    3    0    0  0.83622964308E+01 -0.18969554869E+01  0.34125946613E+01  0.92288809885E+01  0.51100000000E-03 0. -1.
        -11    1    3    3    0    0  0.27569622446E+02  0.13092549253E+01  0.23075503588E+02  0.35976062825E+02  0.51100000000E-03 0.  1.
        -12    1    3    3    0    0  0.93379757064E-01 -0.77434000352E+00  0.51996449486E+00  0.93738215046E+00  0.00000000000E+00 0.  1.
</event>
<event>
 7    1  0.2250716E-008  0.4614232E+02  0.7816164E-02  0.1320468E+00
        -11   -1    0    0    0    0  0.00000000000E+00  0.00000000000E+00  0.45593999997E+02  0.45594000000E+02  0.51100000000E-03 0. -1.
         11   -1    0    0    0    0 -0.00000000000E+00 -0.00000000000E+00 -0.45593999997E+02  0.45594000000E+02  0.51100000000E-03 0.  1.
    9900012    2    1    2    0    0  0.42023891956E+02  0.53275308635E+01 -0.15320686587E+02  0.46142317435E+02  0.99999970294E+01 0.  0.
         12    1    1    2    0    0 -0.42023891956E+02 -0.53275308635E+01  0.15320686587E+02  0.45045682565E+02  0.00000000000E+00 0. -1.
         11    1    3    3    0    0  0.42132380002E+01 -0.10389878712E+01 -0.82745656453E-01  0.43402439272E+01  0.51100000000E-03 0. -1.
        -11    1    3    3    0    0  0.59702300806E+01 -0.93638220694E-01 -0.48502641819E+01  0.76926899214E+01  0.51100000000E-03 0.  1.
        -12    1    3    3    0    0  0.31840423875E+02  0.64601569554E+01 -0.10387676749E+02  0.34109383587E+02  0.00000000000E+00 0.  1.
</event>
<event>
 7    1  0.2250716E-008  0.4614232E+02  0.7816164E-02  0.1320468E+00
        -11   -1    0    0    0    0  0.00000000000E+00  0.00000000000E+00  0.45593999997E+02  0.45594000000E+02  0.51100000000E-03 0. -1.
         11   -1    0    0    0    0 -0.00000000000E+00 -0.00000000000E+00 -0.45593999997E+02  0.45594000000E+02  0.51100000000E-03 0.  1.
    9900012    2    1    2    0    0 -0.24991586073E+02  0.31621747463E+02 -0.20114651334E+02  0.46142317794E+02  0.10000000303E+02 0.  0.
         12    1    1    2    0    0  0.24991586073E+02 -0.31621747463E+02  0.20114651334E+02  0.45045682206E+02  0.00000000000E+00 0. -1.
         11    1    3    3    0    0 -0.41685129440E+01  0.91791175706E+01 -0.81937112422E+01  0.12991135582E+02  0.51100000000E-03 0. -1.
        -11    1    3    3    0    0 -0.24374831678E+01  0.87672700735E+00 -0.85244908073E+00  0.27270211101E+01  0.51100000000E-03 0.  1.
         12    1    3    3    0    0 -0.18385589962E+02  0.21565902885E+02 -0.11068491011E+02  0.30424161102E+02  0.00000000000E+00 0. -1.
</event>
<event>
 7    1  0.2250716E-008  0.4614232E+02  0.7816164E-02  0.1320468E+00
        -11   -1    0    0    0    0  0.00000000000E+00  0.00000000000E+00  0.45593999997E+02  0.45594000000E+02  0.51100000000E-03 0.  1.
         11   -1    0    0    0    0 -0.00000000000E+00 -0.00000000000E+00 -0.45593999997E+02  0.45594000000E+02  0.51100000000E-03 0. -1.
    9900012    2    1    2    0    0  0.37471071130E+02 -0.24699491931E+02 -0.38687956710E+01  0.46142315932E+02  0.99999833166E+01 0.  0.
         12    1    1    2    0    0 -0.37471071130E+02  0.24699491931E+02  0.38687956710E+01  0.45045684068E+02  0.00000000000E+00 0. -1.
         11    1    3    3    0    0  0.90870464963E+01 -0.39537653808E+01  0.12413738510E+01  0.99873762326E+01  0.51100000000E-03 0. -1.
        -11    1    3    3    0    0  0.18734723620E+02 -0.14567898118E+02 -0.31432108269E+00  0.23734201539E+02  0.51100000000E-03 0.  1.
         12    1    3    3    0    0  0.96493010139E+01 -0.61778284321E+01 -0.47958484393E+01  0.12420738160E+02  0.00000000000E+00 0. -1.
</event>
<event>
 7    1  0.2250716E-008  0.4614232E+02  0.7816164E-02  0.1320468E+00
        -11   -1    0    0    0    0  0.00000000000E+00  0.00000000000E+00  0.45593999997E+02  0.45594000000E+02  0.51100000000E-03 0.  1.
         11   -1    0    0    0    0 -0.00000000000E+00 -0.00000000000E+00 -0.45593999997E+02  0.45594000000E+02  0.51100000000E-03 0. -1.
    9900012    2    1    2    0    0 -0.21625392699E+02  0.19990549954E+01  0.39464663488E+02  0.46142317693E+02  0.99999993775E+01 0.  0.
         12    1    1    2    0    0  0.21625392699E+02 -0.19990549954E+01 -0.39464663488E+02  0.45045682307E+02  0.00000000000E+00 0. -1.
         11    1    3    3    0    0 -0.86809456231E+01  0.16174352463E+01  0.11188354832E+02  0.14253217103E+02  0.51100000000E-03 0. -1.
        -11    1    3    3    0    0 -0.97441171132E+01 -0.19825331730E+01  0.24336859462E+02  0.26289940754E+02  0.51100000000E-03 0.  1.
         12    1    3    3    0    0 -0.32003299632E+01  0.23641529222E+01  0.39394491940E+01  0.55991598356E+01  0.00000000000E+00 0. -1.
</event>
<event>
 7    1  0.2250716E-008  0.4614232E+02  0.7816164E-02  0.1320468E+00
        -11   -1    0    0    0    0  0.00000000000E+00  0.00000000000E+00  0.45593999997E+02  0.45594000000E+02  0.51100000000E-03 0.  1.
         11   -1    0    0    0    0 -0.00000000000E+00 -0.00000000000E+00 -0.45593999997E+02  0.45594000000E+02  0.51100000000E-03 0. -1.
    9900012    2    1    2    0    0  0.15397638404E+02  0.40617576314E+02  0.11926388904E+02  0.46142317340E+02  0.99999961578E+01 0.  0.
         12    1    1    2    0    0 -0.15397638404E+02 -0.40617576314E+02 -0.11926388904E+02  0.45045682660E+02  0.00000000000E+00 0. -1.
         11    1    3    3    0    0  0.10579365835E+02  0.28275169859E+02  0.84983480243E+01  0.31362878239E+02  0.51100000000E-03 0. -1.
        -11    1    3    3    0    0  0.51553764877E+01  0.11957905087E+02  0.18896312349E+01  0.13158271439E+02  0.51100000000E-03 0.  1.
         12    1    3    3    0    0 -0.33710391917E+00  0.38450136851E+00  0.15384096443E+01  0.16211676620E+01  0.00000000000E+00 0. -1.
</event>
<event>
 7    1  0.2250716E-008  0.4614232E+02  0.7816164E-02  0.1320468E+00
        -11   -1    0    0    0    0  0.00000000000E+00  0.00000000000E+00  0.45593999997E+02  0.45594000000E+02  0.51100000000E-03 0. -1.
         11   -1    0    0    0    0 -0.00000000000E+00 -0.00000000000E+00 -0.45593999997E+02  0.45594000000E+02  0.51100000000E-03 0.  1.
    9900012    2    1    2    0    0 -0.68612504000E+01  0.43711837477E+02  0.84446373840E+01  0.46142318817E+02  0.10000009632E+02 0.  0.
         12    1    1    2    0    0  0.68612504000E+01 -0.43711837477E+02 -0.84446373840E+01  0.45045681183E+02  0.00000000000E+00 0. -1.
         11    1    3    3    0    0 -0.18217036651E+01  0.10549674901E+02  0.14150143293E+01  0.10798912472E+02  0.51100000000E-03 0. -1.
        -11    1    3    3    0    0 -0.65955841342E+01  0.27226152764E+02  0.79930612156E+01  0.29131669233E+02  0.51100000000E-03 0.  1.
         12    1    3    3    0    0  0.15560373993E+01  0.59360098117E+01 -0.96343816098E+00  0.62117371132E+01  0.00000000000E+00 0. -1.
</event>
<event>
 7    1  0.2250716E-008  0.4614232E+02  0.7816164E-02  0.1320468E+00
        -11   -1    0    0    0    0  0.00000000000E+00  0.00000000000E+00  0.45593999997E+02  0.45594000000E+02  0.51100000000E-03 0.  1.
         11   -1    0    0    0    0 -0.00000000000E+00 -0.00000000000E+00 -0.45593999997E+02  0.45594000000E+02  0.51100000000E-03 0. -1.
    9900012    2    1    2    0    0 -0.22427726342E+02 -0.75635563211E+01  0.38326274282E+02  0.46142316595E+02  0.99999893674E+01 0.  0.
         12    1    1    2    0    0  0.22427726342E+02  0.75635563211E+01 -0.38326274282E+02  0.45045683405E+02  0.00000000000E+00 0. -1.
         11    1    3    3    0    0 -0.11321899515E+01 -0.17168805405E+00  0.60578937251E+01  0.61651770064E+01  0.51100000000E-03 0. -1.
        -11    1    3    3    0    0  0.32781839296E+00 -0.91527749901E+00  0.85366466278E+00  0.12938088795E+01  0.51100000000E-03 0.  1.
        -12    1    3    3    0    0 -0.21623354784E+02 -0.64765907681E+01  0.31414715894E+02  0.38683330709E+02  0.00000000000E+00 0.  1.
</event>
<event>
 7    1  0.2250716E-008  0.4614232E+02  0.7816164E-02  0.1320468E+00
        -11   -1    0    0    0    0  0.00000000000E+00  0.00000000000E+00  0.45593999997E+02  0.45594000000E+02  0.51100000000E-03 0.  1.
         11   -1    0    0    0    0 -0.00000000000E+00 -0.00000000000E+00 -0.45593999997E+02  0.45594000000E+02  0.51100000000E-03 0. -1.
    9900012    2    1    2    0    0 -0.16078350388E+02 -0.27214274115E+02  0.32093350714E+02  0.46142320664E+02  0.10000026468E+02 0.  0.
         12    1    1    2    0    0  0.16078350388E+02  0.27214274115E+02 -0.32093350714E+02  0.45045679336E+02  0.00000000000E+00 0. -1.
         11    1    3    3    0    0 -0.30091102190E+01 -0.23846836667E+01  0.52052760021E+01  0.64681032010E+01  0.51100000000E-03 0. -1.
        -11    1    3    3    0    0 -0.27596303725E+01 -0.82200770814E+01  0.39280733055E+01  0.95191904683E+01  0.51100000000E-03 0.  1.
        -12    1    3    3    0    0 -0.10309609797E+02 -0.16609513367E+02  0.22960001406E+02  0.30155026994E+02  0.00000000000E+00 0.  1.
</event>
<event>
 7    1  0.2250716E-008  0.4614232E+02  0.7816164E-02  0.1320468E+00
        -11   -1    0    0    0    0  0.00000000000E+00  0.00000000000E+00  0.45593999997E+02  0.45594000000E+02  0.51100000000E-03 0. -1.
         11   -1    0    0    0    0 -0.00000000000E+00 -0.00000000000E+00 -0.45593999997E+02  0.45594000000E+02  0.51100000000E-03 0.  1.
    9900012    2    1    2    0    0  0.59081484895E+01 -0.44530619996E+02  0.33512977259E+01  0.46142317274E+02  0.99999955548E+01 0.  0.
         12    1    1    2    0    0 -0.59081484895E+01  0.44530619996E+02 -0.33512977259E+01  0.45045682726E+02  0.00000000000E+00 0. -1.
         11    1    3    3    0    0  0.50496460169E+01 -0.20252623839E+02  0.21898467744E+00  0.20873803003E+02  0.51100000000E-03 0. -1.
        -11    1    3    3    0    0  0.31578533632E+01 -0.10092745156E+02  0.25905557211E+01  0.10887907138E+02  0.51100000000E-03 0.  1.
        -12    1    3    3    0    0 -0.22993508906E+01 -0.14185251001E+02  0.54175732744E+00  0.14380607132E+02  0.00000000000E+00 0.  1.
</event>
<event>
 7    1  0.2250716E-008  0.4614232E+02  0.7816164E-02  0.1320468E+00
        -11   -1    0    0    0    0  0.00000000000E+00  0.00000000000E+00  0.45593999997E+02  0.45594000000E+02  0.51100000000E-03 0.  1.
         11   -1    0    0    0    0 -0.00000000000E+00 -0.00000000000E+00 -0.45593999997E+02  0.45594000000E+02  0.51100000000E-03 0. -1.
    9900012    2    1    2    0    0  0.40968178414E+02  0.11352349305E+02 -0.14894490298E+02  0.46142319646E+02  0.10000017191E+02 0.  0.
         12    1    1    2    0    0 -0.40968178414E+02 -0.11352349305E+02  0.14894490298E+02  0.45045680354E+02  0.00000000000E+00 0. -1.
         11    1    3    3    0    0  0.11396571922E+00 -0.90674840986E-01 -0.87304328076E+00  0.88510730601E+00  0.51100000000E-03 0. -1.
        -11    1    3    3    0    0  0.14065526239E+02  0.73019853329E+00 -0.32014934469E+01  0.14443745319E+02  0.51100000000E-03 0.  1.
         12    1    3    3    0    0  0.26788686455E+02  0.10712825613E+02 -0.10819953570E+02  0.30813467021E+02  0.00000000000E+00 0. -1.
</event>
<event>
 7    1  0.2250716E-008  0.4614232E+02  0.7816164E-02  0.1320468E+00
        -11   -1    0    0    0    0  0.00000000000E+00  0.00000000000E+00  0.45593999997E+02  0.45594000000E+02  0.51100000000E-03 0.  1.
         11   -1    0    0    0    0 -0.00000000000E+00 -0.00000000000E+00 -0.45593999997E+02  0.45594000000E+02  0.51100000000E-03 0. -1.
    9900012    2    1    2    0    0  0.17392356802E+02 -0.18785155924E+01  0.41510126490E+02  0.46142317663E+02  0.99999991070E+01 0.  0.
         12    1    1    2    0    0 -0.17392356802E+02  0.18785155924E+01 -0.41510126490E+02  0.45045682337E+02  0.00000000000E+00 0. -1.
         11    1    3    3    0    0  0.21562629908E+01 -0.27127446622E+01  0.11041736466E+02  0.11572743760E+02  0.51100000000E-03 0. -1.
        -11    1    3    3    0    0  0.13505831459E+02  0.16442127300E+01  0.21832369003E+02  0.25724759580E+02  0.51100000000E-03 0.  1.
        -12    1    3    3    0    0  0.17302623523E+01 -0.80998366016E+00  0.86360210213E+01  0.88448143235E+01  0.00000000000E+00 0.  1.
</event>
<event>
 7    1  0.2250716E-008  0.4614231E+02  0.7816164E-02  0.1320468E+00
        -11   -1    0    0    0    0  0.00000000000E+00  0.00000000000E+00  0.45593999997E+02  0.45594000000E+02  0.51100000000E-03 0. -1.
         11   -1    0    0    0    0 -0.00000000000E+00 -0.00000000000E+00 -0.45593999997E+02  0.45594000000E+02  0.51100000000E-03 0.  1.
    9900012    2    1    2    0    0  0.27077507017E+02  0.11918998710E+02 -0.33968514195E+02  0.46142313490E+02  0.99999610539E+01 0.  0.
         12    1    1    2    0    0 -0.27077507017E+02 -0.11918998710E+02  0.33968514195E+02  0.45045686510E+02  0.00000000000E+00 0. -1.
         11    1    3    3    0    0  0.31333625560E+01  0.35719724669E+00 -0.88688798787E+00  0.32759916582E+01  0.51100000000E-03 0. -1.
        -11    1    3    3    0    0  0.13153602521E+02  0.81925174651E+01 -0.15168310723E+02  0.21684378067E+02  0.51100000000E-03 0.  1.
        -12    1    3    3    0    0  0.10790541939E+02  0.33692839985E+01 -0.17913315484E+02  0.21181943765E+02  0.00000000000E+00 0.  1.
</event>
<event>
 7    1  0.2250716E-008  0.4614232E+02  0.7816164E-02  0.1320468E+00
        -11   -1    0    0    0    0  0.00000000000E+00  0.00000000000E+00  0.45593999997E+02  0.45594000000E+02  0.51100000000E-03 0. -1.
         11   -1    0    0    0    0 -0.00000000000E+00 -0.00000000000E+00 -0.45593999997E+02  0.45594000000E+02  0.51100000000E-03 0.  1.
    9900012    2    1    2    0    0  0.36340874847E+02 -0.18287027003E+02  0.19340084248E+02  0.46142318742E+02  0.10000008947E+02 0.  0.
         12    1    1    2    0    0 -0.36340874847E+02  0.18287027003E+02 -0.19340084248E+02  0.45045681258E+02  0.00000000000E+00 0. -1.
         11    1    3    3    0    0  0.14356606139E+02 -0.35877491568E+01  0.48094171309E+01  0.15560031402E+02  0.51100000000E-03 0. -1.
        -11    1    3    3    0    0  0.10223386596E+02 -0.91646591376E+01  0.92355513242E+01  0.16547024479E+02  0.51100000000E-03 0.  1.
        -12    1    3    3    0    0  0.11760882112E+02 -0.55346187087E+01  0.52951157928E+01  0.14035262861E+02  0.00000000000E+00 0.  1.
</event>
<event>
 7    1  0.2250716E-008  0.4614232E+02  0.7816164E-02  0.1320468E+00
        -11   -1    0    0    0    0  0.00000000000E+00  0.00000000000E+00  0.45593999997E+02  0.45594000000E+02  0.51100000000E-03 0.  1.
         11   -1    0    0    0    0 -0.00000000000E+00 -0.00000000000E+00 -0.45593999997E+02  0.45594000000E+02  0.51100000000E-03 0. -1.
    9900012    2    1    2    0    0  0.23478620360E+02 -0.17047246877E+02  0.34456628612E+02  0.46142317684E+02  0.99999992948E+01 0.  0.
         12    1    1    2    0    0 -0.23478620360E+02  0.17047246877E+02 -0.34456628612E+02  0.45045682316E+02  0.00000000000E+00 0. -1.
         11    1    3    3    0    0  0.63791193942E+01 -0.30842898376E+01  0.45104533675E+01  0.83994165208E+01  0.51100000000E-03 0. -1.
        -11    1    3    3    0    0  0.11576723468E+02 -0.53789318673E+01  0.16533110211E+02  0.20887727683E+02  0.51100000000E-03 0.  1.
         12    1    3    3    0    0  0.55227774978E+01 -0.85840251715E+01  0.13413065033E+02  0.16855173480E+02  0.00000000000E+00 0. -1.
</event>
<event>
 7    1  0.2250716E-008  0.4614232E+02  0.7816164E-02  0.1320468E+00
        -11   -1    0    0    0    0  0.00000000000E+00  0.00000000000E+00  0.45593999997E+02  0.45594000000E+02  0.51100000000E-03 0.  1.
         11   -1    0    0    0    0 -0.00000000000E+00 -0.00000000000E+00 -0.45593999997E+02  0.45594000000E+02  0.51100000000E-03 0. -1.
    9900012    2    1    2    0    0  0.10350500379E+02  0.31538087456E+02  0.30452088718E+02  0.46142317346E+02  0.99999962184E+01 0.  0.
         12    1    1    2    0    0 -0.10350500379E+02 -0.31538087456E+02 -0.30452088718E+02  0.45045682654E+02  0.00000000000E+00 0. -1.
         11    1    3    3    0    0  0.13420064323E+01  0.20069288918E+01  0.64552931592E+01  0.68919920831E+01  0.51100000000E-03 0. -1.
        -11    1    3    3    0    0  0.21949547482E+01  0.36707949558E+01  0.40223234623E+01  0.58712561050E+01  0.51100000000E-03 0.  1.
        -12    1    3    3    0    0  0.68135391985E+01  0.25860363608E+02  0.19974472096E+02  0.33379069158E+02  0.00000000000E+00 0.  1.
</event>
<event>
 7    1  0.2250716E-008  0.4614232E+02  0.7816164E-02  0.1320468E+00
        -11   -1    0    0    0    0  0.00000000000E+00  0.00000000000E+00  0.45593999997E+02  0.45594000000E+02  0.51100000000E-03 0.  1.
         11   -1    0    0    0    0 -0.00000000000E+00 -0.00000000000E+00 -0.45593999997E+02  0.45594000000E+02  0.51100000000E-03 0. -1.
    9900012    2    1    2    0    0  0.33609508861E+01 -0.52713060861E+01  0.44609760740E+02  0.46142318609E+02  0.10000007733E+02 0.  0.
         12    1    1    2    0    0 -0.33609508861E+01  0.52713060861E+01 -0.44609760740E+02  0.45045681391E+02  0.00000000000E+00 0. -1.
         11    1    3    3    0    0 -0.13472298711E+01  0.11481232972E+01  0.62862484155E+01  0.65307070700E+01  0.51100000000E-03 0. -1.
        -11    1    3    3    0    0  0.52625842490E+01 -0.26216204330E+01  0.27672226949E+02  0.28289924554E+02  0.51100000000E-03 0.  1.
         12    1    3    3    0    0 -0.55440349173E+00 -0.37978089502E+01  0.10651285375E+02  0.11321686985E+02  0.00000000000E+00 0. -1.
</event>
<event>
 7    1  0.2250716E-008  0.4614232E+02  0.7816164E-02  0.1320468E+00
        -11   -1    0    0    0    0  0.00000000000E+00  0.00000000000E+00  0.45593999997E+02  0.45594000000E+02  0.51100000000E-03 0.  1.
         11   -1    0    0    0    0 -0.00000000000E+00 -0.00000000000E+00 -0.45593999997E+02  0.45594000000E+02  0.51100000000E-03 0. -1.
    9900012    2    1    2    0    0  0.42984439593E+02  0.97960274754E+01  0.92460402789E+01  0.46142318051E+02  0.10000002646E+02 0.  0.
         12    1    1    2    0    0 -0.42984439593E+02 -0.97960274754E+01 -0.92460402789E+01  0.45045681949E+02  0.00000000000E+00 0. -1.
         11    1    3    3    0    0  0.88174832883E+01  0.49774870231E+01 -0.18457068136E+00  0.10127065478E+02  0.51100000000E-03 0. -1.
        -11    1    3    3    0    0  0.16339108914E+02  0.41087525781E+00  0.54028228622E+01  0.17214116118E+02  0.51100000000E-03 0.  1.
        -12    1    3    3    0    0  0.17827847390E+02  0.44076651945E+01  0.40277880980E+01  0.18801136455E+02  0.00000000000E+00 0.  1.
</event>
<event>
 7    1  0.2250716E-008  0.4614232E+02  0.7816164E-02  0.1320468E+00
        -11   -1    0    0    0    0  0.00000000000E+00  0.00000000000E+00  0.45593999997E+02  0.45594000000E+02  0.51100000000E-03 0.  1.
         11   -1    0    0    0    0 -0.00000000000E+00 -0.00000000000E+00 -0.45593999997E+02  0.45594000000E+02  0.51100000000E-03 0. -1.
    9900012    2    1    2    0    0 -0.12831954007E+01 -0.44447702718E+02 -0.72019728129E+01  0.46142320077E+02  0.10000021114E+02 0.  0.
         12    1    1    2    0    0  0.12831954007E+01  0.44447702718E+02  0.72019728129E+01  0.45045679923E+02  0.00000000000E+00 0. -1.
         11    1    3    3    0    0 -0.14179042740E+01 -0.29278852943E+01 -0.12745118433E+01  0.34939011902E+01  0.51100000000E-03 0. -1.
        -11    1    3    3    0    0  0.33453157155E+01 -0.19286525664E+02 -0.48095452228E+01  0.20156709427E+02  0.51100000000E-03 0.  1.
        -12    1    3    3    0    0 -0.32106068422E+01 -0.22233291760E+02 -0.11179157467E+01  0.22491709459E+02  0.00000000000E+00 0.  1.
</event>
<event>
 7    1  0.2250716E-008  0.4614232E+02  0.7816164E-02  0.1320468E+00
        -11   -1    0    0    0    0  0.00000000000E+00  0.00000000000E+00  0.45593999997E+02  0.45594000000E+02  0.51100000000E-03 0.  1.
         11   -1    0    0    0    0 -0.00000000000E+00 -0.00000000000E+00 -0.45593999997E+02  0.45594000000E+02  0.51100000000E-03 0. -1.
    9900012    2    1    2    0    0 -0.27335166551E+01 -0.11242207022E+02  0.43534517397E+02  0.46142317221E+02  0.99999950730E+01 0.  0.
         12    1    1    2    0    0  0.27335166551E+01  0.11242207022E+02 -0.43534517397E+02  0.45045682779E+02  0.00000000000E+00 0. -1.
         11    1    3    3    0    0 -0.31678179779E+01 -0.86542339293E+01  0.23574677362E+02  0.25311978363E+02  0.51100000000E-03 0. -1.
        -11    1    3    3    0    0 -0.29906309317E+00  0.14423560331E+01  0.25485287694E+01  0.29436081277E+01  0.51100000000E-03 0.  1.
        -12    1    3    3    0    0  0.73336441600E+00 -0.40303291261E+01  0.17411311266E+02  0.17886730730E+02  0.00000000000E+00 0.  1.
</event>
<event>
 7    1  0.2250716E-008  0.4614232E+02  0.7816164E-02  0.1320468E+00
        -11   -1    0    0    0    0  0.00000000000E+00  0.00000000000E+00  0.45593999997E+02  0.45594000000E+02  0.51100000000E-03 0. -1.
         11   -1    0    0    0    0 -0.00000000000E+00 -0.00000000000E+00 -0.45593999997E+02  0.45594000000E+02  0.51100000000E-03 0.  1.
    9900012    2    1    2    0    0 -0.22831079333E+02 -0.35925060305E+02  0.14739244933E+02  0.46142317825E+02  0.10000000581E+02 0.  0.
         12    1    1    2    0    0  0.22831079333E+02  0.35925060305E+02 -0.14739244933E+02  0.45045682175E+02  0.00000000000E+00 0. -1.
         11    1    3    3    0    0 -0.75209485210E+01 -0.67291414243E+01  0.53938661749E+01  0.11442893145E+02  0.51100000000E-03 0.  1.
        -11    1    3    3    0    0 -0.10444137984E+02 -0.24214798979E+02  0.83727891221E+01  0.27668395432E+02  0.51100000000E-03 0. -1.
        -12    1    3    3    0    0 -0.48659928288E+01 -0.49811199015E+01  0.97258963571E+00  0.70310292477E+01  0.00000000000E+00 0.  1.
</event>
<event>
 7    1  0.2250716E-008  0.4614232E+02  0.7816164E-02  0.1320468E+00
        -11   -1    0    0    0    0  0.00000000000E+00  0.00000000000E+00  0.45593999997E+02  0.45594000000E+02  0.51100000000E-03 0.  1.
         11   -1    0    0    0    0 -0.00000000000E+00 -0.00000000000E+00 -0.45593999997E+02  0.45594000000E+02  0.51100000000E-03 0. -1.
    9900012    2    1    2    0    0 -0.29128955579E+02 -0.34307240892E+02  0.19054096171E+01  0.46142318558E+02  0.10000007270E+02 0.  0.
         12    1    1    2    0    0  0.29128955579E+02  0.34307240892E+02 -0.19054096171E+01  0.45045681442E+02  0.00000000000E+00 0. -1.
         11    1    3    3    0    0 -0.93434010751E+00 -0.34003921608E+01  0.39184512013E+00  0.35481264271E+01  0.51100000000E-03 0. -1.
        -11    1    3    3    0    0 -0.87853391113E+01 -0.15111458776E+02  0.17660293614E+01  0.17568643363E+02  0.51100000000E-03 0.  1.
        -12    1    3    3    0    0 -0.19409276360E+02 -0.15795389955E+02 -0.25246486442E+00  0.25025548769E+02  0.00000000000E+00 0.  1.
</event>
<event>
 7    1  0.2250716E-008  0.4614232E+02  0.7816164E-02  0.1320468E+00
        -11   -1    0    0    0    0  0.00000000000E+00  0.00000000000E+00  0.45593999997E+02  0.45594000000E+02  0.51100000000E-03 0.  1.
         11   -1    0    0    0    0 -0.00000000000E+00 -0.00000000000E+00 -0.45593999997E+02  0.45594000000E+02  0.51100000000E-03 0. -1.
    9900012    2    1    2    0    0  0.19856444946E+02 -0.54640388636E+01  0.40062192651E+02  0.46142318669E+02  0.10000008276E+02 0.  0.
         12    1    1    2    0    0 -0.19856444946E+02  0.54640388636E+01 -0.40062192651E+02  0.45045681331E+02  0.00000000000E+00 0. -1.
         11    1    3    3    0    0  0.72593932434E+01  0.18148147395E+00  0.12164676544E+02  0.14167253844E+02  0.51100000000E-03 0. -1.
        -11    1    3    3    0    0  0.71013221665E+01  0.51937696278E+00  0.15764314273E+02  0.17297749383E+02  0.51100000000E-03 0.  1.
         12    1    3    3    0    0  0.54957295358E+01 -0.61648973003E+01  0.12133201834E+02  0.14677315443E+02  0.00000000000E+00 0. -1.
</event>
<event>
 7    1  0.2250716E-008  0.4614232E+02  0.7816164E-02  0.1320468E+00
        -11   -1    0    0    0    0  0.00000000000E+00  0.00000000000E+00  0.45593999997E+02  0.45594000000E+02  0.51100000000E-03 0.  1.
         11   -1    0    0    0    0 -0.00000000000E+00 -0.00000000000E+00 -0.45593999997E+02  0.45594000000E+02  0.51100000000E-03 0. -1.
    9900012    2    1    2    0    0  0.43373422150E+02  0.64331495385E+01  0.10318641914E+02  0.46142317266E+02  0.99999954853E+01 0.  0.
         12    1    1    2    0    0 -0.43373422150E+02 -0.64331495385E+01 -0.10318641914E+02  0.45045682734E+02  0.00000000000E+00 0. -1.
         11    1    3    3    0    0  0.44139086375E+01  0.15449093599E+01  0.25980406510E+01  0.53496868952E+01  0.51100000000E-03 0. -1.
        -11    1    3    3    0    0  0.23786643005E+02  0.54654492596E+01  0.17230993997E+01  0.24467214653E+02  0.51100000000E-03 0.  1.
         12    1    3    3    0    0  0.15172870507E+02 -0.57720908101E+00  0.59975018632E+01  0.16325415718E+02  0.00000000000E+00 0. -1.
</event>
<event>
 7    1  0.2250716E-008  0.4614231E+02  0.7816164E-02  0.1320468E+00
        -11   -1    0    0    0    0  0.00000000000E+00  0.00000000000E+00  0.45593999997E+02  0.45594000000E+02  0.51100000000E-03 0.  1.
         11   -1    0    0    0    0 -0.00000000000E+00 -0.00000000000E+00 -0.45593999997E+02  0.45594000000E+02  0.51100000000E-03 0. -1.
    9900012    2    1    2    0    0 -0.89128445368E+01  0.24220327079E+02  0.36919517648E+02  0.46142314025E+02  0.99999659339E+01 0.  0.
         12    1    1    2    0    0  0.89128445368E+01 -0.24220327079E+02 -0.36919517648E+02  0.45045685975E+02  0.00000000000E+00 0. -1.
         11    1    3    3    0    0  0.18460967042E+01  0.10564665997E+01  0.25616822853E+01  0.33296262717E+01  0.51100000000E-03 0. -1.
        -11    1    3    3    0    0 -0.51981842680E+01  0.11426324168E+02  0.16612288285E+02  0.20821866535E+02  0.51100000000E-03 0.  1.
         12    1    3    3    0    0 -0.55607569730E+01  0.11737536312E+02  0.17745547077E+02  0.21990821218E+02  0.00000000000E+00 0. -1.
</event>
<event>
 7    1  0.2250716E-008  0.4614232E+02  0.7816164E-02  0.1320468E+00
        -11   -1    0    0    0    0  0.00000000000E+00  0.00000000000E+00  0.45593999997E+02  0.45594000000E+02  0.51100000000E-03 0.  1.
         11   -1    0    0    0    0 -0.00000000000E+00 -0.00000000000E+00 -0.45593999997E+02  0.45594000000E+02  0.51100000000E-03 0. -1.
    9900012    2    1    2    0    0 -0.11236107610E+02 -0.51396414286E+01  0.43317980633E+02  0.46142317916E+02  0.10000001416E+02 0.  0.
         12    1    1    2    0    0  0.11236107610E+02  0.51396414286E+01 -0.43317980633E+02  0.45045682084E+02  0.00000000000E+00 0. -1.
         11    1    3    3    0    0 -0.72112489931E+01  0.15191374259E-01  0.22295440253E+02  0.23432648146E+02  0.51100000000E-03 0. -1.
        -11    1    3    3    0    0 -0.21567094627E+01 -0.26188636328E+01  0.18092316128E+02  0.18407654538E+02  0.51100000000E-03 0.  1.
         12    1    3    3    0    0 -0.18681491538E+01 -0.25359691701E+01  0.29302242524E+01  0.43020152326E+01  0.00000000000E+00 0. -1.
</event>
<event>
 7    1  0.2250716E-008  0.4614232E+02  0.7816164E-02  0.1320468E+00
        -11   -1    0    0    0    0  0.00000000000E+00  0.00000000000E+00  0.45593999997E+02  0.45594000000E+02  0.51100000000E-03 0. -1.
         11   -1    0    0    0    0 -0.00000000000E+00 -0.00000000000E+00 -0.45593999997E+02  0.45594000000E+02  0.51100000000E-03 0.  1.
    9900012    2    1    2    0    0 -0.10038890293E+02  0.39456498717E+02 -0.19274828424E+02  0.46142316299E+02  0.99999866669E+01 0.  0.
         12    1    1    2    0    0  0.10038890293E+02 -0.39456498717E+02  0.19274828424E+02  0.45045683701E+02  0.00000000000E+00 0. -1.
         11    1    3    3    0    0 -0.15561084295E+01  0.35332531419E+01 -0.22226066370E+01  0.44548099547E+01  0.51100000000E-03 0. -1.
        -11    1    3    3    0    0 -0.92715719676E+01  0.29587120437E+02 -0.11026520338E+02  0.32908112883E+02  0.51100000000E-03 0.  1.
         12    1    3    3    0    0  0.78879010431E+00  0.63361251386E+01 -0.60257014486E+01  0.87793934613E+01  0.00000000000E+00 0. -1.
</event>
<event>
 7    1  0.2250716E-008  0.4614232E+02  0.7816164E-02  0.1320468E+00
        -11   -1    0    0    0    0  0.00000000000E+00  0.00000000000E+00  0.45593999997E+02  0.45594000000E+02  0.51100000000E-03 0. -1.
         11   -1    0    0    0    0 -0.00000000000E+00 -0.00000000000E+00 -0.45593999997E+02  0.45594000000E+02  0.51100000000E-03 0.  1.
    9900012    2    1    2    0    0 -0.53600629249E+01  0.44146877450E+02  0.71719214385E+01  0.46142317407E+02  0.99999967695E+01 0.  0.
         12    1    1    2    0    0  0.53600629249E+01 -0.44146877450E+02 -0.71719214385E+01  0.45045682593E+02  0.00000000000E+00 0. -1.
         11    1    3    3    0    0 -0.16878172718E+01  0.48817579008E+01 -0.18085548939E+01  0.54727651521E+01  0.51100000000E-03 0. -1.
        -11    1    3    3    0    0 -0.28083102203E+01  0.11097330442E+02  0.17966759108E+01  0.11587294500E+02  0.51100000000E-03 0.  1.
         12    1    3    3    0    0 -0.86393543275E+00  0.28167789107E+02  0.71838004216E+01  0.29082257755E+02  0.00000000000E+00 0. -1.
</event>
<event>
 7    1  0.2250716E-008  0.4614232E+02  0.7816164E-02  0.1320468E+00
        -11   -1    0    0    0    0  0.00000000000E+00  0.00000000000E+00  0.45593999997E+02  0.45594000000E+02  0.51100000000E-03 0.  1.
         11   -1    0    0    0    0 -0.00000000000E+00 -0.00000000000E+00 -0.45593999997E+02  0.45594000000E+02  0.51100000000E-03 0. -1.
    9900012    2    1    2    0    0  0.20267557468E+02  0.36422816589E+02  0.17079754113E+02  0.46142318136E+02  0.10000003423E+02 0.  0.
         12    1    1    2    0    0 -0.20267557468E+02 -0.36422816589E+02 -0.17079754113E+02  0.45045681864E+02  0.00000000000E+00 0. -1.
         11    1    3    3    0    0  0.19007161591E+01  0.23411671377E+01 -0.18677770703E+00  0.30213691693E+01  0.51100000000E-03 0. -1.
        -11    1    3    3    0    0  0.15309417147E+02  0.26864728553E+02  0.10177063065E+02  0.32552488484E+02  0.51100000000E-03 0.  1.
        -12    1    3    3    0    0  0.30574241619E+01  0.72169208981E+01  0.70894687550E+01  0.10568460483E+02  0.00000000000E+00 0.  1.
</event>
<event>
 7    1  0.2250716E-008  0.4614232E+02  0.7816164E-02  0.1320468E+00
        -11   -1    0    0    0    0  0.00000000000E+00  0.00000000000E+00  0.45593999997E+02  0.45594000000E+02  0.51100000000E-03 0. -1.
         11   -1    0    0    0    0 -0.00000000000E+00 -0.00000000000E+00 -0.45593999997E+02  0.45594000000E+02  0.51100000000E-03 0.  1.
    9900012    2    1    2    0    0 -0.38538093855E+02  0.18885315903E+02 -0.13684795568E+02  0.46142318026E+02  0.10000002414E+02 0.  0.
         12    1    1    2    0    0  0.38538093855E+02 -0.18885315903E+02  0.13684795568E+02  0.45045681974E+02  0.00000000000E+00 0. -1.
         11    1    3    3    0    0 -0.25721106458E+02  0.14536324535E+02 -0.81790023936E+01  0.30655768280E+02  0.51100000000E-03 0. -1.
        -11    1    3    3    0    0 -0.52286334581E+01 -0.15316114548E+00 -0.29461554334E+00  0.52391664179E+01  0.51100000000E-03 0.  1.
         12    1    3    3    0    0 -0.75883539394E+01  0.45021525138E+01 -0.52111776316E+01  0.10247383328E+02  0.00000000000E+00 0. -1.
</event>
<event>
 7    1  0.2250716E-008  0.4614232E+02  0.7816164E-02  0.1320468E+00
        -11   -1    0    0    0    0  0.00000000000E+00  0.00000000000E+00  0.45593999997E+02  0.45594000000E+02  0.51100000000E-03 0.  1.
         11   -1    0    0    0    0 -0.00000000000E+00 -0.00000000000E+00 -0.45593999997E+02  0.45594000000E+02  0.51100000000E-03 0. -1.
    9900012    2    1    2    0    0 -0.29147435447E+02 -0.25677001105E+02  0.22808596378E+02  0.46142318213E+02  0.10000004122E+02 0.  0.
         12    1    1    2    0    0  0.29147435447E+02  0.25677001105E+02 -0.22808596378E+02  0.45045681787E+02  0.00000000000E+00 0. -1.
         11    1    3    3    0    0 -0.13416563831E+02 -0.87751028836E+01  0.10437191338E+02  0.19129599550E+02  0.51100000000E-03 0.  1.
        -11    1    3    3    0    0 -0.70893723238E+01 -0.31303727153E+01  0.37302753108E+01  0.86007783041E+01  0.51100000000E-03 0. -1.
         12    1    3    3    0    0 -0.86414992922E+01 -0.13771525506E+02  0.86411297294E+01  0.18411940359E+02  0.00000000000E+00 0. -1.
</event>
<event>
 7    1  0.2250716E-008  0.4614233E+02  0.7816164E-02  0.1320468E+00
        -11   -1    0    0    0    0  0.00000000000E+00  0.00000000000E+00  0.45593999997E+02  0.45594000000E+02  0.51100000000E-03 0. -1.
         11   -1    0    0    0    0 -0.00000000000E+00 -0.00000000000E+00 -0.45593999997E+02  0.45594000000E+02  0.51100000000E-03 0.  1.
    9900012    2    1    2    0    0 -0.10428017376E+02 -0.26650513736E+02  0.34786764551E+02  0.46142329656E+02  0.10000108468E+02 0.  0.
         12    1    1    2    0    0  0.10428017376E+02  0.26650513736E+02 -0.34786764551E+02  0.45045670344E+02  0.00000000000E+00 0. -1.
         11    1    3    3    0    0 -0.24577577363E+01 -0.12779257035E+02  0.18184347260E+02  0.22361137471E+02  0.51100000000E-03 0. -1.
        -11    1    3    3    0    0 -0.50827907906E+01 -0.88666224161E+01  0.64070248650E+01  0.12062409509E+02  0.51100000000E-03 0.  1.
         12    1    3    3    0    0 -0.28874688488E+01 -0.50046342843E+01  0.10195392427E+02  0.11718782676E+02  0.00000000000E+00 0. -1.
</event>
<event>
 7    1  0.2250716E-008  0.4614232E+02  0.7816164E-02  0.1320468E+00
        -11   -1    0    0    0    0  0.00000000000E+00  0.00000000000E+00  0.45593999997E+02  0.45594000000E+02  0.51100000000E-03 0.  1.
         11   -1    0    0    0    0 -0.00000000000E+00 -0.00000000000E+00 -0.45593999997E+02  0.45594000000E+02  0.51100000000E-03 0. -1.
    9900012    2    1    2    0    0  0.24078454151E+02 -0.12988940256E+02  0.35785875747E+02  0.46142318450E+02  0.10000006285E+02 0.  0.
         12    1    1    2    0    0 -0.24078454151E+02  0.12988940256E+02 -0.35785875747E+02  0.45045681550E+02  0.00000000000E+00 0. -1.
         11    1    3    3    0    0  0.12199518558E+02 -0.29801690181E+01  0.10997985396E+02  0.16693272401E+02  0.51100000000E-03 0. -1.
        -11    1    3    3    0    0  0.10910638324E+02 -0.82671634414E+01  0.19739125037E+02  0.24021263029E+02  0.51100000000E-03 0.  1.
         12    1    3    3    0    0  0.96829726862E+00 -0.17416077967E+01  0.50487653149E+01  0.54277830210E+01  0.00000000000E+00 0. -1.
</event>
<event>
 7    1  0.2250716E-008  0.4614232E+02  0.7816164E-02  0.1320468E+00
        -11   -1    0    0    0    0  0.00000000000E+00  0.00000000000E+00  0.45593999997E+02  0.45594000000E+02  0.51100000000E-03 0.  1.
         11   -1    0    0    0    0 -0.00000000000E+00 -0.00000000000E+00 -0.45593999997E+02  0.45594000000E+02  0.51100000000E-03 0. -1.
    9900012    2    1    2    0    0  0.12502931642E+02 -0.21095943453E+01  0.43224295897E+02  0.46142318257E+02  0.10000004519E+02 0.  0.
         12    1    1    2    0    0 -0.12502931642E+02  0.21095943453E+01 -0.43224295897E+02  0.45045681743E+02  0.00000000000E+00 0. -1.
         11    1    3    3    0    0 -0.39757401257E+00  0.11245451956E+01  0.40759815970E+01  0.42469157317E+01  0.51100000000E-03 0. -1.
        -11    1    3    3    0    0  0.93242151619E+01  0.11096051530E+00  0.31162541393E+02  0.32527792531E+02  0.51100000000E-03 0.  1.
         12    1    3    3    0    0  0.35762904928E+01 -0.33451000563E+01  0.79857729070E+01  0.93676099939E+01  0.00000000000E+00 0. -1.
</event>
<event>
 7    1  0.2250716E-008  0.4614232E+02  0.7816164E-02  0.1320468E+00
        -11   -1    0    0    0    0  0.00000000000E+00  0.00000000000E+00  0.45593999997E+02  0.45594000000E+02  0.51100000000E-03 0.  1.
         11   -1    0    0    0    0 -0.00000000000E+00 -0.00000000000E+00 -0.45593999997E+02  0.45594000000E+02  0.51100000000E-03 0. -1.
    9900012    2    1    2    0    0  0.88197485165E+01  0.42456901627E+02  0.12195775972E+02  0.46142318618E+02  0.10000007811E+02 0.  0.
         12    1    1    2    0    0 -0.88197485165E+01 -0.42456901627E+02 -0.12195775972E+02  0.45045681382E+02  0.00000000000E+00 0. -1.
         11    1    3    3    0    0  0.34704441233E+01  0.30210148938E+02  0.92188479737E+01  0.31775528941E+02  0.51100000000E-03 0. -1.
        -11    1    3    3    0    0  0.53589144897E+01  0.11043067547E+02  0.38673921485E+01  0.12869499899E+02  0.51100000000E-03 0.  1.
         12    1    3    3    0    0 -0.96100964611E-02  0.12036851417E+01 -0.89046415068E+00  0.14972897776E+01  0.00000000000E+00 0. -1.
</event>
<event>
 7    1  0.2250716E-008  0.4614232E+02  0.7816164E-02  0.1320468E+00
        -11   -1    0    0    0    0  0.00000000000E+00  0.00000000000E+00  0.45593999997E+02  0.45594000000E+02  0.51100000000E-03 0. -1.
         11   -1    0    0    0    0 -0.00000000000E+00 -0.00000000000E+00 -0.45593999997E+02  0.45594000000E+02  0.51100000000E-03 0.  1.
    9900012    2    1    2    0    0 -0.37848022224E+02 -0.86131709990E+01 -0.22857252388E+02  0.46142317769E+02  0.10000000071E+02 0.  0.
         12    1    1    2    0    0  0.37848022224E+02  0.86131709990E+01  0.22857252388E+02  0.45045682231E+02  0.00000000000E+00 0. -1.
         11    1    3    3    0    0 -0.11401889962E+02 -0.14635777233E+01 -0.53443883522E+01  0.12677051770E+02  0.51100000000E-03 0. -1.
        -11    1    3    3    0    0 -0.18348466576E+02 -0.68410326204E+01 -0.85070491131E+01  0.21350312361E+02  0.51100000000E-03 0.  1.
        -12    1    3    3    0    0 -0.80976656850E+01 -0.30856065528E+00 -0.90058149230E+01  0.12114953638E+02  0.00000000000E+00 0.  1.
</event>
<event>
 7    1  0.2250716E-008  0.4614232E+02  0.7816164E-02  0.1320468E+00
        -11   -1    0    0    0    0  0.00000000000E+00  0.00000000000E+00  0.45593999997E+02  0.45594000000E+02  0.51100000000E-03 0. -1.
         11   -1    0    0    0    0 -0.00000000000E+00 -0.00000000000E+00 -0.45593999997E+02  0.45594000000E+02  0.51100000000E-03 0.  1.
    9900012    2    1    2    0    0 -0.31951408550E+02  0.25685229917E+02 -0.18667886276E+02  0.46142317386E+02  0.99999965760E+01 0.  0.
         12    1    1    2    0    0  0.31951408550E+02 -0.25685229917E+02  0.18667886276E+02  0.45045682614E+02  0.00000000000E+00 0. -1.
         11    1    3    3    0    0 -0.78722268324E+01  0.49994571386E+01 -0.19185511916E+01  0.95208910254E+01  0.51100000000E-03 0. -1.
        -11    1    3    3    0    0 -0.65632089422E+00  0.27197682699E+00  0.69104600849E+00  0.99109704751E+00  0.51100000000E-03 0.  1.
        -12    1    3    3    0    0 -0.23422860823E+02  0.20413795951E+02 -0.17440381093E+02  0.35630329313E+02  0.00000000000E+00 0.  1.
</event>
<event>
 7    1  0.2250716E-008  0.4614232E+02  0.7816164E-02  0.1320468E+00
        -11   -1    0    0    0    0  0.00000000000E+00  0.00000000000E+00  0.45593999997E+02  0.45594000000E+02  0.51100000000E-03 0.  1.
         11   -1    0    0    0    0 -0.00000000000E+00 -0.00000000000E+00 -0.45593999997E+02  0.45594000000E+02  0.51100000000E-03 0. -1.
    9900012    2    1    2    0    0  0.65005544099E+01 -0.20501962492E+02  0.39579360775E+02  0.46142317932E+02  0.10000001554E+02 0.  0.
         12    1    1    2    0    0 -0.65005544099E+01  0.20501962492E+02 -0.39579360775E+02  0.45045682068E+02  0.00000000000E+00 0. -1.
         11    1    3    3    0    0  0.32957143079E+01 -0.31892553572E+01  0.65396599150E+01  0.79875049044E+01  0.51100000000E-03 0. -1.
        -11    1    3    3    0    0  0.10859906292E+01 -0.16871248880E+02  0.28831638117E+02  0.33422773242E+02  0.51100000000E-03 0.  1.
        -12    1    3    3    0    0  0.21188494727E+01 -0.44145825465E+00  0.42080627428E+01  0.47320397849E+01  0.00000000000E+00 0.  1.
</event>
<event>
 7    1  0.2250716E-008  0.4614232E+02  0.7816164E-02  0.1320468E+00
        -11   -1    0    0    0    0  0.00000000000E+00  0.00000000000E+00  0.45593999997E+02  0.45594000000E+02  0.51100000000E-03 0.  1.
         11   -1    0    0    0    0 -0.00000000000E+00 -0.00000000000E+00 -0.45593999997E+02  0.45594000000E+02  0.51100000000E-03 0. -1.
    9900012    2    1    2    0    0  0.25131866235E+02  0.13521362012E+02  0.34852195106E+02  0.46142318355E+02  0.10000005418E+02 0.  0.
         12    1    1    2    0    0 -0.25131866235E+02 -0.13521362012E+02 -0.34852195106E+02  0.45045681645E+02  0.00000000000E+00 0. -1.
         11    1    3    3    0    0  0.10650712221E+02  0.81973644685E+01  0.12279085383E+02  0.18204680528E+02  0.51100000000E-03 0. -1.
        -11    1    3    3    0    0  0.18459067013E+01  0.30018101506E+01  0.61330962362E+01  0.70734083322E+01  0.51100000000E-03 0.  1.
        -12    1    3    3    0    0  0.12635247313E+02  0.23221873925E+01  0.16440013487E+02  0.20864229495E+02  0.00000000000E+00 0.  1.
</event>
<event>
 7    1  0.2250716E-008  0.4614232E+02  0.7816164E-02  0.1320468E+00
        -11   -1    0    0    0    0  0.00000000000E+00  0.00000000000E+00  0.45593999997E+02  0.45594000000E+02  0.51100000000E-03 0.  1.
         11   -1    0    0    0    0 -0.00000000000E+00 -0.00000000000E+00 -0.45593999997E+02  0.45594000000E+02  0.51100000000E-03 0. -1.
    9900012    2    1    2    0    0  0.11025757808E+02  0.15954125596E+01  0.43646314557E+02  0.46142318178E+02  0.10000003797E+02 0.  0.
         12    1    1    2    0    0 -0.11025757808E+02 -0.15954125596E+01 -0.43646314557E+02  0.45045681822E+02  0.00000000000E+00 0. -1.
         11    1    3    3    0    0  0.28660407547E+01  0.21359809380E+01  0.98630763849E+01  0.10490799789E+02  0.51100000000E-03 0. -1.
        -11    1    3    3    0    0  0.91539488023E+00  0.23587261683E+01  0.16443070319E+02  0.16636589154E+02  0.51100000000E-03 0.  1.
        -12    1    3    3    0    0  0.72443221732E+01 -0.28992945467E+01  0.17340167853E+02  0.19014929234E+02  0.00000000000E+00 0.  1.
</event>
<event>
 7    1  0.2250716E-008  0.4614232E+02  0.7816164E-02  0.1320468E+00
        -11   -1    0    0    0    0  0.00000000000E+00  0.00000000000E+00  0.45593999997E+02  0.45594000000E+02  0.51100000000E-03 0.  1.
         11   -1    0    0    0    0 -0.00000000000E+00 -0.00000000000E+00 -0.45593999997E+02  0.45594000000E+02  0.51100000000E-03 0. -1.
    9900012    2    1    2    0    0 -0.66602671306E+01 -0.18771000266E+02  0.40403018194E+02  0.46142317761E+02  0.99999999964E+01 0.  0.
         12    1    1    2    0    0  0.66602671306E+01  0.18771000266E+02 -0.40403018194E+02  0.45045682239E+02  0.00000000000E+00 0. -1.
         11    1    3    3    0    0 -0.21794360877E+01 -0.26824470504E+00  0.59664933861E+01  0.63577464930E+01  0.51100000000E-03 0. -1.
        -11    1    3    3    0    0 -0.21763466768E+01 -0.19556585550E+01  0.79267460253E+01  0.84495199894E+01  0.51100000000E-03 0.  1.
         12    1    3    3    0    0 -0.23044843661E+01 -0.16547097006E+02  0.26509778782E+02  0.31335051278E+02  0.00000000000E+00 0. -1.
</event>
<event>
 7    1  0.2250716E-008  0.4614232E+02  0.7816164E-02  0.1320468E+00
        -11   -1    0    0    0    0  0.00000000000E+00  0.00000000000E+00  0.45593999997E+02  0.45594000000E+02  0.51100000000E-03 0.  1.
         11   -1    0    0    0    0 -0.00000000000E+00 -0.00000000000E+00 -0.45593999997E+02  0.45594000000E+02  0.51100000000E-03 0. -1.
    9900012    2    1    2    0    0 -0.38697663200E+02  0.15678917650E+02 -0.16904907207E+02  0.46142317815E+02  0.10000000495E+02 0.  0.
         12    1    1    2    0    0  0.38697663200E+02 -0.15678917650E+02  0.16904907207E+02  0.45045682185E+02  0.00000000000E+00 0. -1.
         11    1    3    3    0    0 -0.65370679668E+01  0.27038500767E+01  0.54433462514E+00  0.70950943112E+01  0.51100000000E-03 0. -1.
        -11    1    3    3    0    0 -0.15953509510E+02  0.52940941717E+01 -0.64260974922E+01  0.17995461317E+02  0.51100000000E-03 0.  1.
        -12    1    3    3    0    0 -0.16207085723E+02  0.76809734014E+01 -0.11023144340E+02  0.21051762187E+02  0.00000000000E+00 0.  1.
</event>
<event>
 7    1  0.2250716E-008  0.4614232E+02  0.7816164E-02  0.1320468E+00
        -11   -1    0    0    0    0  0.00000000000E+00  0.00000000000E+00  0.45593999997E+02  0.45594000000E+02  0.51100000000E-03 0.  1.
         11   -1    0    0    0    0 -0.00000000000E+00 -0.00000000000E+00 -0.45593999997E+02  0.45594000000E+02  0.51100000000E-03 0. -1.
    9900012    2    1    2    0    0  0.28888903685E+02  0.30746467364E+02  0.15786055974E+02  0.46142316803E+02  0.99999912643E+01 0.  0.
         12    1    1    2    0    0 -0.28888903685E+02 -0.30746467364E+02 -0.15786055974E+02  0.45045683197E+02  0.00000000000E+00 0. -1.
         11    1    3    3    0    0  0.18355824542E+02  0.16271874290E+02  0.84736710186E+01  0.25952134562E+02  0.51100000000E-03 0. -1.
        -11    1    3    3    0    0  0.10852441833E+02  0.14771318464E+02  0.73595235263E+01  0.19751707008E+02  0.51100000000E-03 0.  1.
         12    1    3    3    0    0 -0.31936269048E+00 -0.29672539061E+00 -0.47138571094E-01  0.43847523350E+00  0.00000000000E+00 0. -1.
</event>
<event>
 7    1  0.2250716E-008  0.4614232E+02  0.7816164E-02  0.1320468E+00
        -11   -1    0    0    0    0  0.00000000000E+00  0.00000000000E+00  0.45593999997E+02  0.45594000000E+02  0.51100000000E-03 0.  1.
         11   -1    0    0    0    0 -0.00000000000E+00 -0.00000000000E+00 -0.45593999997E+02  0.45594000000E+02  0.51100000000E-03 0. -1.
    9900012    2    1    2    0    0 -0.19323565213E+02 -0.13108511865E+02  0.38521164023E+02  0.46142319480E+02  0.10000015672E+02 0.  0.
         12    1    1    2    0    0  0.19323565213E+02  0.13108511865E+02 -0.38521164023E+02  0.45045680520E+02  0.00000000000E+00 0. -1.
         11    1    3    3    0    0 -0.91336387531E+01 -0.53015007294E+01  0.20259117678E+02  0.22846468353E+02  0.51100000000E-03 0. -1.
        -11    1    3    3    0    0 -0.55863816769E+01 -0.57890370772E+01  0.15729618147E+02  0.17667526647E+02  0.51100000000E-03 0.  1.
         12    1    3    3    0    0 -0.46035447831E+01 -0.20179740587E+01  0.25324281984E+01  0.56283244800E+01  0.00000000000E+00 0. -1.
</event>
<event>
 7    1  0.2250716E-008  0.4614232E+02  0.7816164E-02  0.1320468E+00
        -11   -1    0    0    0    0  0.00000000000E+00  0.00000000000E+00  0.45593999997E+02  0.45594000000E+02  0.51100000000E-03 0.  1.
         11   -1    0    0    0    0 -0.00000000000E+00 -0.00000000000E+00 -0.45593999997E+02  0.45594000000E+02  0.51100000000E-03 0. -1.
    9900012    2    1    2    0    0 -0.29722808578E+02  0.22471881290E+02  0.25311710252E+02  0.46142317917E+02  0.10000001419E+02 0.  0.
         12    1    1    2    0    0  0.29722808578E+02 -0.22471881290E+02 -0.25311710252E+02  0.45045682083E+02  0.00000000000E+00 0. -1.
         11    1    3    3    0    0 -0.33514566461E+01  0.56106942738E+01  0.79626251678E+01  0.10301240300E+02  0.51100000000E-03 0. -1.
        -11    1    3    3    0    0 -0.12247578170E+02  0.66962613859E+01  0.75062279030E+01  0.15848865737E+02  0.51100000000E-03 0.  1.
         12    1    3    3    0    0 -0.14123773762E+02  0.10164925631E+02  0.98428571811E+01  0.19992211880E+02  0.00000000000E+00 0. -1.
</event>
<event>
 7    1  0.2250716E-008  0.4614232E+02  0.7816164E-02  0.1320468E+00
        -11   -1    0    0    0    0  0.00000000000E+00  0.00000000000E+00  0.45593999997E+02  0.45594000000E+02  0.51100000000E-03 0.  1.
         11   -1    0    0    0    0 -0.00000000000E+00 -0.00000000000E+00 -0.45593999997E+02  0.45594000000E+02  0.51100000000E-03 0. -1.
    9900012    2    1    2    0    0  0.21935377624E+02 -0.28289707320E+02  0.27343099338E+02  0.46142318596E+02  0.10000007611E+02 0.  0.
         12    1    1    2    0    0 -0.21935377624E+02  0.28289707320E+02 -0.27343099338E+02  0.45045681404E+02  0.00000000000E+00 0. -1.
         11    1    3    3    0    0  0.15417326219E+02 -0.12260250916E+02  0.12723802738E+02  0.23450007604E+02  0.51100000000E-03 0. -1.
        -11    1    3    3    0    0  0.15333360836E+01 -0.25313297976E+01  0.22558479452E+01  0.37212363943E+01  0.51100000000E-03 0.  1.
         12    1    3    3    0    0  0.49847153211E+01 -0.13498126607E+02  0.12363448655E+02  0.18971074597E+02  0.00000000000E+00 0. -1.
</event>
<event>
 7    1  0.2250716E-008  0.4614232E+02  0.7816164E-02  0.1320468E+00
        -11   -1    0    0    0    0  0.00000000000E+00  0.00000000000E+00  0.45593999997E+02  0.45594000000E+02  0.51100000000E-03 0.  1.
         11   -1    0    0    0    0 -0.00000000000E+00 -0.00000000000E+00 -0.45593999997E+02  0.45594000000E+02  0.51100000000E-03 0. -1.
    9900012    2    1    2    0    0 -0.74148521912E+01 -0.50541377469E+01  0.44142826089E+02  0.46142318336E+02  0.10000005245E+02 0.  0.
         12    1    1    2    0    0  0.74148521912E+01  0.50541377469E+01 -0.44142826089E+02  0.45045681664E+02  0.00000000000E+00 0. -1.
         11    1    3    3    0    0  0.45793389671E+00 -0.91026963310E+00  0.84731792849E+01  0.85342288295E+01  0.51100000000E-03 0. -1.
        -11    1    3    3    0    0 -0.81148299308E+00 -0.36460760450E+01  0.20882012211E+02  0.21213458215E+02  0.51100000000E-03 0.  1.
        -12    1    3    3    0    0 -0.70613030949E+01 -0.49779206876E+00  0.14787634593E+02  0.16394631292E+02  0.00000000000E+00 0.  1.
</event>
<event>
 7    1  0.2250716E-008  0.4614232E+02  0.7816164E-02  0.1320468E+00
        -11   -1    0    0    0    0  0.00000000000E+00  0.00000000000E+00  0.45593999997E+02  0.45594000000E+02  0.51100000000E-03 0.  1.
         11   -1    0    0    0    0 -0.00000000000E+00 -0.00000000000E+00 -0.45593999997E+02  0.45594000000E+02  0.51100000000E-03 0. -1.
    9900012    2    1    2    0    0  0.10989329755E+02 -0.25763403068E+01  0.43608604657E+02  0.46142319875E+02  0.10000019276E+02 0.  0.
         12    1    1    2    0    0 -0.10989329755E+02  0.25763403068E+01 -0.43608604657E+02  0.45045680125E+02  0.00000000000E+00 0. -1.
         11    1    3    3    0    0 -0.12210403627E+01  0.13556477748E+01  0.63497060240E+01  0.66066245019E+01  0.51100000000E-03 0. -1.
        -11    1    3    3    0    0  0.54959260564E+00  0.32902422383E+00  0.82376736799E+00  0.10435046285E+01  0.51100000000E-03 0.  1.
        -12    1    3    3    0    0  0.11660777512E+02 -0.42610123054E+01  0.36435131265E+02  0.38492190745E+02  0.00000000000E+00 0.  1.
</event>
<event>
 7    1  0.2250716E-008  0.4614232E+02  0.7816164E-02  0.1320468E+00
        -11   -1    0    0    0    0  0.00000000000E+00  0.00000000000E+00  0.45593999997E+02  0.45594000000E+02  0.51100000000E-03 0.  1.
         11   -1    0    0    0    0 -0.00000000000E+00 -0.00000000000E+00 -0.45593999997E+02  0.45594000000E+02  0.51100000000E-03 0. -1.
    9900012    2    1    2    0    0  0.40878211890E+02 -0.75289056939E-01  0.18922990168E+02  0.46142318380E+02  0.10000005642E+02 0.  0.
         12    1    1    2    0    0 -0.40878211890E+02  0.75289056939E-01 -0.18922990168E+02  0.45045681620E+02  0.00000000000E+00 0. -1.
         11    1    3    3    0    0  0.35373345474E+02  0.12332774215E+01  0.15915973398E+02  0.38808668525E+02  0.51100000000E-03 0. -1.
        -11    1    3    3    0    0  0.40157822190E+01  0.21137205069E+00  0.32787164388E+01  0.51885611417E+01  0.51100000000E-03 0.  1.
         12    1    3    3    0    0  0.14890841969E+01 -0.15199385292E+01 -0.27169966873E+00  0.21450887133E+01  0.00000000000E+00 0. -1.
</event>
<event>
 7    1  0.2250716E-008  0.4614230E+02  0.7816164E-02  0.1320468E+00
        -11   -1    0    0    0    0  0.00000000000E+00  0.00000000000E+00  0.45593999997E+02  0.45594000000E+02  0.51100000000E-03 0.  1.
         11   -1    0    0    0    0 -0.00000000000E+00 -0.00000000000E+00 -0.45593999997E+02  0.45594000000E+02  0.51100000000E-03 0. -1.
    9900012    2    1    2    0    0  0.16953536557E+01 -0.16268420363E+02  0.41971167696E+02  0.46142304946E+02  0.99998831424E+01 0.  0.
         12    1    1    2    0    0 -0.16953536557E+01  0.16268420363E+02 -0.41971167696E+02  0.45045695054E+02  0.00000000000E+00 0. -1.
         11    1    3    3    0    0  0.14800929405E+01 -0.37868701485E+01  0.14039180208E+02  0.14616074775E+02  0.51100000000E-03 0. -1.
        -11    1    3    3    0    0  0.33584717640E+00 -0.56133714031E+01  0.21105609315E+02  0.21841920169E+02  0.51100000000E-03 0.  1.
         12    1    3    3    0    0 -0.12058646123E+00 -0.68681788112E+01  0.68263781728E+01  0.96843100031E+01  0.00000000000E+00 0. -1.
</event>
<event>
 7    1  0.2250716E-008  0.4614232E+02  0.7816164E-02  0.1320468E+00
        -11   -1    0    0    0    0  0.00000000000E+00  0.00000000000E+00  0.45593999997E+02  0.45594000000E+02  0.51100000000E-03 0. -1.
         11   -1    0    0    0    0 -0.00000000000E+00 -0.00000000000E+00 -0.45593999997E+02  0.45594000000E+02  0.51100000000E-03 0.  1.
    9900012    2    1    2    0    0  0.10145160022E+02 -0.42710942205E+02  0.10097752812E+02  0.46142317989E+02  0.10000002082E+02 0.  0.
         12    1    1    2    0    0 -0.10145160022E+02  0.42710942205E+02 -0.10097752812E+02  0.45045682011E+02  0.00000000000E+00 0. -1.
         11    1    3    3    0    0 -0.62584857093E+00 -0.76820917882E+00  0.10275551020E+01  0.14274808318E+01  0.51100000000E-03 0. -1.
        -11    1    3    3    0    0  0.72003003616E+01 -0.33559114364E+02  0.94322039545E+01  0.35595293986E+02  0.51100000000E-03 0.  1.
        -12    1    3    3    0    0  0.35707082313E+01 -0.83836186622E+01 -0.36200624497E+00  0.91195431721E+01  0.00000000000E+00 0.  1.
</event>
<event>
 7    1  0.2250716E-008  0.4614232E+02  0.7816164E-02  0.1320468E+00
        -11   -1    0    0    0    0  0.00000000000E+00  0.00000000000E+00  0.45593999997E+02  0.45594000000E+02  0.51100000000E-03 0. -1.
         11   -1    0    0    0    0 -0.00000000000E+00 -0.00000000000E+00 -0.45593999997E+02  0.45594000000E+02  0.51100000000E-03 0.  1.
    9900012    2    1    2    0    0  0.27547861975E+01 -0.31753094299E+02 -0.31831834041E+02  0.46142317598E+02  0.99999985168E+01 0.  0.
         12    1    1    2    0    0 -0.27547861975E+01  0.31753094299E+02  0.31831834041E+02  0.45045682402E+02  0.00000000000E+00 0. -1.
         11    1    3    3    0    0  0.77340451475E+00 -0.13950777176E+01 -0.34899050961E+01  0.38371648678E+01  0.51100000000E-03 0. -1.
        -11    1    3    3    0    0  0.70730963528E+00 -0.33646493168E+01 -0.72533779047E+01  0.80269946577E+01  0.51100000000E-03 0.  1.
         12    1    3    3    0    0  0.12740720474E+01 -0.26993367265E+02 -0.21088551041E+02  0.34278158073E+02  0.00000000000E+00 0. -1.
</event>
<event>
 7    1  0.2250716E-008  0.4614232E+02  0.7816164E-02  0.1320468E+00
        -11   -1    0    0    0    0  0.00000000000E+00  0.00000000000E+00  0.45593999997E+02  0.45594000000E+02  0.51100000000E-03 0.  1.
         11   -1    0    0    0    0 -0.00000000000E+00 -0.00000000000E+00 -0.45593999997E+02  0.45594000000E+02  0.51100000000E-03 0. -1.
    9900012    2    1    2    0    0  0.45015295875E+02 -0.82977542291E+00 -0.14310352011E+01  0.46142320388E+02  0.10000023950E+02 0.  0.
         12    1    1    2    0    0 -0.45015295875E+02  0.82977542291E+00  0.14310352011E+01  0.45045679612E+02  0.00000000000E+00 0. -1.
         11    1    3    3    0    0  0.17627389352E+02  0.54854307523E+00  0.17349054582E+01  0.17721051100E+02  0.51100000000E-03 0.  1.
        -11    1    3    3    0    0  0.16680745894E+01 -0.18485040011E+01  0.92530394951E-01  0.24915862444E+01  0.51100000000E-03 0. -1.
         12    1    3    3    0    0  0.25719831934E+02  0.47018550298E+00 -0.32584710543E+01  0.25929683043E+02  0.00000000000E+00 0. -1.
</event>
<event>
 7    1  0.2250716E-008  0.4614232E+02  0.7816164E-02  0.1320468E+00
        -11   -1    0    0    0    0  0.00000000000E+00  0.00000000000E+00  0.45593999997E+02  0.45594000000E+02  0.51100000000E-03 0. -1.
         11   -1    0    0    0    0 -0.00000000000E+00 -0.00000000000E+00 -0.45593999997E+02  0.45594000000E+02  0.51100000000E-03 0.  1.
    9900012    2    1    2    0    0 -0.40254706613E+02 -0.14483896889E+02 -0.14102775003E+02  0.46142323888E+02  0.10000055871E+02 0.  0.
         12    1    1    2    0    0  0.40254706613E+02  0.14483896889E+02  0.14102775003E+02  0.45045676112E+02  0.00000000000E+00 0. -1.
         11    1    3    3    0    0 -0.10633268757E+02 -0.51126928116E+01 -0.52198713454E+01  0.12901670023E+02  0.51100000000E-03 0.  1.
        -11    1    3    3    0    0 -0.42342689223E+01 -0.41976481176E+01 -0.38933134260E+00  0.59750198478E+01  0.51100000000E-03 0. -1.
         12    1    3    3    0    0 -0.25387168934E+02 -0.51735559599E+01 -0.84935723149E+01  0.27265634018E+02  0.00000000000E+00 0. -1.
</event>
<event>
 7    1  0.2250716E-008  0.4614232E+02  0.7816164E-02  0.1320468E+00
        -11   -1    0    0    0    0  0.00000000000E+00  0.00000000000E+00  0.45593999997E+02  0.45594000000E+02  0.51100000000E-03 0.  1.
         11   -1    0    0    0    0 -0.00000000000E+00 -0.00000000000E+00 -0.45593999997E+02  0.45594000000E+02  0.51100000000E-03 0. -1.
    9900012    2    1    2    0    0  0.36701441754E+02  0.34285391159E+01  0.25891365014E+02  0.46142317747E+02  0.99999998751E+01 0.  0.
         12    1    1    2    0    0 -0.36701441754E+02 -0.34285391159E+01 -0.25891365014E+02  0.45045682253E+02  0.00000000000E+00 0. -1.
         11    1    3    3    0    0  0.96252216387E+00  0.36112575110E+00 -0.77045438047E+00  0.12847026650E+01  0.51100000000E-03 0. -1.
        -11    1    3    3    0    0  0.98963556015E+01  0.25652552185E+01  0.78354970393E+01  0.12880737659E+02  0.51100000000E-03 0.  1.
        -12    1    3    3    0    0  0.25842563989E+02  0.50215814630E+00  0.18826322355E+02  0.31976877423E+02  0.00000000000E+00 0.  1.
</event>
<event>
 7    1  0.2250716E-008  0.4614232E+02  0.7816164E-02  0.1320468E+00
        -11   -1    0    0    0    0  0.00000000000E+00  0.00000000000E+00  0.45593999997E+02  0.45594000000E+02  0.51100000000E-03 0. -1.
         11   -1    0    0    0    0 -0.00000000000E+00 -0.00000000000E+00 -0.45593999997E+02  0.45594000000E+02  0.51100000000E-03 0.  1.
    9900012    2    1    2    0    0  0.25917944517E+01 -0.10847069143E+02 -0.43643294280E+02  0.46142318264E+02  0.10000004584E+02 0.  0.
         12    1    1    2    0    0 -0.25917944517E+01  0.10847069143E+02  0.43643294280E+02  0.45045681736E+02  0.00000000000E+00 0. -1.
         11    1    3    3    0    0 -0.18162031149E+01 -0.65870782756E+01 -0.17274367078E+02  0.18576650726E+02  0.51100000000E-03 0.  1.
        -11    1    3    3    0    0  0.22796214546E+01 -0.52037825206E+01 -0.17690879546E+02  0.18580722426E+02  0.51100000000E-03 0. -1.
        -12    1    3    3    0    0  0.21283761119E+01  0.94379165317E+00 -0.86780476557E+01  0.89849451124E+01  0.00000000000E+00 0.  1.
</event>
<event>
 7    1  0.2250716E-008  0.4614232E+02  0.7816164E-02  0.1320468E+00
        -11   -1    0    0    0    0  0.00000000000E+00  0.00000000000E+00  0.45593999997E+02  0.45594000000E+02  0.51100000000E-03 0.  1.
         11   -1    0    0    0    0 -0.00000000000E+00 -0.00000000000E+00 -0.45593999997E+02  0.45594000000E+02  0.51100000000E-03 0. -1.
    9900012    2    1    2    0    0 -0.22624106247E+02  0.37106760642E+02  0.11847009097E+02  0.46142317706E+02  0.99999994961E+01 0.  0.
         12    1    1    2    0    0  0.22624106247E+02 -0.37106760642E+02 -0.11847009097E+02  0.45045682294E+02  0.00000000000E+00 0. -1.
         11    1    3    3    0    0 -0.56206007490E+01  0.15706522069E+02  0.55186829250E+01  0.17571051471E+02  0.51100000000E-03 0. -1.
        -11    1    3    3    0    0 -0.14727573203E+02  0.20660090775E+02  0.50936538641E+01  0.25878293476E+02  0.51100000000E-03 0.  1.
        -12    1    3    3    0    0 -0.22759322951E+01  0.74014779735E+00  0.12346723080E+01  0.26929727593E+01  0.00000000000E+00 0.  1.
</event>
<event>
 7    1  0.2250716E-008  0.4614231E+02  0.7816164E-02  0.1320468E+00
        -11   -1    0    0    0    0  0.00000000000E+00  0.00000000000E+00  0.45593999997E+02  0.45594000000E+02  0.51100000000E-03 0.  1.
         11   -1    0    0    0    0 -0.00000000000E+00 -0.00000000000E+00 -0.45593999997E+02  0.45594000000E+02  0.51100000000E-03 0. -1.
    9900012    2    1    2    0    0 -0.10612062185E+02 -0.29266857733E+01  0.43679892726E+02  0.46142307842E+02  0.99999095488E+01 0.  0.
         12    1    1    2    0    0  0.10612062185E+02  0.29266857733E+01 -0.43679892726E+02  0.45045692158E+02  0.00000000000E+00 0. -1.
         11    1    3    3    0    0 -0.35638153600E+01 -0.27366114866E+01  0.15257252130E+02  0.15905142727E+02  0.51100000000E-03 0. -1.
        -11    1    3    3    0    0 -0.13883041665E+01 -0.26309943500E+01  0.16992923779E+02  0.17251347152E+02  0.51100000000E-03 0.  1.
         12    1    3    3    0    0 -0.56599426585E+01  0.24409200633E+01  0.11429716817E+02  0.12985817963E+02  0.00000000000E+00 0. -1.
</event>
<event>
 7    1  0.2250716E-008  0.4614232E+02  0.7816164E-02  0.1320468E+00
        -11   -1    0    0    0    0  0.00000000000E+00  0.00000000000E+00  0.45593999997E+02  0.45594000000E+02  0.51100000000E-03 0.  1.
         11   -1    0    0    0    0 -0.00000000000E+00 -0.00000000000E+00 -0.45593999997E+02  0.45594000000E+02  0.51100000000E-03 0. -1.
    9900012    2    1    2    0    0  0.10726648065E+02  0.56865708712E+01  0.43378744560E+02  0.46142317115E+02  0.99999941113E+01 0.  0.
         12    1    1    2    0    0 -0.10726648065E+02 -0.56865708712E+01 -0.43378744560E+02  0.45045682885E+02  0.00000000000E+00 0. -1.
         11    1    3    3    0    0  0.14571312693E+01  0.11119280547E+01  0.65293489468E+00  0.19457491546E+01  0.51100000000E-03 0. -1.
        -11    1    3    3    0    0 -0.14915954357E+00  0.10066476555E+01  0.20024993715E+01  0.22462395388E+01  0.51100000000E-03 0.  1.
         12    1    3    3    0    0  0.94186763388E+01  0.35679951609E+01  0.40723310294E+02  0.41950328422E+02  0.00000000000E+00 0. -1.
</event>
<event>
 7    1  0.2250716E-008  0.4614231E+02  0.7816164E-02  0.1320468E+00
        -11   -1    0    0    0    0  0.00000000000E+00  0.00000000000E+00  0.45593999997E+02  0.45594000000E+02  0.51100000000E-03 0.  1.
         11   -1    0    0    0    0 -0.00000000000E+00 -0.00000000000E+00 -0.45593999997E+02  0.45594000000E+02  0.51100000000E-03 0. -1.
    9900012    2    1    2    0    0  0.12358168307E+02 -0.35980262066E+02  0.24120743795E+02  0.46142313598E+02  0.99999620372E+01 0.  0.
         12    1    1    2    0    0 -0.12358168307E+02  0.35980262066E+02 -0.24120743795E+02  0.45045686402E+02  0.00000000000E+00 0. -1.
         11    1    3    3    0    0  0.46076495328E+01 -0.11206086413E+02  0.12506587281E+02  0.17413257380E+02  0.51100000000E-03 0. -1.
        -11    1    3    3    0    0  0.32802927427E+01 -0.14339360345E+02  0.83618202568E+01  0.16920331375E+02  0.51100000000E-03 0.  1.
         12    1    3    3    0    0  0.44702260311E+01 -0.10434815308E+02  0.32523362571E+01  0.11808724843E+02  0.00000000000E+00 0. -1.
</event>
<event>
 7    1  0.2250716E-008  0.4614232E+02  0.7816164E-02  0.1320468E+00
        -11   -1    0    0    0    0  0.00000000000E+00  0.00000000000E+00  0.45593999997E+02  0.45594000000E+02  0.51100000000E-03 0. -1.
         11   -1    0    0    0    0 -0.00000000000E+00 -0.00000000000E+00 -0.45593999997E+02  0.45594000000E+02  0.51100000000E-03 0.  1.
    9900012    2    1    2    0    0 -0.10798210145E+02  0.33981226869E+02 -0.27527955152E+02  0.46142318335E+02  0.10000005230E+02 0.  0.
         12    1    1    2    0    0  0.10798210145E+02 -0.33981226869E+02  0.27527955152E+02  0.45045681665E+02  0.00000000000E+00 0. -1.
         11    1    3    3    0    0 -0.18068147949E+01  0.12128609927E+02 -0.50363088030E+01  0.13256400910E+02  0.51100000000E-03 0. -1.
        -11    1    3    3    0    0 -0.22813477497E+01  0.21728373119E+01 -0.22810542989E+01  0.38895987601E+01  0.51100000000E-03 0.  1.
         12    1    3    3    0    0 -0.67100476006E+01  0.19679779630E+02 -0.20210592050E+02  0.28996318665E+02  0.00000000000E+00 0. -1.
</event>
<event>
 7    1  0.2250716E-008  0.4614233E+02  0.7816164E-02  0.1320468E+00
        -11   -1    0    0    0    0  0.00000000000E+00  0.00000000000E+00  0.45593999997E+02  0.45594000000E+02  0.51100000000E-03 0. -1.
         11   -1    0    0    0    0 -0.00000000000E+00 -0.00000000000E+00 -0.45593999997E+02  0.45594000000E+02  0.51100000000E-03 0.  1.
    9900012    2    1    2    0    0  0.16010586105E+02 -0.27378831888E+02 -0.31987081863E+02  0.46142326411E+02  0.10000078879E+02 0.  0.
         12    1    1    2    0    0 -0.16010586105E+02  0.27378831888E+02  0.31987081863E+02  0.45045673589E+02  0.00000000000E+00 0. -1.
         11    1    3    3    0    0  0.42842339427E-01 -0.10903123258E+01 -0.31503940983E+00  0.11357229084E+01  0.51100000000E-03 0. -1.
        -11    1    3    3    0    0 -0.86511899634E-01 -0.62874698626E+01 -0.71660210154E+01  0.95337096157E+01  0.51100000000E-03 0.  1.
        -12    1    3    3    0    0  0.16054255665E+02 -0.20001049699E+02 -0.24506021438E+02  0.35472893887E+02  0.00000000000E+00 0.  1.
</event>
<event>
 7    1  0.2250716E-008  0.4614232E+02  0.7816164E-02  0.1320468E+00
        -11   -1    0    0    0    0  0.00000000000E+00  0.00000000000E+00  0.45593999997E+02  0.45594000000E+02  0.51100000000E-03 0. -1.
         11   -1    0    0    0    0 -0.00000000000E+00 -0.00000000000E+00 -0.45593999997E+02  0.45594000000E+02  0.51100000000E-03 0.  1.
    9900012    2    1    2    0    0  0.19753540158E+02 -0.38582202052E+02 -0.12260699783E+02  0.46142318486E+02  0.10000006609E+02 0.  0.
         12    1    1    2    0    0 -0.19753540158E+02  0.38582202052E+02  0.12260699783E+02  0.45045681514E+02  0.00000000000E+00 0. -1.
         11    1    3    3    0    0  0.51969681420E+00 -0.28852345963E+01  0.77192700843E-02  0.29316758523E+01  0.51100000000E-03 0. -1.
        -11    1    3    3    0    0  0.18315276228E+02 -0.27717524582E+02 -0.11436613495E+02  0.35135546684E+02  0.51100000000E-03 0.  1.
        -12    1    3    3    0    0  0.91856711551E+00 -0.79794428735E+01 -0.83180555752E+00  0.80750959500E+01  0.00000000000E+00 0.  1.
</event>
<event>
 7    1  0.2250716E-008  0.4614232E+02  0.7816164E-02  0.1320468E+00
        -11   -1    0    0    0    0  0.00000000000E+00  0.00000000000E+00  0.45593999997E+02  0.45594000000E+02  0.51100000000E-03 0. -1.
         11   -1    0    0    0    0 -0.00000000000E+00 -0.00000000000E+00 -0.45593999997E+02  0.45594000000E+02  0.51100000000E-03 0.  1.
    9900012    2    1    2    0    0 -0.40877406325E+02 -0.53455799035E+01 -0.18154223362E+02  0.46142318762E+02  0.10000009126E+02 0.  0.
         12    1    1    2    0    0  0.40877406325E+02  0.53455799035E+01  0.18154223362E+02  0.45045681238E+02  0.00000000000E+00 0. -1.
         11    1    3    3    0    0 -0.90836614672E+01  0.64695175185E+00 -0.53668672176E+01  0.10570464333E+02  0.51100000000E-03 0. -1.
        -11    1    3    3    0    0 -0.11957469078E+02 -0.18213103332E+01 -0.86857231659E+01  0.14890937689E+02  0.51100000000E-03 0.  1.
         12    1    3    3    0    0 -0.19836275779E+02 -0.41712213221E+01 -0.41016329783E+01  0.20680916740E+02  0.00000000000E+00 0. -1.
</event>
<event>
 7    1  0.2250716E-008  0.4614232E+02  0.7816164E-02  0.1320468E+00
        -11   -1    0    0    0    0  0.00000000000E+00  0.00000000000E+00  0.45593999997E+02  0.45594000000E+02  0.51100000000E-03 0. -1.
         11   -1    0    0    0    0 -0.00000000000E+00 -0.00000000000E+00 -0.45593999997E+02  0.45594000000E+02  0.51100000000E-03 0.  1.
    9900012    2    1    2    0    0  0.21167382364E+02  0.24709575904E+02 -0.31152725154E+02  0.46142317609E+02  0.99999986165E+01 0.  0.
         12    1    1    2    0    0 -0.21167382364E+02 -0.24709575904E+02  0.31152725154E+02  0.45045682391E+02  0.00000000000E+00 0. -1.
         11    1    3    3    0    0  0.60789837627E+01  0.49685290788E+01 -0.13543012027E+02  0.15654184739E+02  0.51100000000E-03 0. -1.
        -11    1    3    3    0    0  0.78822050642E+01  0.94084981781E+01 -0.92549414666E+01  0.15372148075E+02  0.51100000000E-03 0.  1.
         12    1    3    3    0    0  0.72061935369E+01  0.10332548647E+02 -0.83547716602E+01  0.15115984795E+02  0.00000000000E+00 0. -1.
</event>
<event>
 7    1  0.2250716E-008  0.4614232E+02  0.7816164E-02  0.1320468E+00
        -11   -1    0    0    0    0  0.00000000000E+00  0.00000000000E+00  0.45593999997E+02  0.45594000000E+02  0.51100000000E-03 0.  1.
         11   -1    0    0    0    0 -0.00000000000E+00 -0.00000000000E+00 -0.45593999997E+02  0.45594000000E+02  0.51100000000E-03 0. -1.
    9900012    2    1    2    0    0 -0.11994920250E+02 -0.19645307271E+02  0.38720760021E+02  0.46142318007E+02  0.10000002246E+02 0.  0.
         12    1    1    2    0    0  0.11994920250E+02  0.19645307271E+02 -0.38720760021E+02  0.45045681993E+02  0.00000000000E+00 0. -1.
         11    1    3    3    0    0  0.15492078375E+01 -0.23969342463E+01  0.51365230351E+01  0.58761558741E+01  0.51100000000E-03 0. -1.
        -11    1    3    3    0    0 -0.51704109073E+01 -0.68194989759E+01  0.16315862264E+02  0.18424062443E+02  0.51100000000E-03 0.  1.
         12    1    3    3    0    0 -0.83737171805E+01 -0.10428874049E+02  0.17268374721E+02  0.21842099690E+02  0.00000000000E+00 0. -1.
</event>
<event>
 7    1  0.2250716E-008  0.4614233E+02  0.7816164E-02  0.1320468E+00
        -11   -1    0    0    0    0  0.00000000000E+00  0.00000000000E+00  0.45593999997E+02  0.45594000000E+02  0.51100000000E-03 0.  1.
         11   -1    0    0    0    0 -0.00000000000E+00 -0.00000000000E+00 -0.45593999997E+02  0.45594000000E+02  0.51100000000E-03 0. -1.
    9900012    2    1    2    0    0 -0.38988583085E+02  0.60515840041E+00  0.22552981972E+02  0.46142325141E+02  0.10000067299E+02 0.  0.
         12    1    1    2    0    0  0.38988583085E+02 -0.60515840041E+00 -0.22552981972E+02  0.45045674859E+02  0.00000000000E+00 0. -1.
         11    1    3    3    0    0 -0.46677129179E+01  0.14396997243E-01  0.60186173297E+01  0.76165284730E+01  0.51100000000E-03 0. -1.
        -11    1    3    3    0    0 -0.67356822083E+01 -0.65847202525E+00  0.57518129812E+01  0.88817989761E+01  0.51100000000E-03 0.  1.
        -12    1    3    3    0    0 -0.27585187958E+02  0.12492334284E+01  0.10782551661E+02  0.29643997692E+02  0.00000000000E+00 0.  1.
</event>
<event>
 7    1  0.2250716E-008  0.4614232E+02  0.7816164E-02  0.1320468E+00
        -11   -1    0    0    0    0  0.00000000000E+00  0.00000000000E+00  0.45593999997E+02  0.45594000000E+02  0.51100000000E-03 0. -1.
         11   -1    0    0    0    0 -0.00000000000E+00 -0.00000000000E+00 -0.45593999997E+02  0.45594000000E+02  0.51100000000E-03 0.  1.
    9900012    2    1    2    0    0 -0.11669763736E+02  0.22077359276E+02 -0.37490271150E+02  0.46142316421E+02  0.99999877783E+01 0.  0.
         12    1    1    2    0    0  0.11669763736E+02 -0.22077359276E+02  0.37490271150E+02  0.45045683579E+02  0.00000000000E+00 0. -1.
         11    1    3    3    0    0 -0.89566906197E+00  0.36634635529E+01 -0.87581345085E+01  0.95356231365E+01  0.51100000000E-03 0. -1.
        -11    1    3    3    0    0 -0.14328843417E+01 -0.25030593866E+00 -0.58995112116E+00  0.15696665843E+01  0.51100000000E-03 0.  1.
        -12    1    3    3    0    0 -0.93412103321E+01  0.18664201662E+02 -0.28142185520E+02  0.35037026700E+02  0.00000000000E+00 0.  1.
</event>
<event>
 7    1  0.2250716E-008  0.4614232E+02  0.7816164E-02  0.1320468E+00
        -11   -1    0    0    0    0  0.00000000000E+00  0.00000000000E+00  0.45593999997E+02  0.45594000000E+02  0.51100000000E-03 0.  1.
         11   -1    0    0    0    0 -0.00000000000E+00 -0.00000000000E+00 -0.45593999997E+02  0.45594000000E+02  0.51100000000E-03 0. -1.
    9900012    2    1    2    0    0 -0.24902252670E+02 -0.35102835220E+02  0.13295949621E+02  0.46142317578E+02  0.99999983338E+01 0.  0.
         12    1    1    2    0    0  0.24902252670E+02  0.35102835220E+02 -0.13295949621E+02  0.45045682422E+02  0.00000000000E+00 0. -1.
         11    1    3    3    0    0 -0.31841470520E+00  0.11784532714E-01 -0.15936795616E+00  0.35626564004E+00  0.51100000000E-03 0. -1.
        -11    1    3    3    0    0 -0.40961798534E+01 -0.10775319771E+02  0.64509542308E+01  0.13209883281E+02  0.51100000000E-03 0.  1.
        -12    1    3    3    0    0 -0.20487658112E+02 -0.24339299981E+02  0.70043633459E+01  0.32576168657E+02  0.00000000000E+00 0.  1.
</event>
<event>
 7    1  0.2250716E-008  0.4614232E+02  0.7816164E-02  0.1320468E+00
        -11   -1    0    0    0    0  0.00000000000E+00  0.00000000000E+00  0.45593999997E+02  0.45594000000E+02  0.51100000000E-03 0.  1.
         11   -1    0    0    0    0 -0.00000000000E+00 -0.00000000000E+00 -0.45593999997E+02  0.45594000000E+02  0.51100000000E-03 0. -1.
    9900012    2    1    2    0    0 -0.42979440085E+02  0.13403387738E+02 -0.14934833437E+01  0.46142316906E+02  0.99999922054E+01 0.  0.
         12    1    1    2    0    0  0.42979440085E+02 -0.13403387738E+02  0.14934833437E+01  0.45045683094E+02  0.00000000000E+00 0. -1.
         11    1    3    3    0    0 -0.61851940229E+01  0.26094971297E+01  0.48549631874E+00  0.67306617288E+01  0.51100000000E-03 0. -1.
        -11    1    3    3    0    0 -0.31061439829E+02  0.12335053133E+02 -0.14661135153E+01  0.33453192212E+02  0.51100000000E-03 0.  1.
         12    1    3    3    0    0 -0.57328062330E+01 -0.15411625244E+01 -0.51286614715E+00  0.59584629659E+01  0.00000000000E+00 0. -1.
</event>
<event>
 7    1  0.2250716E-008  0.4614232E+02  0.7816164E-02  0.1320468E+00
        -11   -1    0    0    0    0  0.00000000000E+00  0.00000000000E+00  0.45593999997E+02  0.45594000000E+02  0.51100000000E-03 0.  1.
         11   -1    0    0    0    0 -0.00000000000E+00 -0.00000000000E+00 -0.45593999997E+02  0.45594000000E+02  0.51100000000E-03 0. -1.
    9900012    2    1    2    0    0  0.24826847881E+02 -0.18389006705E+02  0.32780871690E+02  0.46142317720E+02  0.99999996258E+01 0.  0.
         12    1    1    2    0    0 -0.24826847881E+02  0.18389006705E+02 -0.32780871690E+02  0.45045682280E+02  0.00000000000E+00 0. -1.
         11    1    3    3    0    0  0.90118764249E+00 -0.35366155181E+00  0.50758110667E+01  0.51673081877E+01  0.51100000000E-03 0. -1.
        -11    1    3    3    0    0  0.59588334340E+01 -0.65986272388E+01  0.81135397937E+01  0.12036573664E+02  0.51100000000E-03 0.  1.
        -12    1    3    3    0    0  0.17966826804E+02 -0.11436717914E+02  0.19591520830E+02  0.28938435868E+02  0.00000000000E+00 0.  1.
</event>
<event>
 7    1  0.2250716E-008  0.4614232E+02  0.7816164E-02  0.1320468E+00
        -11   -1    0    0    0    0  0.00000000000E+00  0.00000000000E+00  0.45593999997E+02  0.45594000000E+02  0.51100000000E-03 0.  1.
         11   -1    0    0    0    0 -0.00000000000E+00 -0.00000000000E+00 -0.45593999997E+02  0.45594000000E+02  0.51100000000E-03 0. -1.
    9900012    2    1    2    0    0 -0.41253659573E+02 -0.18089205798E+02  0.17241237842E+00  0.46142317403E+02  0.99999967359E+01 0.  0.
         12    1    1    2    0    0  0.41253659573E+02  0.18089205798E+02 -0.17241237842E+00  0.45045682597E+02  0.00000000000E+00 0. -1.
         11    1    3    3    0    0 -0.16563073212E+02 -0.41010067379E+01 -0.43330079222E-01  0.17063280114E+02  0.51100000000E-03 0. -1.
        -11    1    3    3    0    0 -0.17013021396E+01 -0.27817638956E+01  0.12266286906E+01  0.34838567059E+01  0.51100000000E-03 0.  1.
        -12    1    3    3    0    0 -0.22989284222E+02 -0.11206435165E+02 -0.10108862329E+01  0.25595180584E+02  0.00000000000E+00 0.  1.
</event>
<event>
 7    1  0.2250716E-008  0.4614232E+02  0.7816164E-02  0.1320468E+00
        -11   -1    0    0    0    0  0.00000000000E+00  0.00000000000E+00  0.45593999997E+02  0.45594000000E+02  0.51100000000E-03 0.  1.
         11   -1    0    0    0    0 -0.00000000000E+00 -0.00000000000E+00 -0.45593999997E+02  0.45594000000E+02  0.51100000000E-03 0. -1.
    9900012    2    1    2    0    0  0.21567017201E+02 -0.11591587595E+02  0.37810215084E+02  0.46142317648E+02  0.99999989650E+01 0.  0.
         12    1    1    2    0    0 -0.21567017201E+02  0.11591587595E+02 -0.37810215084E+02  0.45045682352E+02  0.00000000000E+00 0. -1.
         11    1    3    3    0    0  0.10350670533E+02 -0.69294895848E+01  0.23835986801E+02  0.26894394833E+02  0.51100000000E-03 0. -1.
        -11    1    3    3    0    0  0.79606286193E+01 -0.46905381337E+01  0.12800706907E+02  0.15787047019E+02  0.51100000000E-03 0.  1.
         12    1    3    3    0    0  0.32557180490E+01  0.28440123743E-01  0.11735213756E+01  0.34608757958E+01  0.00000000000E+00 0. -1.
</event>
<event>
 7    1  0.2250716E-008  0.4614232E+02  0.7816164E-02  0.1320468E+00
        -11   -1    0    0    0    0  0.00000000000E+00  0.00000000000E+00  0.45593999997E+02  0.45594000000E+02  0.51100000000E-03 0.  1.
         11   -1    0    0    0    0 -0.00000000000E+00 -0.00000000000E+00 -0.45593999997E+02  0.45594000000E+02  0.51100000000E-03 0. -1.
    9900012    2    1    2    0    0  0.29521305491E+01 -0.27106970364E+02  0.35855412733E+02  0.46142317196E+02  0.99999948428E+01 0.  0.
         12    1    1    2    0    0 -0.29521305491E+01  0.27106970364E+02 -0.35855412733E+02  0.45045682804E+02  0.00000000000E+00 0. -1.
         11    1    3    3    0    0  0.32260242078E+00 -0.48006099550E+01  0.39652353285E+01  0.62348231518E+01  0.51100000000E-03 0. -1.
        -11    1    3    3    0    0 -0.29100898923E+01 -0.87355479857E+01  0.14336714093E+02  0.17038773226E+02  0.51100000000E-03 0.  1.
        -12    1    3    3    0    0  0.55396180206E+01 -0.13570812423E+02  0.17553463311E+02  0.22868720818E+02  0.00000000000E+00 0.  1.
</event>
<event>
 7    1  0.2250716E-008  0.4614232E+02  0.7816164E-02  0.1320468E+00
        -11   -1    0    0    0    0  0.00000000000E+00  0.00000000000E+00  0.45593999997E+02  0.45594000000E+02  0.51100000000E-03 0.  1.
         11   -1    0    0    0    0 -0.00000000000E+00 -0.00000000000E+00 -0.45593999997E+02  0.45594000000E+02  0.51100000000E-03 0. -1.
    9900012    2    1    2    0    0  0.40295757513E+02  0.18239625274E+02 -0.85253409557E+01  0.46142318275E+02  0.10000004683E+02 0.  0.
         12    1    1    2    0    0 -0.40295757513E+02 -0.18239625274E+02  0.85253409557E+01  0.45045681725E+02  0.00000000000E+00 0. -1.
         11    1    3    3    0    0  0.12394000851E+01 -0.94539575455E+00 -0.96228974167E+00  0.18319081614E+01  0.51100000000E-03 0. -1.
        -11    1    3    3    0    0  0.20427350364E+02  0.80553341867E+01 -0.39863835927E+01  0.22317175138E+02  0.51100000000E-03 0.  1.
         12    1    3    3    0    0  0.18629007064E+02  0.11129686842E+02 -0.35766676213E+01  0.21993234975E+02  0.00000000000E+00 0. -1.
</event>
<event>
 7    1  0.2250716E-008  0.4614232E+02  0.7816164E-02  0.1320468E+00
        -11   -1    0    0    0    0  0.00000000000E+00  0.00000000000E+00  0.45593999997E+02  0.45594000000E+02  0.51100000000E-03 0.  1.
         11   -1    0    0    0    0 -0.00000000000E+00 -0.00000000000E+00 -0.45593999997E+02  0.45594000000E+02  0.51100000000E-03 0. -1.
    9900012    2    1    2    0    0  0.13580959457E+02 -0.32166833452E+02  0.28459900682E+02  0.46142316734E+02  0.99999906312E+01 0.  0.
         12    1    1    2    0    0 -0.13580959457E+02  0.32166833452E+02 -0.28459900682E+02  0.45045683266E+02  0.00000000000E+00 0. -1.
         11    1    3    3    0    0  0.50738535442E+01 -0.10737352071E+02  0.11701453961E+02  0.16672094780E+02  0.51100000000E-03 0.  1.
        -11    1    3    3    0    0 -0.10487168707E+01 -0.53584326183E+01  0.27928870699E+01  0.61329296137E+01  0.51100000000E-03 0. -1.
         12    1    3    3    0    0  0.95558227838E+01 -0.16071048763E+02  0.13965559651E+02  0.23337292340E+02  0.00000000000E+00 0. -1.
</event>
<event>
 7    1  0.2250716E-008  0.4614232E+02  0.7816164E-02  0.1320468E+00
        -11   -1    0    0    0    0  0.00000000000E+00  0.00000000000E+00  0.45593999997E+02  0.45594000000E+02  0.51100000000E-03 0.  1.
         11   -1    0    0    0    0 -0.00000000000E+00 -0.00000000000E+00 -0.45593999997E+02  0.45594000000E+02  0.51100000000E-03 0. -1.
    9900012    2    1    2    0    0 -0.12102805554E+02  0.67083942716E+01  0.42867621221E+02  0.46142318685E+02  0.10000008421E+02 0.  0.
         12    1    1    2    0    0  0.12102805554E+02 -0.67083942716E+01 -0.42867621221E+02  0.45045681315E+02  0.00000000000E+00 0. -1.
         11    1    3    3    0    0 -0.85393263912E-01 -0.47390989704E+00  0.12856532814E+01  0.13728755301E+01  0.51100000000E-03 0. -1.
        -11    1    3    3    0    0 -0.97685235804E+01  0.64590677330E+01  0.40521880201E+02  0.42180165767E+02  0.51100000000E-03 0.  1.
         12    1    3    3    0    0 -0.22488887099E+01  0.72323643565E+00  0.10600877395E+01  0.25892773870E+01  0.00000000000E+00 0. -1.
</event>
<event>
 7    1  0.2250716E-008  0.4614232E+02  0.7816164E-02  0.1320468E+00
        -11   -1    0    0    0    0  0.00000000000E+00  0.00000000000E+00  0.45593999997E+02  0.45594000000E+02  0.51100000000E-03 0. -1.
         11   -1    0    0    0    0 -0.00000000000E+00 -0.00000000000E+00 -0.45593999997E+02  0.45594000000E+02  0.51100000000E-03 0.  1.
    9900012    2    1    2    0    0  0.74369130230E+01  0.45137475430E+01 -0.44197645671E+02  0.46142317909E+02  0.10000001347E+02 0.  0.
         12    1    1    2    0    0 -0.74369130230E+01 -0.45137475430E+01  0.44197645671E+02  0.45045682091E+02  0.00000000000E+00 0. -1.
         11    1    3    3    0    0  0.96790175030E+00 -0.56341862538E+00 -0.11812147299E+02  0.11865121088E+02  0.51100000000E-03 0. -1.
        -11    1    3    3    0    0  0.42544229028E+01 -0.23453098571E+00 -0.21953090588E+02  0.22362766056E+02  0.51100000000E-03 0.  1.
        -12    1    3    3    0    0  0.22145883699E+01  0.53116971541E+01 -0.10432407783E+02  0.11914430765E+02  0.00000000000E+00 0.  1.
</event>
<event>
 7    1  0.2250716E-008  0.4614232E+02  0.7816164E-02  0.1320468E+00
        -11   -1    0    0    0    0  0.00000000000E+00  0.00000000000E+00  0.45593999997E+02  0.45594000000E+02  0.51100000000E-03 0.  1.
         11   -1    0    0    0    0 -0.00000000000E+00 -0.00000000000E+00 -0.45593999997E+02  0.45594000000E+02  0.51100000000E-03 0. -1.
    9900012    2    1    2    0    0 -0.40371769424E+01  0.48993815160E+01  0.44596084419E+02  0.46142317827E+02  0.10000000602E+02 0.  0.
         12    1    1    2    0    0  0.40371769424E+01 -0.48993815160E+01 -0.44596084419E+02  0.45045682173E+02  0.00000000000E+00 0. -1.
         11    1    3    3    0    0  0.89987341292E+00  0.18699352019E+01  0.17443098988E+01  0.27109125959E+01  0.51100000000E-03 0. -1.
        -11    1    3    3    0    0 -0.43313030404E+01  0.56814172749E+00  0.22293907114E+02  0.22717862261E+02  0.51100000000E-03 0.  1.
        -12    1    3    3    0    0 -0.60574731490E+00  0.24613045866E+01  0.20557867406E+02  0.20713542970E+02  0.00000000000E+00 0.  1.
</event>
<event>
 7    1  0.2250716E-008  0.4614232E+02  0.7816164E-02  0.1320468E+00
        -11   -1    0    0    0    0  0.00000000000E+00  0.00000000000E+00  0.45593999997E+02  0.45594000000E+02  0.51100000000E-03 0.  1.
         11   -1    0    0    0    0 -0.00000000000E+00 -0.00000000000E+00 -0.45593999997E+02  0.45594000000E+02  0.51100000000E-03 0. -1.
    9900012    2    1    2    0    0  0.20585604103E+02  0.17958859516E+02  0.35816556682E+02  0.46142318032E+02  0.10000002470E+02 0.  0.
         12    1    1    2    0    0 -0.20585604103E+02 -0.17958859516E+02 -0.35816556682E+02  0.45045681968E+02  0.00000000000E+00 0. -1.
         11    1    3    3    0    0  0.74940170350E+01  0.68252191660E+01  0.14032183434E+02  0.17310288275E+02  0.51100000000E-03 0.  1.
        -11    1    3    3    0    0  0.49627482813E+01  0.27417752607E+01  0.13100766095E+02  0.14275022754E+02  0.51100000000E-03 0. -1.
         12    1    3    3    0    0  0.81288387869E+01  0.83918650895E+01  0.86836071532E+01  0.14557007003E+02  0.00000000000E+00 0. -1.
</event>
<event>
 7    1  0.2250716E-008  0.4614232E+02  0.7816164E-02  0.1320468E+00
        -11   -1    0    0    0    0  0.00000000000E+00  0.00000000000E+00  0.45593999997E+02  0.45594000000E+02  0.51100000000E-03 0. -1.
         11   -1    0    0    0    0 -0.00000000000E+00 -0.00000000000E+00 -0.45593999997E+02  0.45594000000E+02  0.51100000000E-03 0.  1.
    9900012    2    1    2    0    0  0.37049103892E+02  0.25390562006E+02 -0.34346458277E+01  0.46142317297E+02  0.99999957676E+01 0.  0.
         12    1    1    2    0    0 -0.37049103892E+02 -0.25390562006E+02  0.34346458277E+01  0.45045682703E+02  0.00000000000E+00 0. -1.
         11    1    3    3    0    0  0.62562244964E+01  0.50210642416E+01  0.18786831427E+01  0.82389854764E+01  0.51100000000E-03 0. -1.
        -11    1    3    3    0    0  0.21338048684E+02  0.10300805430E+02 -0.39923286812E+01  0.24028266744E+02  0.51100000000E-03 0.  1.
         12    1    3    3    0    0  0.94548307120E+01  0.10068692335E+02 -0.13210002892E+01  0.13875065077E+02  0.00000000000E+00 0. -1.
</event>
<event>
 7    1  0.2250716E-008  0.4614231E+02  0.7816164E-02  0.1320468E+00
        -11   -1    0    0    0    0  0.00000000000E+00  0.00000000000E+00  0.45593999997E+02  0.45594000000E+02  0.51100000000E-03 0.  1.
         11   -1    0    0    0    0 -0.00000000000E+00 -0.00000000000E+00 -0.45593999997E+02  0.45594000000E+02  0.51100000000E-03 0. -1.
    9900012    2    1    2    0    0 -0.61897658704E+01  0.14711141702E+02  0.42123425677E+02  0.46142313386E+02  0.99999601078E+01 0.  0.
         12    1    1    2    0    0  0.61897658704E+01 -0.14711141702E+02 -0.42123425677E+02  0.45045686614E+02  0.00000000000E+00 0. -1.
         11    1    3    3    0    0 -0.95161111173E+00  0.33746485803E+00  0.26382630135E+00  0.10435759756E+01  0.51100000000E-03 0. -1.
        -11    1    3    3    0    0 -0.30501123384E+01  0.90687732033E+01  0.16280590322E+02  0.18883946997E+02  0.51100000000E-03 0.  1.
        -12    1    3    3    0    0 -0.21880424202E+01  0.53049036408E+01  0.25579009053E+02  0.26214790413E+02  0.00000000000E+00 0.  1.
</event>
<event>
 7    1  0.2250716E-008  0.4614232E+02  0.7816164E-02  0.1320468E+00
        -11   -1    0    0    0    0  0.00000000000E+00  0.00000000000E+00  0.45593999997E+02  0.45594000000E+02  0.51100000000E-03 0.  1.
         11   -1    0    0    0    0 -0.00000000000E+00 -0.00000000000E+00 -0.45593999997E+02  0.45594000000E+02  0.51100000000E-03 0. -1.
    9900012    2    1    2    0    0 -0.21192733623E+02 -0.58312096009E+01  0.39318933808E+02  0.46142317414E+02  0.99999968369E+01 0.  0.
         12    1    1    2    0    0  0.21192733623E+02  0.58312096009E+01 -0.39318933808E+02  0.45045682586E+02  0.00000000000E+00 0. -1.
         11    1    3    3    0    0 -0.15566523275E+02 -0.18837577058E+01  0.27396778473E+02  0.31566575058E+02  0.51100000000E-03 0. -1.
        -11    1    3    3    0    0 -0.45820923874E+01 -0.49816021299E+01  0.10716021570E+02  0.12674582793E+02  0.51100000000E-03 0.  1.
         12    1    3    3    0    0 -0.10441179610E+01  0.10341502348E+01  0.12061337648E+01  0.19011595628E+01  0.00000000000E+00 0. -1.
</event>
<event>
 7    1  0.2250716E-008  0.4614232E+02  0.7816164E-02  0.1320468E+00
        -11   -1    0    0    0    0  0.00000000000E+00  0.00000000000E+00  0.45593999997E+02  0.45594000000E+02  0.51100000000E-03 0.  1.
         11   -1    0    0    0    0 -0.00000000000E+00 -0.00000000000E+00 -0.45593999997E+02  0.45594000000E+02  0.51100000000E-03 0. -1.
    9900012    2    1    2    0    0  0.33563245431E+02  0.71874964388E+01  0.29171251362E+02  0.46142318132E+02  0.10000003380E+02 0.  0.
         12    1    1    2    0    0 -0.33563245431E+02 -0.71874964388E+01 -0.29171251362E+02  0.45045681868E+02  0.00000000000E+00 0. -1.
         11    1    3    3    0    0  0.40407805795E+01  0.32090627177E+01  0.45305214169E+01  0.68667034149E+01  0.51100000000E-03 0. -1.
        -11    1    3    3    0    0  0.33203417859E+01  0.27384939867E+01  0.27264559361E+01  0.50948583026E+01  0.51100000000E-03 0.  1.
        -12    1    3    3    0    0  0.26202123066E+02  0.12399397343E+01  0.21914274009E+02  0.34180756414E+02  0.00000000000E+00 0.  1.
</event>
<event>
 7    1  0.2250716E-008  0.4614232E+02  0.7816164E-02  0.1320468E+00
        -11   -1    0    0    0    0  0.00000000000E+00  0.00000000000E+00  0.45593999997E+02  0.45594000000E+02  0.51100000000E-03 0.  1.
         11   -1    0    0    0    0 -0.00000000000E+00 -0.00000000000E+00 -0.45593999997E+02  0.45594000000E+02  0.51100000000E-03 0. -1.
    9900012    2    1    2    0    0 -0.12594124002E+02 -0.31020327782E+01  0.43137907599E+02  0.46142316092E+02  0.99999847788E+01 0.  0.
         12    1    1    2    0    0  0.12594124002E+02  0.31020327782E+01 -0.43137907599E+02  0.45045683908E+02  0.00000000000E+00 0. -1.
         11    1    3    3    0    0 -0.47041858598E+01  0.13852405323E+01  0.82264199600E+01  0.95771729417E+01  0.51100000000E-03 0.  1.
        -11    1    3    3    0    0  0.70602150821E+00 -0.51403008956E+00  0.77726326835E+01  0.78215415614E+01  0.51100000000E-03 0. -1.
        -12    1    3    3    0    0 -0.85959596505E+01 -0.39732432209E+01  0.27138854955E+02  0.28743601589E+02  0.00000000000E+00 0.  1.
</event>
<event>
 7    1  0.2250716E-008  0.4614232E+02  0.7816164E-02  0.1320468E+00
        -11   -1    0    0    0    0  0.00000000000E+00  0.00000000000E+00  0.45593999997E+02  0.45594000000E+02  0.51100000000E-03 0.  1.
         11   -1    0    0    0    0 -0.00000000000E+00 -0.00000000000E+00 -0.45593999997E+02  0.45594000000E+02  0.51100000000E-03 0. -1.
    9900012    2    1    2    0    0 -0.24749244236E+02  0.29092176327E+02  0.23879566810E+02  0.46142317358E+02  0.99999963208E+01 0.  0.
         12    1    1    2    0    0  0.24749244236E+02 -0.29092176327E+02 -0.23879566810E+02  0.45045682642E+02  0.00000000000E+00 0. -1.
         11    1    3    3    0    0 -0.88863688177E+01  0.54183553337E+01  0.70222419396E+01  0.12555397541E+02  0.51100000000E-03 0. -1.
        -11    1    3    3    0    0  0.47084839686E+00  0.82710958511E+00  0.74272812075E+00  0.12072505130E+01  0.51100000000E-03 0.  1.
        -12    1    3    3    0    0 -0.16333723815E+02  0.22846711408E+02  0.16114596750E+02  0.32379669304E+02  0.00000000000E+00 0.  1.
</event>
<event>
 7    1  0.2250716E-008  0.4614232E+02  0.7816164E-02  0.1320468E+00
        -11   -1    0    0    0    0  0.00000000000E+00  0.00000000000E+00  0.45593999997E+02  0.45594000000E+02  0.51100000000E-03 0.  1.
         11   -1    0    0    0    0 -0.00000000000E+00 -0.00000000000E+00 -0.45593999997E+02  0.45594000000E+02  0.51100000000E-03 0. -1.
    9900012    2    1    2    0    0  0.34174604682E+01  0.38468618330E+02  0.23186199388E+02  0.46142317917E+02  0.10000001420E+02 0.  0.
         12    1    1    2    0    0 -0.34174604682E+01 -0.38468618330E+02 -0.23186199388E+02  0.45045682083E+02  0.00000000000E+00 0. -1.
         11    1    3    3    0    0 -0.14717707077E+00  0.10491817902E+02  0.62016090282E+01  0.12188513395E+02  0.51100000000E-03 0.  1.
        -11    1    3    3    0    0  0.67363105482E+00  0.10111793434E+02  0.10845634421E+02  0.14843514796E+02  0.51100000000E-03 0. -1.
        -12    1    3    3    0    0  0.28910064842E+01  0.17865006994E+02  0.61389559392E+01  0.19110289726E+02  0.00000000000E+00 0.  1.
</event>
<event>
 7    1  0.2250716E-008  0.4614231E+02  0.7816164E-02  0.1320468E+00
        -11   -1    0    0    0    0  0.00000000000E+00  0.00000000000E+00  0.45593999997E+02  0.45594000000E+02  0.51100000000E-03 0.  1.
         11   -1    0    0    0    0 -0.00000000000E+00 -0.00000000000E+00 -0.45593999997E+02  0.45594000000E+02  0.51100000000E-03 0. -1.
    9900012    2    1    2    0    0 -0.18518015272E+02 -0.40670118397E+02  0.56690778682E+01  0.46142313592E+02  0.99999619841E+01 0.  0.
         12    1    1    2    0    0  0.18518015272E+02  0.40670118397E+02 -0.56690778682E+01  0.45045686408E+02  0.00000000000E+00 0. -1.
         11    1    3    3    0    0 -0.36618546378E+01 -0.55392788595E+01  0.26419252788E+01  0.71465067769E+01  0.51100000000E-03 0. -1.
        -11    1    3    3    0    0 -0.71479680759E+01 -0.15226106698E+02  0.50312473184E+01  0.17556799897E+02  0.51100000000E-03 0.  1.
         12    1    3    3    0    0 -0.77081925584E+01 -0.19904732840E+02 -0.20040947291E+01  0.21439006918E+02  0.00000000000E+00 0. -1.
</event>
<event>
 7    1  0.2250716E-008  0.4614232E+02  0.7816164E-02  0.1320468E+00
        -11   -1    0    0    0    0  0.00000000000E+00  0.00000000000E+00  0.45593999997E+02  0.45594000000E+02  0.51100000000E-03 0. -1.
         11   -1    0    0    0    0 -0.00000000000E+00 -0.00000000000E+00 -0.45593999997E+02  0.45594000000E+02  0.51100000000E-03 0.  1.
    9900012    2    1    2    0    0  0.31232947960E+02  0.22066879615E+02  0.23804814059E+02  0.46142318891E+02  0.10000010305E+02 0.  0.
         12    1    1    2    0    0 -0.31232947960E+02 -0.22066879615E+02 -0.23804814059E+02  0.45045681109E+02  0.00000000000E+00 0. -1.
         11    1    3    3    0    0  0.36557200212E+01  0.49362180079E+01  0.42811620501E+01  0.74872482165E+01  0.51100000000E-03 0. -1.
        -11    1    3    3    0    0  0.21931620319E+02  0.16867340219E+02  0.16930826625E+02  0.32436954641E+02  0.51100000000E-03 0.  1.
         12    1    3    3    0    0  0.56456076191E+01  0.26332138792E+00  0.25928253840E+01  0.62181160341E+01  0.00000000000E+00 0. -1.
</event>
<event>
 7    1  0.2250716E-008  0.4614232E+02  0.7816164E-02  0.1320468E+00
        -11   -1    0    0    0    0  0.00000000000E+00  0.00000000000E+00  0.45593999997E+02  0.45594000000E+02  0.51100000000E-03 0. -1.
         11   -1    0    0    0    0 -0.00000000000E+00 -0.00000000000E+00 -0.45593999997E+02  0.45594000000E+02  0.51100000000E-03 0.  1.
    9900012    2    1    2    0    0  0.15092882248E+02  0.10140022683E+02 -0.41212841944E+02  0.46142317680E+02  0.99999992614E+01 0.  0.
         12    1    1    2    0    0 -0.15092882248E+02 -0.10140022683E+02  0.41212841944E+02  0.45045682320E+02  0.00000000000E+00 0. -1.
         11    1    3    3    0    0  0.92461021334E+01  0.47304179514E+01 -0.12941615658E+02  0.16593754089E+02  0.51100000000E-03 0. -1.
        -11    1    3    3    0    0  0.12238538657E+00  0.18477979050E+01 -0.60633073929E+01  0.63397974796E+01  0.51100000000E-03 0.  1.
        -12    1    3    3    0    0  0.57243947281E+01  0.35618068266E+01 -0.22207918893E+02  0.23208766112E+02  0.00000000000E+00 0.  1.
</event>
<event>
 7    1  0.2250716E-008  0.4614232E+02  0.7816164E-02  0.1320468E+00
        -11   -1    0    0    0    0  0.00000000000E+00  0.00000000000E+00  0.45593999997E+02  0.45594000000E+02  0.51100000000E-03 0.  1.
         11   -1    0    0    0    0 -0.00000000000E+00 -0.00000000000E+00 -0.45593999997E+02  0.45594000000E+02  0.51100000000E-03 0. -1.
    9900012    2    1    2    0    0  0.24306452005E+01  0.92318030744E+00  0.44970581784E+02  0.46142317366E+02  0.99999963947E+01 0.  0.
         12    1    1    2    0    0 -0.24306452005E+01 -0.92318030744E+00 -0.44970581784E+02  0.45045682634E+02  0.00000000000E+00 0. -1.
         11    1    3    3    0    0 -0.16981272169E+01 -0.21476548334E+01  0.21802161778E+02  0.21973400187E+02  0.51100000000E-03 0. -1.
        -11    1    3    3    0    0  0.12445387181E+01 -0.11883238345E+01  0.50934443418E+01  0.53762594506E+01  0.51100000000E-03 0.  1.
         12    1    3    3    0    0  0.28842336993E+01  0.42591589754E+01  0.18074975665E+02  0.18792657728E+02  0.00000000000E+00 0. -1.
</event>
<event>
 7    1  0.2250716E-008  0.4614232E+02  0.7816164E-02  0.1320468E+00
        -11   -1    0    0    0    0  0.00000000000E+00  0.00000000000E+00  0.45593999997E+02  0.45594000000E+02  0.51100000000E-03 0.  1.
         11   -1    0    0    0    0 -0.00000000000E+00 -0.00000000000E+00 -0.45593999997E+02  0.45594000000E+02  0.51100000000E-03 0. -1.
    9900012    2    1    2    0    0 -0.19658528277E+01 -0.37398496469E+01  0.44847099800E+02  0.46142318595E+02  0.10000007606E+02 0.  0.
         12    1    1    2    0    0  0.19658528277E+01  0.37398496469E+01 -0.44847099800E+02  0.45045681405E+02  0.00000000000E+00 0. -1.
         11    1    3    3    0    0  0.96494759712E+00  0.20645678783E+01  0.75859152726E+01  0.79208380348E+01  0.51100000000E-03 0. -1.
        -11    1    3    3    0    0 -0.52844410735E+00  0.59472505616E+00  0.81146033591E+00  0.11364062675E+01  0.51100000000E-03 0.  1.
        -12    1    3    3    0    0 -0.24023563175E+01 -0.63991425814E+01  0.36449724192E+02  0.37085074293E+02  0.00000000000E+00 0.  1.
</event>
<event>
 7    1  0.2250716E-008  0.4614231E+02  0.7816164E-02  0.1320468E+00
        -11   -1    0    0    0    0  0.00000000000E+00  0.00000000000E+00  0.45593999997E+02  0.45594000000E+02  0.51100000000E-03 0.  1.
         11   -1    0    0    0    0 -0.00000000000E+00 -0.00000000000E+00 -0.45593999997E+02  0.45594000000E+02  0.51100000000E-03 0. -1.
    9900012    2    1    2    0    0 -0.29020984524E+02  0.62433556994E+01  0.33880919744E+02  0.46142314792E+02  0.99999729278E+01 0.  0.
         12    1    1    2    0    0  0.29020984524E+02 -0.62433556994E+01 -0.33880919744E+02  0.45045685208E+02  0.00000000000E+00 0. -1.
         11    1    3    3    0    0 -0.24101001063E+01 -0.21384479002E+01  0.41685959214E+01  0.52686558211E+01  0.51100000000E-03 0. -1.
        -11    1    3    3    0    0 -0.32379177543E+00  0.12317702553E+00  0.10907483915E+01  0.11444413520E+01  0.51100000000E-03 0.  1.
        -12    1    3    3    0    0 -0.26287092643E+02  0.82586265740E+01  0.28621575431E+02  0.39729217619E+02  0.00000000000E+00 0.  1.
</event>
<event>
 7    1  0.2250716E-008  0.4614232E+02  0.7816164E-02  0.1320468E+00
        -11   -1    0    0    0    0  0.00000000000E+00  0.00000000000E+00  0.45593999997E+02  0.45594000000E+02  0.51100000000E-03 0. -1.
         11   -1    0    0    0    0 -0.00000000000E+00 -0.00000000000E+00 -0.45593999997E+02  0.45594000000E+02  0.51100000000E-03 0.  1.
    9900012    2    1    2    0    0  0.33895812532E+02 -0.23481860654E+02 -0.18132558372E+02  0.46142316965E+02  0.99999927435E+01 0.  0.
         12    1    1    2    0    0 -0.33895812532E+02  0.23481860654E+02  0.18132558372E+02  0.45045683035E+02  0.00000000000E+00 0. -1.
         11    1    3    3    0    0  0.88481043938E+01 -0.58921043684E+01 -0.38509218589E+01  0.11306433774E+02  0.51100000000E-03 0. -1.
        -11    1    3    3    0    0  0.22307464794E+02 -0.18212178364E+02 -0.11927462819E+02  0.31170030412E+02  0.51100000000E-03 0.  1.
         12    1    3    3    0    0  0.27402433438E+01  0.62242207816E+00 -0.23541736935E+01  0.36658527802E+01  0.00000000000E+00 0. -1.
</event>
<event>
 7    1  0.2250716E-008  0.4614232E+02  0.7816164E-02  0.1320468E+00
        -11   -1    0    0    0    0  0.00000000000E+00  0.00000000000E+00  0.45593999997E+02  0.45594000000E+02  0.51100000000E-03 0.  1.
         11   -1    0    0    0    0 -0.00000000000E+00 -0.00000000000E+00 -0.45593999997E+02  0.45594000000E+02  0.51100000000E-03 0. -1.
    9900012    2    1    2    0    0  0.12800922015E+02 -0.23447236996E+01  0.43124843844E+02  0.46142317740E+02  0.99999998072E+01 0.  0.
         12    1    1    2    0    0 -0.12800922015E+02  0.23447236996E+01 -0.43124843844E+02  0.45045682260E+02  0.00000000000E+00 0. -1.
         11    1    3    3    0    0  0.31393491734E+01 -0.26412108677E+01  0.52786519504E+01  0.66854823876E+01  0.51100000000E-03 0. -1.
        -11    1    3    3    0    0 -0.10350304680E+00 -0.70001207762E+00  0.81450403601E+01  0.81757209173E+01  0.51100000000E-03 0.  1.
        -12    1    3    3    0    0  0.97650758886E+01  0.99649924568E+00  0.29701151534E+02  0.31281114435E+02  0.00000000000E+00 0.  1.
</event>
<event>
 7    1  0.2250716E-008  0.4614232E+02  0.7816164E-02  0.1320468E+00
        -11   -1    0    0    0    0  0.00000000000E+00  0.00000000000E+00  0.45593999997E+02  0.45594000000E+02  0.51100000000E-03 0.  1.
         11   -1    0    0    0    0 -0.00000000000E+00 -0.00000000000E+00 -0.45593999997E+02  0.45594000000E+02  0.51100000000E-03 0. -1.
    9900012    2    1    2    0    0  0.45044017205E+01  0.13595950615E+02  0.42708009446E+02  0.46142316757E+02  0.99999908413E+01 0.  0.
         12    1    1    2    0    0 -0.45044017205E+01 -0.13595950615E+02 -0.42708009446E+02  0.45045683243E+02  0.00000000000E+00 0. -1.
         11    1    3    3    0    0 -0.62841518115E+00  0.35911312442E+01  0.63367648820E+01  0.73106578831E+01  0.51100000000E-03 0. -1.
        -11    1    3    3    0    0  0.24280529994E+01  0.61771618621E+01  0.31002178059E+02  0.31704697045E+02  0.51100000000E-03 0.  1.
         12    1    3    3    0    0  0.27047639022E+01  0.38276575090E+01  0.53690665054E+01  0.71269618290E+01  0.00000000000E+00 0. -1.
</event>
<event>
 7    1  0.2250716E-008  0.4614232E+02  0.7816164E-02  0.1320468E+00
        -11   -1    0    0    0    0  0.00000000000E+00  0.00000000000E+00  0.45593999997E+02  0.45594000000E+02  0.51100000000E-03 0.  1.
         11   -1    0    0    0    0 -0.00000000000E+00 -0.00000000000E+00 -0.45593999997E+02  0.45594000000E+02  0.51100000000E-03 0. -1.
    9900012    2    1    2    0    0  0.32877713860E+01 -0.44915929438E+02  0.92915055637E+00  0.46142317868E+02  0.10000000973E+02 0.  0.
         12    1    1    2    0    0 -0.32877713860E+01  0.44915929438E+02 -0.92915055637E+00  0.45045682132E+02  0.00000000000E+00 0. -1.
         11    1    3    3    0    0  0.38702149643E+00 -0.34802422053E+01  0.17515150126E+01  0.39153130841E+01  0.51100000000E-03 0. -1.
        -11    1    3    3    0    0  0.41157029158E+01 -0.40337920310E+02 -0.11196619241E+01  0.40562796607E+02  0.51100000000E-03 0.  1.
        -12    1    3    3    0    0 -0.12149530262E+01 -0.10977669227E+01  0.29729746787E+00  0.16642081771E+01  0.00000000000E+00 0.  1.
</event>
<event>
 7    1  0.2250716E-008  0.4614232E+02  0.7816164E-02  0.1320468E+00
        -11   -1    0    0    0    0  0.00000000000E+00  0.00000000000E+00  0.45593999997E+02  0.45594000000E+02  0.51100000000E-03 0.  1.
         11   -1    0    0    0    0 -0.00000000000E+00 -0.00000000000E+00 -0.45593999997E+02  0.45594000000E+02  0.51100000000E-03 0. -1.
    9900012    2    1    2    0    0  0.29695170569E+02  0.27423719124E+02  0.19880894278E+02  0.46142317820E+02  0.10000000536E+02 0.  0.
         12    1    1    2    0    0 -0.29695170569E+02 -0.27423719124E+02 -0.19880894278E+02  0.45045682180E+02  0.00000000000E+00 0. -1.
         11    1    3    3    0    0  0.11717556291E+02  0.78073090967E+01  0.26889556931E+01  0.14334771842E+02  0.51100000000E-03 0. -1.
        -11    1    3    3    0    0  0.68661971397E+01  0.57215239438E+01  0.64914203878E+01  0.11046222807E+02  0.51100000000E-03 0.  1.
         12    1    3    3    0    0  0.11111417138E+02  0.13894886084E+02  0.10700518197E+02  0.20761323171E+02  0.00000000000E+00 0. -1.
</event>
<event>
 7    1  0.2250716E-008  0.4614232E+02  0.7816164E-02  0.1320468E+00
        -11   -1    0    0    0    0  0.00000000000E+00  0.00000000000E+00  0.45593999997E+02  0.45594000000E+02  0.51100000000E-03 0.  1.
         11   -1    0    0    0    0 -0.00000000000E+00 -0.00000000000E+00 -0.45593999997E+02  0.45594000000E+02  0.51100000000E-03 0. -1.
    9900012    2    1    2    0    0  0.20663699862E+02 -0.37700816582E+02  0.13445202197E+02  0.46142317354E+02  0.99999962863E+01 0.  0.
         12    1    1    2    0    0 -0.20663699862E+02  0.37700816582E+02 -0.13445202197E+02  0.45045682646E+02  0.00000000000E+00 0. -1.
         11    1    3    3    0    0  0.21371038255E+01 -0.43725094044E+00 -0.18335136915E+00  0.21890680966E+01  0.51100000000E-03 0. -1.
        -11    1    3    3    0    0  0.20933421424E+01 -0.64372621214E+01  0.11964099715E+01  0.68739960741E+01  0.51100000000E-03 0.  1.
         12    1    3    3    0    0  0.16433253894E+02 -0.30826303520E+02  0.12432143594E+02  0.37079253183E+02  0.00000000000E+00 0. -1.
</event>
<event>
 7    1  0.2250716E-008  0.4614231E+02  0.7816164E-02  0.1320468E+00
        -11   -1    0    0    0    0  0.00000000000E+00  0.00000000000E+00  0.45593999997E+02  0.45594000000E+02  0.51100000000E-03 0. -1.
         11   -1    0    0    0    0 -0.00000000000E+00 -0.00000000000E+00 -0.45593999997E+02  0.45594000000E+02  0.51100000000E-03 0.  1.
    9900012    2    1    2    0    0 -0.18527292312E+02 -0.10668101710E+02 -0.39649020794E+02  0.46142314253E+02  0.99999680118E+01 0.  0.
         12    1    1    2    0    0  0.18527292312E+02  0.10668101710E+02  0.39649020794E+02  0.45045685747E+02  0.00000000000E+00 0. -1.
         11    1    3    3    0    0 -0.82642845004E+00 -0.14938144940E+01  0.51802760432E-01  0.17079664846E+01  0.51100000000E-03 0. -1.
        -11    1    3    3    0    0 -0.49051196587E+01 -0.27061625164E+01 -0.11983501335E+02  0.13228296147E+02  0.51100000000E-03 0.  1.
         12    1    3    3    0    0 -0.12795744203E+02 -0.64681246996E+01 -0.27717322219E+02  0.31206051622E+02  0.00000000000E+00 0. -1.
</event>
<event>
 7    1  0.2250716E-008  0.4614232E+02  0.7816164E-02  0.1320468E+00
        -11   -1    0    0    0    0  0.00000000000E+00  0.00000000000E+00  0.45593999997E+02  0.45594000000E+02  0.51100000000E-03 0.  1.
         11   -1    0    0    0    0 -0.00000000000E+00 -0.00000000000E+00 -0.45593999997E+02  0.45594000000E+02  0.51100000000E-03 0. -1.
    9900012    2    1    2    0    0  0.29878810429E+02 -0.20718215440E+02  0.26591833204E+02  0.46142319221E+02  0.10000013317E+02 0.  0.
         12    1    1    2    0    0 -0.29878810429E+02  0.20718215440E+02 -0.26591833204E+02  0.45045680779E+02  0.00000000000E+00 0. -1.
         11    1    3    3    0    0  0.46166476629E+01 -0.59361017914E+01  0.46265391350E+01  0.88292471225E+01  0.51100000000E-03 0. -1.
        -11    1    3    3    0    0  0.13726214167E+02 -0.52250856452E+01  0.75110589636E+01  0.16496256617E+02  0.51100000000E-03 0.  1.
        -12    1    3    3    0    0  0.11535948599E+02 -0.95570280036E+01  0.14454235105E+02  0.20816815482E+02  0.00000000000E+00 0.  1.
</event>
<event>
 7    1  0.2250716E-008  0.4614232E+02  0.7816164E-02  0.1320468E+00
        -11   -1    0    0    0    0  0.00000000000E+00  0.00000000000E+00  0.45593999997E+02  0.45594000000E+02  0.51100000000E-03 0. -1.
         11   -1    0    0    0    0 -0.00000000000E+00 -0.00000000000E+00 -0.45593999997E+02  0.45594000000E+02  0.51100000000E-03 0.  1.
    9900012    2    1    2    0    0  0.14153439960E+02 -0.41968899901E+02 -0.82100604173E+01  0.46142317481E+02  0.99999974439E+01 0.  0.
         12    1    1    2    0    0 -0.14153439960E+02  0.41968899901E+02  0.82100604173E+01  0.45045682519E+02  0.00000000000E+00 0. -1.
         11    1    3    3    0    0  0.83557736503E+01 -0.26915606395E+02 -0.34713968274E+00  0.28184913111E+02  0.51100000000E-03 0. -1.
        -11    1    3    3    0    0  0.77171219000E+00 -0.16671422535E+01 -0.10866520705E+01  0.21344123268E+01  0.51100000000E-03 0.  1.
         12    1    3    3    0    0  0.50259541196E+01 -0.13386151253E+02 -0.67762686640E+01  0.15822992043E+02  0.00000000000E+00 0. -1.
</event>
<event>
 7    1  0.2250716E-008  0.4614232E+02  0.7816164E-02  0.1320468E+00
        -11   -1    0    0    0    0  0.00000000000E+00  0.00000000000E+00  0.45593999997E+02  0.45594000000E+02  0.51100000000E-03 0.  1.
         11   -1    0    0    0    0 -0.00000000000E+00 -0.00000000000E+00 -0.45593999997E+02  0.45594000000E+02  0.51100000000E-03 0. -1.
    9900012    2    1    2    0    0  0.24793235470E+02  0.31122825600E+02  0.21113470838E+02  0.46142318196E+02  0.10000003963E+02 0.  0.
         12    1    1    2    0    0 -0.24793235470E+02 -0.31122825600E+02 -0.21113470838E+02  0.45045681804E+02  0.00000000000E+00 0. -1.
         11    1    3    3    0    0  0.32377210045E+01  0.58442835472E+01  0.32437279690E+01  0.74269952794E+01  0.51100000000E-03 0. -1.
        -11    1    3    3    0    0  0.78571420208E+01  0.34856708069E+01  0.48469587448E+01  0.98680084639E+01  0.51100000000E-03 0.  1.
        -12    1    3    3    0    0  0.13698372444E+02  0.21792871246E+02  0.13022784124E+02  0.28847314452E+02  0.00000000000E+00 0.  1.
</event>
<event>
 7    1  0.2250716E-008  0.4614232E+02  0.7816164E-02  0.1320468E+00
        -11   -1    0    0    0    0  0.00000000000E+00  0.00000000000E+00  0.45593999997E+02  0.45594000000E+02  0.51100000000E-03 0. -1.
         11   -1    0    0    0    0 -0.00000000000E+00 -0.00000000000E+00 -0.45593999997E+02  0.45594000000E+02  0.51100000000E-03 0.  1.
    9900012    2    1    2    0    0  0.13673117890E+02 -0.27995914037E+02 -0.32532878196E+02  0.46142317418E+02  0.99999968686E+01 0.  0.
         12    1    1    2    0    0 -0.13673117890E+02  0.27995914037E+02  0.32532878196E+02  0.45045682582E+02  0.00000000000E+00 0. -1.
         11    1    3    3    0    0  0.43778522206E+00 -0.96862240220E+00 -0.54139829981E+01  0.55173451427E+01  0.51100000000E-03 0. -1.
        -11    1    3    3    0    0  0.87506906595E+01 -0.17434457708E+02 -0.15596620901E+02  0.24975777994E+02  0.51100000000E-03 0.  1.
         12    1    3    3    0    0  0.44846420081E+01 -0.95928339264E+01 -0.11522274297E+02  0.15649194281E+02  0.00000000000E+00 0. -1.
</event>
<event>
 7    1  0.2250716E-008  0.4614232E+02  0.7816164E-02  0.1320468E+00
        -11   -1    0    0    0    0  0.00000000000E+00  0.00000000000E+00  0.45593999997E+02  0.45594000000E+02  0.51100000000E-03 0.  1.
         11   -1    0    0    0    0 -0.00000000000E+00 -0.00000000000E+00 -0.45593999997E+02  0.45594000000E+02  0.51100000000E-03 0. -1.
    9900012    2    1    2    0    0 -0.17443629619E+02  0.27599498244E+02  0.31033868704E+02  0.46142317362E+02  0.99999963631E+01 0.  0.
         12    1    1    2    0    0  0.17443629619E+02 -0.27599498244E+02 -0.31033868704E+02  0.45045682638E+02  0.00000000000E+00 0. -1.
         11    1    3    3    0    0  0.88016610267E+00  0.19977764434E+01  0.53967866009E+00  0.22487899865E+01  0.51100000000E-03 0. -1.
        -11    1    3    3    0    0 -0.28238850129E+01  0.36198089150E+01  0.33760022987E+01  0.56986608014E+01  0.51100000000E-03 0.  1.
        -12    1    3    3    0    0 -0.15499910708E+02  0.21981912885E+02  0.27118187745E+02  0.38194866574E+02  0.00000000000E+00 0.  1.
</event>
<event>
 7    1  0.2250716E-008  0.4614232E+02  0.7816164E-02  0.1320468E+00
        -11   -1    0    0    0    0  0.00000000000E+00  0.00000000000E+00  0.45593999997E+02  0.45594000000E+02  0.51100000000E-03 0.  1.
         11   -1    0    0    0    0 -0.00000000000E+00 -0.00000000000E+00 -0.45593999997E+02  0.45594000000E+02  0.51100000000E-03 0. -1.
    9900012    2    1    2    0    0 -0.21017029699E+02  0.38177205708E+02  0.11397319289E+02  0.46142318076E+02  0.10000002873E+02 0.  0.
         12    1    1    2    0    0  0.21017029699E+02 -0.38177205708E+02 -0.11397319289E+02  0.45045681924E+02  0.00000000000E+00 0. -1.
         11    1    3    3    0    0 -0.88228540672E+01  0.95636811290E+01  0.22192766213E+01  0.13199694679E+02  0.51100000000E-03 0. -1.
        -11    1    3    3    0    0 -0.10054726061E+02  0.22465345543E+02  0.47429616140E+01  0.25065612932E+02  0.51100000000E-03 0.  1.
        -12    1    3    3    0    0 -0.21394495704E+01  0.61481790361E+01  0.44350810533E+01  0.78770104655E+01  0.00000000000E+00 0.  1.
</event>
<event>
 7    1  0.2250716E-008  0.4614232E+02  0.7816164E-02  0.1320468E+00
        -11   -1    0    0    0    0  0.00000000000E+00  0.00000000000E+00  0.45593999997E+02  0.45594000000E+02  0.51100000000E-03 0.  1.
         11   -1    0    0    0    0 -0.00000000000E+00 -0.00000000000E+00 -0.45593999997E+02  0.45594000000E+02  0.51100000000E-03 0. -1.
    9900012    2    1    2    0    0  0.57308143757E+01 -0.89014409551E+01  0.43783964855E+02  0.46142318044E+02  0.10000002575E+02 0.  0.
         12    1    1    2    0    0 -0.57308143757E+01  0.89014409551E+01 -0.43783964855E+02  0.45045681956E+02  0.00000000000E+00 0. -1.
         11    1    3    3    0    0 -0.15545694603E+00  0.46105371773E+00  0.92664255278E+00  0.10466155332E+01  0.51100000000E-03 0. -1.
        -11    1    3    3    0    0  0.65103287057E+01 -0.91648017345E+01  0.27292076061E+02  0.29516696744E+02  0.51100000000E-03 0.  1.
        -12    1    3    3    0    0 -0.62405738394E+00 -0.19769293840E+00  0.15565246241E+02  0.15579005767E+02  0.00000000000E+00 0.  1.
</event>
<event>
 7    1  0.2250716E-008  0.4614232E+02  0.7816164E-02  0.1320468E+00
        -11   -1    0    0    0    0  0.00000000000E+00  0.00000000000E+00  0.45593999997E+02  0.45594000000E+02  0.51100000000E-03 0. -1.
         11   -1    0    0    0    0 -0.00000000000E+00 -0.00000000000E+00 -0.45593999997E+02  0.45594000000E+02  0.51100000000E-03 0.  1.
    9900012    2    1    2    0    0 -0.38620182943E+02 -0.18124063832E+02 -0.14460728183E+02  0.46142324515E+02  0.10000061586E+02 0.  0.
         12    1    1    2    0    0  0.38620182943E+02  0.18124063832E+02  0.14460728183E+02  0.45045675485E+02  0.00000000000E+00 0. -1.
         11    1    3    3    0    0 -0.94618293211E+01 -0.50456378120E+01 -0.60727317745E+01  0.12323260384E+02  0.51100000000E-03 0. -1.
        -11    1    3    3    0    0 -0.25552378007E+02 -0.10969451648E+02 -0.96836902874E+01  0.29445317949E+02  0.51100000000E-03 0.  1.
         12    1    3    3    0    0 -0.36059756147E+01 -0.21089743716E+01  0.12956938785E+01  0.43737461815E+01  0.00000000000E+00 0. -1.
</event>
<event>
 7    1  0.2250716E-008  0.4614232E+02  0.7816164E-02  0.1320468E+00
        -11   -1    0    0    0    0  0.00000000000E+00  0.00000000000E+00  0.45593999997E+02  0.45594000000E+02  0.51100000000E-03 0. -1.
         11   -1    0    0    0    0 -0.00000000000E+00 -0.00000000000E+00 -0.45593999997E+02  0.45594000000E+02  0.51100000000E-03 0.  1.
    9900012    2    1    2    0    0 -0.43011659516E+02 -0.12311847189E+02 -0.52468144917E+01  0.46142317656E+02  0.99999990418E+01 0.  0.
         12    1    1    2    0    0  0.43011659516E+02  0.12311847189E+02  0.52468144917E+01  0.45045682344E+02  0.00000000000E+00 0. -1.
         11    1    3    3    0    0 -0.16251734942E+02 -0.66140414787E+01  0.36309433959E+00  0.17549822537E+02  0.51100000000E-03 0. -1.
        -11    1    3    3    0    0 -0.17040162922E+02 -0.41788056491E+01 -0.65094871463E+01  0.18713711343E+02  0.51100000000E-03 0.  1.
        -12    1    3    3    0    0 -0.97197616510E+01 -0.15190000613E+01  0.89957831494E+00  0.98787837755E+01  0.00000000000E+00 0.  1.
</event>
<event>
 7    1  0.2250716E-008  0.4614232E+02  0.7816164E-02  0.1320468E+00
        -11   -1    0    0    0    0  0.00000000000E+00  0.00000000000E+00  0.45593999997E+02  0.45594000000E+02  0.51100000000E-03 0.  1.
         11   -1    0    0    0    0 -0.00000000000E+00 -0.00000000000E+00 -0.45593999997E+02  0.45594000000E+02  0.51100000000E-03 0. -1.
    9900012    2    1    2    0    0  0.35551970554E+02 -0.18644262806E+02  0.20434343421E+02  0.46142317223E+02  0.99999950908E+01 0.  0.
         12    1    1    2    0    0 -0.35551970554E+02  0.18644262806E+02 -0.20434343421E+02  0.45045682777E+02  0.00000000000E+00 0. -1.
         11    1    3    3    0    0  0.33589769838E+01 -0.32070517048E+01  0.58264294992E+01  0.74508514940E+01  0.51100000000E-03 0. -1.
        -11    1    3    3    0    0  0.27823892729E+02 -0.14226130764E+02  0.13383886045E+02  0.33995296866E+02  0.51100000000E-03 0.  1.
        -12    1    3    3    0    0  0.43691008410E+01 -0.12110803369E+01  0.12240278771E+01  0.46961688624E+01  0.00000000000E+00 0.  1.
</event>
<event>
 7    1  0.2250716E-008  0.4614232E+02  0.7816164E-02  0.1320468E+00
        -11   -1    0    0    0    0  0.00000000000E+00  0.00000000000E+00  0.45593999997E+02  0.45594000000E+02  0.51100000000E-03 0. -1.
         11   -1    0    0    0    0 -0.00000000000E+00 -0.00000000000E+00 -0.45593999997E+02  0.45594000000E+02  0.51100000000E-03 0.  1.
    9900012    2    1    2    0    0  0.96196054135E+01 -0.42789594676E+02 -0.10277513125E+02  0.46142317666E+02  0.99999991332E+01 0.  0.
         12    1    1    2    0    0 -0.96196054135E+01  0.42789594676E+02  0.10277513125E+02  0.45045682334E+02  0.00000000000E+00 0. -1.
         11    1    3    3    0    0 -0.15355746612E+00  0.82607766614E-02 -0.67752901208E-02  0.15392953423E+00  0.51100000000E-03 0. -1.
        -11    1    3    3    0    0 -0.89582112270E+00 -0.15129834073E+02 -0.28811183738E+01  0.15427741828E+02  0.51100000000E-03 0.  1.
         12    1    3    3    0    0  0.10668984002E+02 -0.27668021380E+02 -0.73896194615E+01  0.30560646304E+02  0.00000000000E+00 0. -1.
</event>
<event>
 7    1  0.2250716E-008  0.4614232E+02  0.7816164E-02  0.1320468E+00
        -11   -1    0    0    0    0  0.00000000000E+00  0.00000000000E+00  0.45593999997E+02  0.45594000000E+02  0.51100000000E-03 0.  1.
         11   -1    0    0    0    0 -0.00000000000E+00 -0.00000000000E+00 -0.45593999997E+02  0.45594000000E+02  0.51100000000E-03 0. -1.
    9900012    2    1    2    0    0  0.19375006451E+02  0.37784088260E+02 -0.15036135339E+02  0.46142316893E+02  0.99999920860E+01 0.  0.
         12    1    1    2    0    0 -0.19375006451E+02 -0.37784088260E+02  0.15036135339E+02  0.45045683107E+02  0.00000000000E+00 0. -1.
         11    1    3    3    0    0  0.10607625158E+02  0.28342398940E+02 -0.10226230728E+02  0.31943529616E+02  0.51100000000E-03 0.  1.
        -11    1    3    3    0    0  0.17419772035E+01  0.88865210637E+00 -0.19613187045E+01  0.27696495203E+01  0.51100000000E-03 0. -1.
        -12    1    3    3    0    0  0.70254040896E+01  0.85530372142E+01 -0.28485859065E+01  0.11429137757E+02  0.00000000000E+00 0.  1.
</event>
<event>
 7    1  0.2250716E-008  0.4614232E+02  0.7816164E-02  0.1320468E+00
        -11   -1    0    0    0    0  0.00000000000E+00  0.00000000000E+00  0.45593999997E+02  0.45594000000E+02  0.51100000000E-03 0.  1.
         11   -1    0    0    0    0 -0.00000000000E+00 -0.00000000000E+00 -0.45593999997E+02  0.45594000000E+02  0.51100000000E-03 0. -1.
    9900012    2    1    2    0    0 -0.46142763439E-01 -0.20712648509E+02  0.40001219616E+02  0.46142317542E+02  0.99999979978E+01 0.  0.
         12    1    1    2    0    0  0.46142763439E-01  0.20712648509E+02 -0.40001219616E+02  0.45045682458E+02  0.00000000000E+00 0. -1.
         11    1    3    3    0    0  0.12493798525E+01 -0.17464514873E+01  0.83004738704E+00  0.23021776081E+01  0.51100000000E-03 0. -1.
        -11    1    3    3    0    0  0.75984010662E+00 -0.43396347693E+01  0.53232848431E+01  0.69099311647E+01  0.51100000000E-03 0.  1.
        -12    1    3    3    0    0 -0.20553627226E+01 -0.14626562252E+02  0.33847887385E+02  0.36930208769E+02  0.00000000000E+00 0.  1.
</event>
<event>
 7    1  0.2250716E-008  0.4614233E+02  0.7816164E-02  0.1320468E+00
        -11   -1    0    0    0    0  0.00000000000E+00  0.00000000000E+00  0.45593999997E+02  0.45594000000E+02  0.51100000000E-03 0.  1.
         11   -1    0    0    0    0 -0.00000000000E+00 -0.00000000000E+00 -0.45593999997E+02  0.45594000000E+02  0.51100000000E-03 0. -1.
    9900012    2    1    2    0    0 -0.40730929043E+02  0.18605513962E+02  0.48927353866E+01  0.46142327733E+02  0.10000090927E+02 0.  0.
         12    1    1    2    0    0  0.40730929043E+02 -0.18605513962E+02 -0.48927353866E+01  0.45045672267E+02  0.00000000000E+00 0. -1.
         11    1    3    3    0    0 -0.93180960394E+00  0.23416220076E+01  0.12795721871E+01  0.28264408729E+01  0.51100000000E-03 0. -1.
        -11    1    3    3    0    0 -0.31163130480E+02  0.11375758198E+02  0.17619263503E+01  0.33221272712E+02  0.51100000000E-03 0.  1.
         12    1    3    3    0    0 -0.86359889584E+01  0.48881337565E+01  0.18512368493E+01  0.10094614147E+02  0.00000000000E+00 0. -1.
</event>
<event>
 7    1  0.2250716E-008  0.4614232E+02  0.7816164E-02  0.1320468E+00
        -11   -1    0    0    0    0  0.00000000000E+00  0.00000000000E+00  0.45593999997E+02  0.45594000000E+02  0.51100000000E-03 0. -1.
         11   -1    0    0    0    0 -0.00000000000E+00 -0.00000000000E+00 -0.45593999997E+02  0.45594000000E+02  0.51100000000E-03 0.  1.
    9900012    2    1    2    0    0  0.19057304722E+02  0.22418807079E+02 -0.34107615496E+02  0.46142320863E+02  0.10000028284E+02 0.  0.
         12    1    1    2    0    0 -0.19057304722E+02 -0.22418807079E+02  0.34107615496E+02  0.45045679137E+02  0.00000000000E+00 0. -1.
         11    1    3    3    0    0  0.50811044256E+01  0.38359679547E+01 -0.57890208706E+01  0.86049424887E+01  0.51100000000E-03 0. -1.
        -11    1    3    3    0    0  0.69700161087E+01  0.30849881858E+01 -0.92491724094E+01  0.11985218696E+02  0.51100000000E-03 0.  1.
        -12    1    3    3    0    0  0.70061841876E+01  0.15497850939E+02 -0.19069422216E+02  0.25552159679E+02  0.00000000000E+00 0.  1.
</event>
<event>
 7    1  0.2250716E-008  0.4614232E+02  0.7816164E-02  0.1320468E+00
        -11   -1    0    0    0    0  0.00000000000E+00  0.00000000000E+00  0.45593999997E+02  0.45594000000E+02  0.51100000000E-03 0.  1.
         11   -1    0    0    0    0 -0.00000000000E+00 -0.00000000000E+00 -0.45593999997E+02  0.45594000000E+02  0.51100000000E-03 0. -1.
    9900012    2    1    2    0    0 -0.12923639921E+02  0.29410635085E+02  0.31577011158E+02  0.46142316981E+02  0.99999928909E+01 0.  0.
         12    1    1    2    0    0  0.12923639921E+02 -0.29410635085E+02 -0.31577011158E+02  0.45045683019E+02  0.00000000000E+00 0. -1.
         11    1    3    3    0    0 -0.23655545858E+01  0.73415938764E+01  0.10106842744E+02  0.12713894748E+02  0.51100000000E-03 0. -1.
        -11    1    3    3    0    0 -0.91251998486E+01  0.20398002756E+02  0.21781244108E+02  0.31205294164E+02  0.51100000000E-03 0.  1.
         12    1    3    3    0    0 -0.14328854862E+01  0.16710384526E+01 -0.31107569363E+00  0.22231280695E+01  0.00000000000E+00 0. -1.
</event>
<event>
 7    1  0.2250716E-008  0.4614232E+02  0.7816164E-02  0.1320468E+00
        -11   -1    0    0    0    0  0.00000000000E+00  0.00000000000E+00  0.45593999997E+02  0.45594000000E+02  0.51100000000E-03 0.  1.
         11   -1    0    0    0    0 -0.00000000000E+00 -0.00000000000E+00 -0.45593999997E+02  0.45594000000E+02  0.51100000000E-03 0. -1.
    9900012    2    1    2    0    0 -0.23155280123E+02  0.17314873591E+02  0.34541881297E+02  0.46142318647E+02  0.10000008075E+02 0.  0.
         12    1    1    2    0    0  0.23155280123E+02 -0.17314873591E+02 -0.34541881297E+02  0.45045681353E+02  0.00000000000E+00 0. -1.
         11    1    3    3    0    0 -0.10695207745E+02  0.36042009270E+01  0.11179065190E+02  0.15885503826E+02  0.51100000000E-03 0. -1.
        -11    1    3    3    0    0 -0.10525679679E+01  0.38741246459E+01  0.34824611133E+01  0.53145344825E+01  0.51100000000E-03 0.  1.
        -12    1    3    3    0    0 -0.11407504410E+02  0.98365480182E+01  0.19880354994E+02  0.24942280338E+02  0.00000000000E+00 0.  1.
</event>
<event>
 7    1  0.2250716E-008  0.4614232E+02  0.7816164E-02  0.1320468E+00
        -11   -1    0    0    0    0  0.00000000000E+00  0.00000000000E+00  0.45593999997E+02  0.45594000000E+02  0.51100000000E-03 0. -1.
         11   -1    0    0    0    0 -0.00000000000E+00 -0.00000000000E+00 -0.45593999997E+02  0.45594000000E+02  0.51100000000E-03 0.  1.
    9900012    2    1    2    0    0 -0.63333520702E+01  0.24611225373E+02 -0.37192603063E+02  0.46142317794E+02  0.10000000299E+02 0.  0.
         12    1    1    2    0    0  0.63333520702E+01 -0.24611225373E+02  0.37192603063E+02  0.45045682206E+02  0.00000000000E+00 0. -1.
         11    1    3    3    0    0 -0.16156901405E+00  0.12773405232E+00  0.22926643811E+00  0.30819457359E+00  0.51100000000E-03 0. -1.
        -11    1    3    3    0    0 -0.34049479831E+01  0.72669893154E+01 -0.18146061312E+02  0.19841430036E+02  0.51100000000E-03 0.  1.
        -12    1    3    3    0    0 -0.27668350730E+01  0.17216502005E+02 -0.19275808189E+02  0.25992693184E+02  0.00000000000E+00 0.  1.
</event>
<event>
 7    1  0.2250716E-008  0.4614232E+02  0.7816164E-02  0.1320468E+00
        -11   -1    0    0    0    0  0.00000000000E+00  0.00000000000E+00  0.45593999997E+02  0.45594000000E+02  0.51100000000E-03 0.  1.
         11   -1    0    0    0    0 -0.00000000000E+00 -0.00000000000E+00 -0.45593999997E+02  0.45594000000E+02  0.51100000000E-03 0. -1.
    9900012    2    1    2    0    0  0.25690350024E+02  0.33833643483E+02  0.14980119540E+02  0.46142317664E+02  0.99999991133E+01 0.  0.
         12    1    1    2    0    0 -0.25690350024E+02 -0.33833643483E+02 -0.14980119540E+02  0.45045682336E+02  0.00000000000E+00 0. -1.
         11    1    3    3    0    0  0.13492167112E+02  0.16145641766E+02  0.96899426989E+01  0.23164958692E+02  0.51100000000E-03 0. -1.
        -11    1    3    3    0    0  0.73524145105E+01  0.14376748781E+02  0.56233264499E+01  0.17098850992E+02  0.51100000000E-03 0.  1.
         12    1    3    3    0    0  0.48457684009E+01  0.33112529365E+01 -0.33314960874E+00  0.58785079796E+01  0.00000000000E+00 0. -1.
</event>
<event>
 7    1  0.2250716E-008  0.4614232E+02  0.7816164E-02  0.1320468E+00
        -11   -1    0    0    0    0  0.00000000000E+00  0.00000000000E+00  0.45593999997E+02  0.45594000000E+02  0.51100000000E-03 0.  1.
         11   -1    0    0    0    0 -0.00000000000E+00 -0.00000000000E+00 -0.45593999997E+02  0.45594000000E+02  0.51100000000E-03 0. -1.
    9900012    2    1    2    0    0  0.34079594935E+02  0.14781512518E+02  0.25479434812E+02  0.46142317615E+02  0.99999986649E+01 0.  0.
         12    1    1    2    0    0 -0.34079594935E+02 -0.14781512518E+02 -0.25479434812E+02  0.45045682385E+02  0.00000000000E+00 0. -1.
         11    1    3    3    0    0  0.10002801827E+01  0.24484772884E+01  0.46871669942E+00  0.26861305033E+01  0.51100000000E-03 0. -1.
        -11    1    3    3    0    0  0.72994714669E+01  0.14427668230E+01  0.66984226773E+01  0.10011629559E+02  0.51100000000E-03 0.  1.
        -12    1    3    3    0    0  0.25779843285E+02  0.10890268407E+02  0.18312295435E+02  0.33444557552E+02  0.00000000000E+00 0.  1.
</event>
<event>
 7    1  0.2250716E-008  0.4614232E+02  0.7816164E-02  0.1320468E+00
        -11   -1    0    0    0    0  0.00000000000E+00  0.00000000000E+00  0.45593999997E+02  0.45594000000E+02  0.51100000000E-03 0.  1.
         11   -1    0    0    0    0 -0.00000000000E+00 -0.00000000000E+00 -0.45593999997E+02  0.45594000000E+02  0.51100000000E-03 0. -1.
    9900012    2    1    2    0    0  0.22028858450E+02  0.36825983341E+02  0.13699995102E+02  0.46142317416E+02  0.99999968572E+01 0.  0.
         12    1    1    2    0    0 -0.22028858450E+02 -0.36825983341E+02 -0.13699995102E+02  0.45045682584E+02  0.00000000000E+00 0. -1.
         11    1    3    3    0    0 -0.35606102630E+00  0.12703629700E+01  0.35448708862E+00  0.13661123259E+01  0.51100000000E-03 0. -1.
        -11    1    3    3    0    0  0.12629195955E+02  0.26809095805E+02  0.95284986936E+01  0.31129029795E+02  0.51100000000E-03 0.  1.
         12    1    3    3    0    0  0.97557235213E+01  0.87465245656E+01  0.38170093199E+01  0.13647175296E+02  0.00000000000E+00 0. -1.
</event>
<event>
 7    1  0.2250716E-008  0.4614232E+02  0.7816164E-02  0.1320468E+00
        -11   -1    0    0    0    0  0.00000000000E+00  0.00000000000E+00  0.45593999997E+02  0.45594000000E+02  0.51100000000E-03 0.  1.
         11   -1    0    0    0    0 -0.00000000000E+00 -0.00000000000E+00 -0.45593999997E+02  0.45594000000E+02  0.51100000000E-03 0. -1.
    9900012    2    1    2    0    0 -0.14235748793E+01  0.39209733948E+02  0.22128794128E+02  0.46142319505E+02  0.10000015905E+02 0.  0.
         12    1    1    2    0    0  0.14235748793E+01 -0.39209733948E+02 -0.22128794128E+02  0.45045680495E+02  0.00000000000E+00 0. -1.
         11    1    3    3    0    0 -0.32846884726E+00  0.14079124007E+00 -0.76478551463E+00  0.84416295904E+00  0.51100000000E-03 0. -1.
        -11    1    3    3    0    0 -0.18312903046E+00  0.46581708620E+01  0.25640918803E+01  0.53204003095E+01  0.51100000000E-03 0.  1.
         12    1    3    3    0    0 -0.91197700161E+00  0.34410771846E+02  0.20329487762E+02  0.39977756237E+02  0.00000000000E+00 0. -1.
</event>
<event>
 7    1  0.2250716E-008  0.4614232E+02  0.7816164E-02  0.1320468E+00
        -11   -1    0    0    0    0  0.00000000000E+00  0.00000000000E+00  0.45593999997E+02  0.45594000000E+02  0.51100000000E-03 0.  1.
         11   -1    0    0    0    0 -0.00000000000E+00 -0.00000000000E+00 -0.45593999997E+02  0.45594000000E+02  0.51100000000E-03 0. -1.
    9900012    2    1    2    0    0 -0.22054545472E+02 -0.47481419280E+01  0.38989301895E+02  0.46142317743E+02  0.99999998384E+01 0.  0.
         12    1    1    2    0    0  0.22054545472E+02  0.47481419280E+01 -0.38989301895E+02  0.45045682257E+02  0.00000000000E+00 0. -1.
         11    1    3    3    0    0 -0.66501609481E+00 -0.15778945124E+01  0.56079949362E+01  0.58635829459E+01  0.51100000000E-03 0. -1.
        -11    1    3    3    0    0 -0.66317666649E+01 -0.34306765883E+01  0.14533022879E+02  0.16338868541E+02  0.51100000000E-03 0.  1.
         12    1    3    3    0    0 -0.14757762712E+02  0.26042917273E+00  0.18848284080E+02  0.23939866256E+02  0.00000000000E+00 0. -1.
</event>
<event>
 7    1  0.2250716E-008  0.4614232E+02  0.7816164E-02  0.1320468E+00
        -11   -1    0    0    0    0  0.00000000000E+00  0.00000000000E+00  0.45593999997E+02  0.45594000000E+02  0.51100000000E-03 0. -1.
         11   -1    0    0    0    0 -0.00000000000E+00 -0.00000000000E+00 -0.45593999997E+02  0.45594000000E+02  0.51100000000E-03 0.  1.
    9900012    2    1    2    0    0 -0.16446463545E+00  0.44385283716E+02  0.76832943558E+01  0.46142317950E+02  0.10000001722E+02 0.  0.
         12    1    1    2    0    0  0.16446463545E+00 -0.44385283716E+02 -0.76832943558E+01  0.45045682050E+02  0.00000000000E+00 0. -1.
         11    1    3    3    0    0 -0.82151763089E+00  0.21973982282E+02  0.45913593202E+01  0.22463556469E+02  0.51100000000E-03 0. -1.
        -11    1    3    3    0    0  0.41420982528E+00  0.22600217401E+02  0.37866264505E+01  0.22918986376E+02  0.51100000000E-03 0.  1.
        -12    1    3    3    0    0  0.24284317017E+00 -0.18891596740E+00 -0.69469141496E+00  0.75977510491E+00  0.00000000000E+00 0.  1.
</event>
<event>
 7    1  0.2250716E-008  0.4614232E+02  0.7816164E-02  0.1320468E+00
        -11   -1    0    0    0    0  0.00000000000E+00  0.00000000000E+00  0.45593999997E+02  0.45594000000E+02  0.51100000000E-03 0.  1.
         11   -1    0    0    0    0 -0.00000000000E+00 -0.00000000000E+00 -0.45593999997E+02  0.45594000000E+02  0.51100000000E-03 0. -1.
    9900012    2    1    2    0    0 -0.36306116572E+02  0.23294906721E+02  0.12974077584E+02  0.46142317978E+02  0.10000001981E+02 0.  0.
         12    1    1    2    0    0  0.36306116572E+02 -0.23294906721E+02 -0.12974077584E+02  0.45045682022E+02  0.00000000000E+00 0. -1.
         11    1    3    3    0    0 -0.20628545987E+02  0.14399635095E+02  0.10350034141E+02  0.27203117604E+02  0.51100000000E-03 0. -1.
        -11    1    3    3    0    0 -0.12193282092E+02  0.91764978512E+01  0.21814830007E+01  0.15415677388E+02  0.51100000000E-03 0.  1.
         12    1    3    3    0    0 -0.34842884929E+01 -0.28122622495E+00  0.44256044219E+00  0.35235229865E+01  0.00000000000E+00 0. -1.
</event>
<event>
 7    1  0.2250716E-008  0.4614232E+02  0.7816164E-02  0.1320468E+00
        -11   -1    0    0    0    0  0.00000000000E+00  0.00000000000E+00  0.45593999997E+02  0.45594000000E+02  0.51100000000E-03 0.  1.
         11   -1    0    0    0    0 -0.00000000000E+00 -0.00000000000E+00 -0.45593999997E+02  0.45594000000E+02  0.51100000000E-03 0. -1.
    9900012    2    1    2    0    0  0.36233941068E+02 -0.26457241987E+02  0.40285597832E+01  0.46142318378E+02  0.10000005622E+02 0.  0.
         12    1    1    2    0    0 -0.36233941068E+02  0.26457241987E+02 -0.40285597832E+01  0.45045681622E+02  0.00000000000E+00 0. -1.
         11    1    3    3    0    0  0.14084325181E+02 -0.67163168958E+01  0.46145363182E+01  0.16271787675E+02  0.51100000000E-03 0. -1.
        -11    1    3    3    0    0  0.46494646223E+01 -0.28791320538E+01  0.81161337400E+00  0.55286200075E+01  0.51100000000E-03 0.  1.
         12    1    3    3    0    0  0.17500151264E+02 -0.16861793038E+02 -0.13975899091E+01  0.24341910695E+02  0.00000000000E+00 0. -1.
</event>
<event>
 7    1  0.2250716E-008  0.4614232E+02  0.7816164E-02  0.1320468E+00
        -11   -1    0    0    0    0  0.00000000000E+00  0.00000000000E+00  0.45593999997E+02  0.45594000000E+02  0.51100000000E-03 0. -1.
         11   -1    0    0    0    0 -0.00000000000E+00 -0.00000000000E+00 -0.45593999997E+02  0.45594000000E+02  0.51100000000E-03 0.  1.
    9900012    2    1    2    0    0  0.84985296557E+01  0.43847232635E+01 -0.44018889671E+02  0.46142318162E+02  0.10000003652E+02 0.  0.
         12    1    1    2    0    0 -0.84985296557E+01 -0.43847232635E+01  0.44018889671E+02  0.45045681838E+02  0.00000000000E+00 0. -1.
         11    1    3    3    0    0  0.64335337338E+00  0.66030498807E-01  0.37686233015E+00  0.74852459333E+00  0.51100000000E-03 0. -1.
        -11    1    3    3    0    0  0.70636225635E+01  0.35635080293E+01 -0.32552868085E+02  0.33500486176E+02  0.51100000000E-03 0.  1.
        -12    1    3    3    0    0  0.79155371877E+00  0.75518473540E+00 -0.11842883917E+02  0.11893307393E+02  0.00000000000E+00 0.  1.
</event>
<event>
 7    1  0.2250716E-008  0.4614232E+02  0.7816164E-02  0.1320468E+00
        -11   -1    0    0    0    0  0.00000000000E+00  0.00000000000E+00  0.45593999997E+02  0.45594000000E+02  0.51100000000E-03 0.  1.
         11   -1    0    0    0    0 -0.00000000000E+00 -0.00000000000E+00 -0.45593999997E+02  0.45594000000E+02  0.51100000000E-03 0. -1.
    9900012    2    1    2    0    0 -0.18066865440E+01 -0.35852647773E+02  0.27210972388E+02  0.46142317777E+02  0.10000000146E+02 0.  0.
         12    1    1    2    0    0  0.18066865440E+01  0.35852647773E+02 -0.27210972388E+02  0.45045682223E+02  0.00000000000E+00 0. -1.
         11    1    3    3    0    0  0.13867344941E+00 -0.19421552537E+02  0.16045391292E+02  0.25192667886E+02  0.51100000000E-03 0.  1.
        -11    1    3    3    0    0 -0.13220385309E+01 -0.14405665826E+02  0.65684624193E+01  0.15887595557E+02  0.51100000000E-03 0. -1.
         12    1    3    3    0    0 -0.62332146255E+00 -0.20254294097E+01  0.45971186774E+01  0.50620543333E+01  0.00000000000E+00 0. -1.
</event>
<event>
 7    1  0.2250716E-008  0.4614232E+02  0.7816164E-02  0.1320468E+00
        -11   -1    0    0    0    0  0.00000000000E+00  0.00000000000E+00  0.45593999997E+02  0.45594000000E+02  0.51100000000E-03 0.  1.
         11   -1    0    0    0    0 -0.00000000000E+00 -0.00000000000E+00 -0.45593999997E+02  0.45594000000E+02  0.51100000000E-03 0. -1.
    9900012    2    1    2    0    0 -0.44932951512E+02 -0.30432004702E+01  0.93930322649E+00  0.46142317729E+02  0.99999997113E+01 0.  0.
         12    1    1    2    0    0  0.44932951512E+02  0.30432004702E+01 -0.93930322649E+00  0.45045682271E+02  0.00000000000E+00 0. -1.
         11    1    3    3    0    0 -0.74388515852E+01  0.22956042385E+01 -0.12421937701E+01  0.78834863702E+01  0.51100000000E-03 0. -1.
        -11    1    3    3    0    0 -0.81884239001E+01 -0.11691170099E+01 -0.15766525671E+01  0.84203891910E+01  0.51100000000E-03 0.  1.
        -12    1    3    3    0    0 -0.29305676027E+02 -0.41696876988E+01  0.37581495637E+01  0.29838442168E+02  0.00000000000E+00 0.  1.
</event>
<event>
 7    1  0.2250716E-008  0.4614232E+02  0.7816164E-02  0.1320468E+00
        -11   -1    0    0    0    0  0.00000000000E+00  0.00000000000E+00  0.45593999997E+02  0.45594000000E+02  0.51100000000E-03 0. -1.
         11   -1    0    0    0    0 -0.00000000000E+00 -0.00000000000E+00 -0.45593999997E+02  0.45594000000E+02  0.51100000000E-03 0.  1.
    9900012    2    1    2    0    0  0.53914417510E+01  0.44648773364E+02 -0.25559542905E+01  0.46142317528E+02  0.99999978751E+01 0.  0.
         12    1    1    2    0    0 -0.53914417510E+01 -0.44648773364E+02  0.25559542905E+01  0.45045682472E+02  0.00000000000E+00 0. -1.
         11    1    3    3    0    0  0.75437420939E+00  0.37310407648E+01 -0.64812549214E+00  0.38613226427E+01  0.51100000000E-03 0. -1.
        -11    1    3    3    0    0  0.49003374143E+01  0.19030614007E+02  0.29173440656E+01  0.19866768055E+02  0.51100000000E-03 0.  1.
        -12    1    3    3    0    0 -0.26326987276E+00  0.21887118591E+02 -0.48251728640E+01  0.22414226831E+02  0.00000000000E+00 0.  1.
</event>
<event>
 7    1  0.2250716E-008  0.4614232E+02  0.7816164E-02  0.1320468E+00
        -11   -1    0    0    0    0  0.00000000000E+00  0.00000000000E+00  0.45593999997E+02  0.45594000000E+02  0.51100000000E-03 0.  1.
         11   -1    0    0    0    0 -0.00000000000E+00 -0.00000000000E+00 -0.45593999997E+02  0.45594000000E+02  0.51100000000E-03 0. -1.
    9900012    2    1    2    0    0  0.90739069004E+01 -0.19035661724E+02  0.39804789703E+02  0.46142317776E+02  0.10000000139E+02 0.  0.
         12    1    1    2    0    0 -0.90739069004E+01  0.19035661724E+02 -0.39804789703E+02  0.45045682224E+02  0.00000000000E+00 0. -1.
         11    1    3    3    0    0 -0.75515808939E+00 -0.16200622017E+01  0.26707381249E+01  0.32136751034E+01  0.51100000000E-03 0. -1.
        -11    1    3    3    0    0  0.19068078169E+01 -0.22494890049E+01  0.13088447174E+02  0.13416540781E+02  0.51100000000E-03 0.  1.
         12    1    3    3    0    0  0.79222571729E+01 -0.15166110518E+02  0.24045604403E+02  0.29512101892E+02  0.00000000000E+00 0. -1.
</event>
<event>
 7    1  0.2250716E-008  0.4614232E+02  0.7816164E-02  0.1320468E+00
        -11   -1    0    0    0    0  0.00000000000E+00  0.00000000000E+00  0.45593999997E+02  0.45594000000E+02  0.51100000000E-03 0.  1.
         11   -1    0    0    0    0 -0.00000000000E+00 -0.00000000000E+00 -0.45593999997E+02  0.45594000000E+02  0.51100000000E-03 0. -1.
    9900012    2    1    2    0    0  0.45235451478E+01 -0.14671535839E+02  0.42348519370E+02  0.46142317439E+02  0.99999970632E+01 0.  0.
         12    1    1    2    0    0 -0.45235451478E+01  0.14671535839E+02 -0.42348519370E+02  0.45045682561E+02  0.00000000000E+00 0. -1.
         11    1    3    3    0    0 -0.18800882203E+00 -0.98379854707E+00  0.54517070462E+01  0.55429520003E+01  0.51100000000E-03 0. -1.
        -11    1    3    3    0    0  0.46918956973E+01 -0.53907920194E+01  0.89857717688E+01  0.11481228957E+02  0.51100000000E-03 0.  1.
        -12    1    3    3    0    0  0.19658272486E-01 -0.82969452727E+01  0.27911040555E+02  0.29118136481E+02  0.00000000000E+00 0.  1.
</event>
<event>
 7    1  0.2250716E-008  0.4614232E+02  0.7816164E-02  0.1320468E+00
        -11   -1    0    0    0    0  0.00000000000E+00  0.00000000000E+00  0.45593999997E+02  0.45594000000E+02  0.51100000000E-03 0.  1.
         11   -1    0    0    0    0 -0.00000000000E+00 -0.00000000000E+00 -0.45593999997E+02  0.45594000000E+02  0.51100000000E-03 0. -1.
    9900012    2    1    2    0    0 -0.24069545902E+02 -0.27492229750E+02  0.26342887260E+02  0.46142318234E+02  0.10000004312E+02 0.  0.
         12    1    1    2    0    0  0.24069545902E+02  0.27492229750E+02 -0.26342887260E+02  0.45045681766E+02  0.00000000000E+00 0. -1.
         11    1    3    3    0    0 -0.77845550946E+01 -0.10653593790E+02  0.79209252153E+01  0.15389587882E+02  0.51100000000E-03 0. -1.
        -11    1    3    3    0    0 -0.14600572697E+02 -0.16427658473E+02  0.14142357137E+02  0.26135243477E+02  0.51100000000E-03 0.  1.
         12    1    3    3    0    0 -0.16844181106E+01 -0.41097748772E+00  0.42796049081E+01  0.46174868744E+01  0.00000000000E+00 0. -1.
</event>
<event>
 7    1  0.2250716E-008  0.4614232E+02  0.7816164E-02  0.1320468E+00
        -11   -1    0    0    0    0  0.00000000000E+00  0.00000000000E+00  0.45593999997E+02  0.45594000000E+02  0.51100000000E-03 0. -1.
         11   -1    0    0    0    0 -0.00000000000E+00 -0.00000000000E+00 -0.45593999997E+02  0.45594000000E+02  0.51100000000E-03 0.  1.
    9900012    2    1    2    0    0 -0.26533412959E+02 -0.32031779469E+02  0.17293238824E+02  0.46142323090E+02  0.10000048597E+02 0.  0.
         12    1    1    2    0    0  0.26533412959E+02  0.32031779469E+02 -0.17293238824E+02  0.45045676910E+02  0.00000000000E+00 0. -1.
         11    1    3    3    0    0 -0.77919650803E+01 -0.11732326189E+02  0.55527157591E+01  0.15139182612E+02  0.51100000000E-03 0. -1.
        -11    1    3    3    0    0 -0.12975481666E+02 -0.18051613849E+02  0.73477193514E+01  0.23413945992E+02  0.51100000000E-03 0.  1.
         12    1    3    3    0    0 -0.57659662127E+01 -0.22478394319E+01  0.43928037133E+01  0.75891944856E+01  0.00000000000E+00 0. -1.
</event>
<event>
 7    1  0.2250716E-008  0.4614232E+02  0.7816164E-02  0.1320468E+00
        -11   -1    0    0    0    0  0.00000000000E+00  0.00000000000E+00  0.45593999997E+02  0.45594000000E+02  0.51100000000E-03 0. -1.
         11   -1    0    0    0    0 -0.00000000000E+00 -0.00000000000E+00 -0.45593999997E+02  0.45594000000E+02  0.51100000000E-03 0.  1.
    9900012    2    1    2    0    0 -0.53660636017E+01 -0.71459325523E+01 -0.44150361706E+02  0.46142318416E+02  0.10000005970E+02 0.  0.
         12    1    1    2    0    0  0.53660636017E+01  0.71459325523E+01  0.44150361706E+02  0.45045681584E+02  0.00000000000E+00 0. -1.
         11    1    3    3    0    0 -0.13657518601E+01  0.23331168801E-01 -0.19135534067E+01  0.23510655857E+01  0.51100000000E-03 0.  1.
        -11    1    3    3    0    0 -0.61541230381E+01 -0.37382251043E+01 -0.21850577012E+02  0.23006418089E+02  0.51100000000E-03 0. -1.
        -12    1    3    3    0    0  0.21538112965E+01 -0.34310386168E+01 -0.20386231288E+02  0.20784834741E+02  0.00000000000E+00 0.  1.
</event>
<event>
 7    1  0.2250716E-008  0.4614233E+02  0.7816164E-02  0.1320468E+00
        -11   -1    0    0    0    0  0.00000000000E+00  0.00000000000E+00  0.45593999997E+02  0.45594000000E+02  0.51100000000E-03 0.  1.
         11   -1    0    0    0    0 -0.00000000000E+00 -0.00000000000E+00 -0.45593999997E+02  0.45594000000E+02  0.51100000000E-03 0. -1.
    9900012    2    1    2    0    0 -0.13286425610E+02  0.26997849357E+02  0.33521630146E+02  0.46142326922E+02  0.10000083538E+02 0.  0.
         12    1    1    2    0    0  0.13286425610E+02 -0.26997849357E+02 -0.33521630146E+02  0.45045673078E+02  0.00000000000E+00 0. -1.
         11    1    3    3    0    0 -0.32179347263E+01  0.21076673278E+01  0.61007669068E+01  0.72122619600E+01  0.51100000000E-03 0.  1.
        -11    1    3    3    0    0 -0.84691882389E+01  0.14371198979E+02  0.13822147448E+02  0.21663570109E+02  0.51100000000E-03 0. -1.
        -12    1    3    3    0    0 -0.15993026446E+01  0.10518983050E+02  0.13598715791E+02  0.17266494854E+02  0.00000000000E+00 0.  1.
</event>
<event>
 7    1  0.2250716E-008  0.4614232E+02  0.7816164E-02  0.1320468E+00
        -11   -1    0    0    0    0  0.00000000000E+00  0.00000000000E+00  0.45593999997E+02  0.45594000000E+02  0.51100000000E-03 0.  1.
         11   -1    0    0    0    0 -0.00000000000E+00 -0.00000000000E+00 -0.45593999997E+02  0.45594000000E+02  0.51100000000E-03 0. -1.
    9900012    2    1    2    0    0 -0.44690145884E+02  0.63899484549E+00 -0.56121308081E+01  0.46142318012E+02  0.10000002285E+02 0.  0.
         12    1    1    2    0    0  0.44690145884E+02 -0.63899484549E+00  0.56121308081E+01  0.45045681988E+02  0.00000000000E+00 0. -1.
         11    1    3    3    0    0 -0.35445954301E+02 -0.13073317493E+01 -0.68479915910E+01  0.36125057532E+02  0.51100000000E-03 0. -1.
        -11    1    3    3    0    0 -0.64031336363E+01  0.15974218320E+00 -0.97791946017E-01  0.64058724195E+01  0.51100000000E-03 0.  1.
         12    1    3    3    0    0 -0.28410579476E+01  0.17865844116E+01  0.13336527289E+01  0.36113880604E+01  0.00000000000E+00 0. -1.
</event>
<event>
 7    1  0.2250716E-008  0.4614232E+02  0.7816164E-02  0.1320468E+00
        -11   -1    0    0    0    0  0.00000000000E+00  0.00000000000E+00  0.45593999997E+02  0.45594000000E+02  0.51100000000E-03 0. -1.
         11   -1    0    0    0    0 -0.00000000000E+00 -0.00000000000E+00 -0.45593999997E+02  0.45594000000E+02  0.51100000000E-03 0.  1.
    9900012    2    1    2    0    0  0.32282050646E+02  0.98701179333E+00 -0.31400771884E+02  0.46142318064E+02  0.10000002760E+02 0.  0.
         12    1    1    2    0    0 -0.32282050646E+02 -0.98701179333E+00  0.31400771884E+02  0.45045681936E+02  0.00000000000E+00 0. -1.
         11    1    3    3    0    0  0.69301932721E+01  0.10884926254E+00 -0.24138783712E+01  0.73393620978E+01  0.51100000000E-03 0. -1.
        -11    1    3    3    0    0  0.22735916583E+02  0.19979706311E+01 -0.24447248238E+02  0.33445204980E+02  0.51100000000E-03 0.  1.
         12    1    3    3    0    0  0.26159407912E+01 -0.11198081003E+01 -0.45396452750E+01  0.53577509860E+01  0.00000000000E+00 0. -1.
</event>
<event>
 7    1  0.2250716E-008  0.4614232E+02  0.7816164E-02  0.1320468E+00
        -11   -1    0    0    0    0  0.00000000000E+00  0.00000000000E+00  0.45593999997E+02  0.45594000000E+02  0.51100000000E-03 0.  1.
         11   -1    0    0    0    0 -0.00000000000E+00 -0.00000000000E+00 -0.45593999997E+02  0.45594000000E+02  0.51100000000E-03 0. -1.
    9900012    2    1    2    0    0  0.23552082657E+02  0.57157061460E+01  0.37970296936E+02  0.46142319368E+02  0.10000014651E+02 0.  0.
         12    1    1    2    0    0 -0.23552082657E+02 -0.57157061460E+01 -0.37970296936E+02  0.45045680632E+02  0.00000000000E+00 0. -1.
         11    1    3    3    0    0  0.16211340877E+01  0.22418921118E+01  0.48107648036E+01  0.55495598229E+01  0.51100000000E-03 0. -1.
        -11    1    3    3    0    0  0.69689371142E+01  0.13008887057E+01  0.17226037987E+02  0.18627795922E+02  0.51100000000E-03 0.  1.
         12    1    3    3    0    0  0.14962011455E+02  0.21729253285E+01  0.15933494145E+02  0.21964963623E+02  0.00000000000E+00 0. -1.
</event>
<event>
 7    1  0.2250716E-008  0.4614232E+02  0.7816164E-02  0.1320468E+00
        -11   -1    0    0    0    0  0.00000000000E+00  0.00000000000E+00  0.45593999997E+02  0.45594000000E+02  0.51100000000E-03 0. -1.
         11   -1    0    0    0    0 -0.00000000000E+00 -0.00000000000E+00 -0.45593999997E+02  0.45594000000E+02  0.51100000000E-03 0.  1.
    9900012    2    1    2    0    0  0.12309990964E+02  0.43177524795E+02 -0.36440548052E+01  0.46142315851E+02  0.99999825854E+01 0.  0.
         12    1    1    2    0    0 -0.12309990964E+02 -0.43177524795E+02  0.36440548052E+01  0.45045684149E+02  0.00000000000E+00 0. -1.
         11    1    3    3    0    0 -0.98628773554E+00  0.10033483190E+01 -0.58088332177E+00  0.15221356842E+01  0.51100000000E-03 0. -1.
        -11    1    3    3    0    0  0.76471738209E+01  0.20099933327E+02 -0.37211122631E+01  0.21825060456E+02  0.51100000000E-03 0.  1.
        -12    1    3    3    0    0  0.56491048791E+01  0.22074243150E+02  0.65794077959E+00  0.22795119711E+02  0.00000000000E+00 0.  1.
</event>
<event>
 7    1  0.2250716E-008  0.4614232E+02  0.7816164E-02  0.1320468E+00
        -11   -1    0    0    0    0  0.00000000000E+00  0.00000000000E+00  0.45593999997E+02  0.45594000000E+02  0.51100000000E-03 0.  1.
         11   -1    0    0    0    0 -0.00000000000E+00 -0.00000000000E+00 -0.45593999997E+02  0.45594000000E+02  0.51100000000E-03 0. -1.
    9900012    2    1    2    0    0  0.94886497852E+01  0.29637761183E+02  0.32568115803E+02  0.46142317303E+02  0.99999958244E+01 0.  0.
         12    1    1    2    0    0 -0.94886497852E+01 -0.29637761183E+02 -0.32568115803E+02  0.45045682697E+02  0.00000000000E+00 0. -1.
         11    1    3    3    0    0  0.14384255572E+01 -0.33289275055E+00  0.24054439649E+01  0.28224185722E+01  0.51100000000E-03 0. -1.
        -11    1    3    3    0    0  0.26262362392E+01  0.11950008203E+02  0.10826287641E+02  0.16337328949E+02  0.51100000000E-03 0.  1.
         12    1    3    3    0    0  0.54239879888E+01  0.18020645731E+02  0.19336384197E+02  0.26982569782E+02  0.00000000000E+00 0. -1.
</event>
<event>
 7    1  0.2250716E-008  0.4614232E+02  0.7816164E-02  0.1320468E+00
        -11   -1    0    0    0    0  0.00000000000E+00  0.00000000000E+00  0.45593999997E+02  0.45594000000E+02  0.51100000000E-03 0. -1.
         11   -1    0    0    0    0 -0.00000000000E+00 -0.00000000000E+00 -0.45593999997E+02  0.45594000000E+02  0.51100000000E-03 0.  1.
    9900012    2    1    2    0    0 -0.21746841041E+02  0.66344665106E+01 -0.38886660861E+02  0.46142316144E+02  0.99999852516E+01 0.  0.
         12    1    1    2    0    0  0.21746841041E+02 -0.66344665106E+01  0.38886660861E+02  0.45045683856E+02  0.00000000000E+00 0. -1.
         11    1    3    3    0    0 -0.49896868031E+01  0.43682028591E+01 -0.13221142129E+02  0.14791104424E+02  0.51100000000E-03 0. -1.
        -11    1    3    3    0    0 -0.12913377236E+02  0.19390914248E+01 -0.14378195828E+02  0.19422870610E+02  0.51100000000E-03 0.  1.
        -12    1    3    3    0    0 -0.38437770020E+01  0.32717222667E+00 -0.11287322904E+02  0.11928341111E+02  0.00000000000E+00 0.  1.
</event>
<event>
 7    1  0.2250716E-008  0.4614232E+02  0.7816164E-02  0.1320468E+00
        -11   -1    0    0    0    0  0.00000000000E+00  0.00000000000E+00  0.45593999997E+02  0.45594000000E+02  0.51100000000E-03 0.  1.
         11   -1    0    0    0    0 -0.00000000000E+00 -0.00000000000E+00 -0.45593999997E+02  0.45594000000E+02  0.51100000000E-03 0. -1.
    9900012    2    1    2    0    0  0.44943912625E+02 -0.29573255179E+01 -0.64219878620E+00  0.46142317903E+02  0.10000001294E+02 0.  0.
         12    1    1    2    0    0 -0.44943912625E+02  0.29573255179E+01  0.64219878620E+00  0.45045682097E+02  0.00000000000E+00 0. -1.
         11    1    3    3    0    0  0.25849800883E+02 -0.53830904273E+01 -0.18177289316E+01  0.26466847318E+02  0.51100000000E-03 0. -1.
        -11    1    3    3    0    0  0.46545978557E+01 -0.59381927320E+00 -0.90139839954E+00  0.47781190717E+01  0.51100000000E-03 0.  1.
        -12    1    3    3    0    0  0.14439513887E+02  0.30195841826E+01  0.20769285450E+01  0.14897351513E+02  0.00000000000E+00 0.  1.
</event>
<event>
 7    1  0.2250716E-008  0.4614232E+02  0.7816164E-02  0.1320468E+00
        -11   -1    0    0    0    0  0.00000000000E+00  0.00000000000E+00  0.45593999997E+02  0.45594000000E+02  0.51100000000E-03 0. -1.
         11   -1    0    0    0    0 -0.00000000000E+00 -0.00000000000E+00 -0.45593999997E+02  0.45594000000E+02  0.51100000000E-03 0.  1.
    9900012    2    1    2    0    0  0.24303443806E+02  0.28193329392E+02 -0.25369121823E+02  0.46142317132E+02  0.99999942609E+01 0.  0.
         12    1    1    2    0    0 -0.24303443806E+02 -0.28193329392E+02  0.25369121823E+02  0.45045682868E+02  0.00000000000E+00 0. -1.
         11    1    3    3    0    0  0.12449713381E+02  0.12132874246E+02 -0.16735276480E+02  0.24130302109E+02  0.51100000000E-03 0. -1.
        -11    1    3    3    0    0  0.70557028966E+01  0.71428522819E+01 -0.52855489584E+01  0.11346378724E+02  0.51100000000E-03 0.  1.
        -12    1    3    3    0    0  0.47980275283E+01  0.89176028634E+01 -0.33482963845E+01  0.10665636299E+02  0.00000000000E+00 0.  1.
</event>
<event>
 7    1  0.2250716E-008  0.4614232E+02  0.7816164E-02  0.1320468E+00
        -11   -1    0    0    0    0  0.00000000000E+00  0.00000000000E+00  0.45593999997E+02  0.45594000000E+02  0.51100000000E-03 0.  1.
         11   -1    0    0    0    0 -0.00000000000E+00 -0.00000000000E+00 -0.45593999997E+02  0.45594000000E+02  0.51100000000E-03 0. -1.
    9900012    2    1    2    0    0 -0.18104064625E+02 -0.26390756867E+01  0.41162988416E+02  0.46142317723E+02  0.99999996529E+01 0.  0.
         12    1    1    2    0    0  0.18104064625E+02  0.26390756867E+01 -0.41162988416E+02  0.45045682277E+02  0.00000000000E+00 0. -1.
         11    1    3    3    0    0 -0.24473832418E+01 -0.28821665276E+01  0.79718608809E+01  0.88231023336E+01  0.51100000000E-03 0. -1.
        -11    1    3    3    0    0 -0.13694378242E+02 -0.22452988065E+01  0.27603833057E+02  0.30895775794E+02  0.51100000000E-03 0.  1.
        -12    1    3    3    0    0 -0.19623031410E+01  0.24883896473E+01  0.55872944782E+01  0.64234395957E+01  0.00000000000E+00 0.  1.
</event>
<event>
 7    1  0.2250716E-008  0.4614232E+02  0.7816164E-02  0.1320468E+00
        -11   -1    0    0    0    0  0.00000000000E+00  0.00000000000E+00  0.45593999997E+02  0.45594000000E+02  0.51100000000E-03 0. -1.
         11   -1    0    0    0    0 -0.00000000000E+00 -0.00000000000E+00 -0.45593999997E+02  0.45594000000E+02  0.51100000000E-03 0.  1.
    9900012    2    1    2    0    0 -0.38606494879E+02 -0.22986480394E+02 -0.32052226677E+01  0.46142321183E+02  0.10000031203E+02 0.  0.
         12    1    1    2    0    0  0.38606494879E+02  0.22986480394E+02  0.32052226677E+01  0.45045678817E+02  0.00000000000E+00 0. -1.
         11    1    3    3    0    0  0.26189626949E+00  0.28444586375E+00 -0.44719141456E+00  0.59116793532E+00  0.51100000000E-03 0. -1.
        -11    1    3    3    0    0 -0.12236958120E+02 -0.56024005314E+01 -0.17901897327E+01  0.13576995812E+02  0.51100000000E-03 0.  1.
        -12    1    3    3    0    0 -0.26631433029E+02 -0.17668525727E+02 -0.96784152049E+00  0.31974157436E+02  0.00000000000E+00 0.  1.
</event>
<event>
 7    1  0.2250716E-008  0.4614232E+02  0.7816164E-02  0.1320468E+00
        -11   -1    0    0    0    0  0.00000000000E+00  0.00000000000E+00  0.45593999997E+02  0.45594000000E+02  0.51100000000E-03 0.  1.
         11   -1    0    0    0    0 -0.00000000000E+00 -0.00000000000E+00 -0.45593999997E+02  0.45594000000E+02  0.51100000000E-03 0. -1.
    9900012    2    1    2    0    0  0.14095519299E+02 -0.33798089917E+02  0.26232021568E+02  0.46142317611E+02  0.99999986274E+01 0.  0.
         12    1    1    2    0    0 -0.14095519299E+02  0.33798089917E+02 -0.26232021568E+02  0.45045682389E+02  0.00000000000E+00 0. -1.
         11    1    3    3    0    0  0.68990714808E+01 -0.18137309295E+02  0.15830885114E+02  0.25043484172E+02  0.51100000000E-03 0. -1.
        -11    1    3    3    0    0  0.39712661269E+01 -0.14299204403E+02  0.80673266373E+01  0.16891416771E+02  0.51100000000E-03 0.  1.
         12    1    3    3    0    0  0.32251816916E+01 -0.13615762196E+01  0.23338098173E+01  0.42074166669E+01  0.00000000000E+00 0. -1.
</event>
<event>
 7    1  0.2250716E-008  0.4614232E+02  0.7816164E-02  0.1320468E+00
        -11   -1    0    0    0    0  0.00000000000E+00  0.00000000000E+00  0.45593999997E+02  0.45594000000E+02  0.51100000000E-03 0.  1.
         11   -1    0    0    0    0 -0.00000000000E+00 -0.00000000000E+00 -0.45593999997E+02  0.45594000000E+02  0.51100000000E-03 0. -1.
    9900012    2    1    2    0    0 -0.31106736449E+02  0.29304272413E+02 -0.14238815725E+02  0.46142319769E+02  0.10000018314E+02 0.  0.
         12    1    1    2    0    0  0.31106736449E+02 -0.29304272413E+02  0.14238815725E+02  0.45045680231E+02  0.00000000000E+00 0. -1.
         11    1    3    3    0    0 -0.72699490993E+01  0.74099715628E+01 -0.62782305124E+01  0.12131612304E+02  0.51100000000E-03 0. -1.
        -11    1    3    3    0    0 -0.22132581137E+02  0.21595837982E+02 -0.87084861092E+01  0.32125832231E+02  0.51100000000E-03 0.  1.
        -12    1    3    3    0    0 -0.17042062131E+01  0.29846286782E+00  0.74790089617E+00  0.18848752348E+01  0.00000000000E+00 0.  1.
</event>
<event>
 7    1  0.2250716E-008  0.4614232E+02  0.7816164E-02  0.1320468E+00
        -11   -1    0    0    0    0  0.00000000000E+00  0.00000000000E+00  0.45593999997E+02  0.45594000000E+02  0.51100000000E-03 0.  1.
         11   -1    0    0    0    0 -0.00000000000E+00 -0.00000000000E+00 -0.45593999997E+02  0.45594000000E+02  0.51100000000E-03 0. -1.
    9900012    2    1    2    0    0 -0.68558580023E+01  0.37736199503E+02 -0.23623929767E+02  0.46142316527E+02  0.99999887459E+01 0.  0.
         12    1    1    2    0    0  0.68558580023E+01 -0.37736199503E+02  0.23623929767E+02  0.45045683473E+02  0.00000000000E+00 0. -1.
         11    1    3    3    0    0 -0.14082927753E+01  0.19172057528E+02 -0.13042607749E+02  0.23230598261E+02  0.51100000000E-03 0. -1.
        -11    1    3    3    0    0 -0.29072921092E+01  0.23048325160E+01 -0.30986908519E+01  0.48338892821E+01  0.51100000000E-03 0.  1.
        -12    1    3    3    0    0 -0.25402731178E+01  0.16259309459E+02 -0.74826311669E+01  0.18077828984E+02  0.00000000000E+00 0.  1.
</event>
<event>
 7    1  0.2250716E-008  0.4614232E+02  0.7816164E-02  0.1320468E+00
        -11   -1    0    0    0    0  0.00000000000E+00  0.00000000000E+00  0.45593999997E+02  0.45594000000E+02  0.51100000000E-03 0.  1.
         11   -1    0    0    0    0 -0.00000000000E+00 -0.00000000000E+00 -0.45593999997E+02  0.45594000000E+02  0.51100000000E-03 0. -1.
    9900012    2    1    2    0    0  0.33115441810E+02  0.30532992618E+02  0.46621279214E+00  0.46142317866E+02  0.10000000959E+02 0.  0.
         12    1    1    2    0    0 -0.33115441810E+02 -0.30532992618E+02 -0.46621279214E+00  0.45045682134E+02  0.00000000000E+00 0. -1.
         11    1    3    3    0    0  0.25705382627E+01  0.31827327712E+01  0.73067925001E+00  0.41558810474E+01  0.51100000000E-03 0. -1.
        -11    1    3    3    0    0  0.17164694537E+02  0.14979290267E+02  0.43388337317E+01  0.23191191299E+02  0.51100000000E-03 0.  1.
         12    1    3    3    0    0  0.13380209010E+02  0.12370969580E+02 -0.46033001896E+01  0.18795245520E+02  0.00000000000E+00 0. -1.
</event>
<event>
 7    1  0.2250716E-008  0.4614232E+02  0.7816164E-02  0.1320468E+00
        -11   -1    0    0    0    0  0.00000000000E+00  0.00000000000E+00  0.45593999997E+02  0.45594000000E+02  0.51100000000E-03 0.  1.
         11   -1    0    0    0    0 -0.00000000000E+00 -0.00000000000E+00 -0.45593999997E+02  0.45594000000E+02  0.51100000000E-03 0. -1.
    9900012    2    1    2    0    0 -0.41850869771E+02  0.54170201205E+01  0.15756716927E+02  0.46142317233E+02  0.99999951868E+01 0.  0.
         12    1    1    2    0    0  0.41850869771E+02 -0.54170201205E+01 -0.15756716927E+02  0.45045682767E+02  0.00000000000E+00 0. -1.
         11    1    3    3    0    0 -0.17174313772E+02  0.48695023746E+01  0.59661134980E+01  0.18821891973E+02  0.51100000000E-03 0. -1.
        -11    1    3    3    0    0 -0.17007188710E+02  0.32775933295E+01  0.58976706350E+01  0.18296710224E+02  0.51100000000E-03 0.  1.
         12    1    3    3    0    0 -0.76693672896E+01 -0.27300755836E+01  0.38929327937E+01  0.90237150360E+01  0.00000000000E+00 0. -1.
</event>
<event>
 7    1  0.2250716E-008  0.4614232E+02  0.7816164E-02  0.1320468E+00
        -11   -1    0    0    0    0  0.00000000000E+00  0.00000000000E+00  0.45593999997E+02  0.45594000000E+02  0.51100000000E-03 0.  1.
         11   -1    0    0    0    0 -0.00000000000E+00 -0.00000000000E+00 -0.45593999997E+02  0.45594000000E+02  0.51100000000E-03 0. -1.
    9900012    2    1    2    0    0  0.86917688302E+01  0.13407089050E+02  0.42116699115E+02  0.46142320667E+02  0.10000026502E+02 0.  0.
         12    1    1    2    0    0 -0.86917688302E+01 -0.13407089050E+02 -0.42116699115E+02  0.45045679333E+02  0.00000000000E+00 0. -1.
         11    1    3    3    0    0  0.63705857740E+01  0.57418556443E+01  0.11236669963E+02  0.14135629503E+02  0.51100000000E-03 0. -1.
        -11    1    3    3    0    0 -0.37665564457E+00  0.26739315093E+01  0.11530348927E+02  0.11842327720E+02  0.51100000000E-03 0.  1.
         12    1    3    3    0    0  0.26978387008E+01  0.49913018962E+01  0.19349680225E+02  0.20164363444E+02  0.00000000000E+00 0. -1.
</event>
<event>
 7    1  0.2250716E-008  0.4614232E+02  0.7816164E-02  0.1320468E+00
        -11   -1    0    0    0    0  0.00000000000E+00  0.00000000000E+00  0.45593999997E+02  0.45594000000E+02  0.51100000000E-03 0.  1.
         11   -1    0    0    0    0 -0.00000000000E+00 -0.00000000000E+00 -0.45593999997E+02  0.45594000000E+02  0.51100000000E-03 0. -1.
    9900012    2    1    2    0    0  0.37309474218E+02  0.14152335317E+02  0.20900428745E+02  0.46142318930E+02  0.10000010659E+02 0.  0.
         12    1    1    2    0    0 -0.37309474218E+02 -0.14152335317E+02 -0.20900428745E+02  0.45045681070E+02  0.00000000000E+00 0. -1.
         11    1    3    3    0    0  0.13239925326E+02  0.58677587196E+01  0.59338489323E+01  0.15650456174E+02  0.51100000000E-03 0.  1.
        -11    1    3    3    0    0  0.22322670543E+02  0.63051495389E+01  0.15362973324E+02  0.27822247941E+02  0.51100000000E-03 0. -1.
        -12    1    3    3    0    0  0.17468783492E+01  0.19794270586E+01 -0.39639351146E+00  0.26696148155E+01  0.00000000000E+00 0.  1.
</event>
<event>
 7    1  0.2250716E-008  0.4614232E+02  0.7816164E-02  0.1320468E+00
        -11   -1    0    0    0    0  0.00000000000E+00  0.00000000000E+00  0.45593999997E+02  0.45594000000E+02  0.51100000000E-03 0.  1.
         11   -1    0    0    0    0 -0.00000000000E+00 -0.00000000000E+00 -0.45593999997E+02  0.45594000000E+02  0.51100000000E-03 0. -1.
    9900012    2    1    2    0    0 -0.39503774926E+02  0.13058564782E+02  0.17263807316E+02  0.46142318846E+02  0.10000009897E+02 0.  0.
         12    1    1    2    0    0  0.39503774926E+02 -0.13058564782E+02 -0.17263807316E+02  0.45045681154E+02  0.00000000000E+00 0. -1.
         11    1    3    3    0    0 -0.72533308014E+01  0.50851280906E+01  0.11959322060E+01  0.89386570308E+01  0.51100000000E-03 0. -1.
        -11    1    3    3    0    0 -0.12937580288E+02  0.55958290903E+01  0.68400959322E+01  0.15667839658E+02  0.51100000000E-03 0.  1.
        -12    1    3    3    0    0 -0.19312863836E+02  0.23776076009E+01  0.92277791783E+01  0.21535822158E+02  0.00000000000E+00 0.  1.
</event>
<event>
 7    1  0.2250716E-008  0.4614232E+02  0.7816164E-02  0.1320468E+00
        -11   -1    0    0    0    0  0.00000000000E+00  0.00000000000E+00  0.45593999997E+02  0.45594000000E+02  0.51100000000E-03 0.  1.
         11   -1    0    0    0    0 -0.00000000000E+00 -0.00000000000E+00 -0.45593999997E+02  0.45594000000E+02  0.51100000000E-03 0. -1.
    9900012    2    1    2    0    0  0.56281861245E+01 -0.38543424871E+02  0.22623911358E+02  0.46142318243E+02  0.10000004394E+02 0.  0.
         12    1    1    2    0    0 -0.56281861245E+01  0.38543424871E+02 -0.22623911358E+02  0.45045681757E+02  0.00000000000E+00 0. -1.
         11    1    3    3    0    0  0.17617904220E+01 -0.21608502636E+02  0.87126464904E+01  0.23365391090E+02  0.51100000000E-03 0. -1.
        -11    1    3    3    0    0  0.23103256530E+01 -0.15758768991E+02  0.11350409258E+02  0.19557816732E+02  0.51100000000E-03 0.  1.
         12    1    3    3    0    0  0.15560700496E+01 -0.11761532443E+01  0.25608556092E+01  0.32191104213E+01  0.00000000000E+00 0. -1.
</event>
<event>
 7    1  0.2250716E-008  0.4614232E+02  0.7816164E-02  0.1320468E+00
        -11   -1    0    0    0    0  0.00000000000E+00  0.00000000000E+00  0.45593999997E+02  0.45594000000E+02  0.51100000000E-03 0. -1.
         11   -1    0    0    0    0 -0.00000000000E+00 -0.00000000000E+00 -0.45593999997E+02  0.45594000000E+02  0.51100000000E-03 0.  1.
    9900012    2    1    2    0    0 -0.33349906559E+02 -0.30213386226E+02  0.20120576797E+01  0.46142319288E+02  0.10000013923E+02 0.  0.
         12    1    1    2    0    0  0.33349906559E+02  0.30213386226E+02 -0.20120576797E+01  0.45045680712E+02  0.00000000000E+00 0. -1.
         11    1    3    3    0    0 -0.50375468828E+01 -0.58073256146E+01 -0.59493763250E+00  0.77107626366E+01  0.51100000000E-03 0. -1.
        -11    1    3    3    0    0 -0.20042066838E+02 -0.13315893382E+02 -0.11702486121E+01  0.24090806167E+02  0.51100000000E-03 0.  1.
        -12    1    3    3    0    0 -0.82702928384E+01 -0.11090167229E+02  0.37772439243E+01  0.14340750485E+02  0.00000000000E+00 0.  1.
</event>
<event>
 7    1  0.2250716E-008  0.4614232E+02  0.7816164E-02  0.1320468E+00
        -11   -1    0    0    0    0  0.00000000000E+00  0.00000000000E+00  0.45593999997E+02  0.45594000000E+02  0.51100000000E-03 0.  1.
         11   -1    0    0    0    0 -0.00000000000E+00 -0.00000000000E+00 -0.45593999997E+02  0.45594000000E+02  0.51100000000E-03 0. -1.
    9900012    2    1    2    0    0  0.68361308650E+01  0.17137966678E+02  0.41093441814E+02  0.46142317108E+02  0.99999940466E+01 0.  0.
         12    1    1    2    0    0 -0.68361308650E+01 -0.17137966678E+02 -0.41093441814E+02  0.45045682892E+02  0.00000000000E+00 0. -1.
         11    1    3    3    0    0  0.46381652246E+01  0.44252199570E+01  0.17454705895E+02  0.18594674143E+02  0.51100000000E-03 0. -1.
        -11    1    3    3    0    0 -0.11043104411E+01  0.28738165121E+00  0.10210642624E+01  0.15312290007E+01  0.51100000000E-03 0.  1.
        -12    1    3    3    0    0  0.33022760815E+01  0.12425365069E+02  0.22617671657E+02  0.26016413965E+02  0.00000000000E+00 0.  1.
</event>
<event>
 7    1  0.2250716E-008  0.4614232E+02  0.7816164E-02  0.1320468E+00
        -11   -1    0    0    0    0  0.00000000000E+00  0.00000000000E+00  0.45593999997E+02  0.45594000000E+02  0.51100000000E-03 0.  1.
         11   -1    0    0    0    0 -0.00000000000E+00 -0.00000000000E+00 -0.45593999997E+02  0.45594000000E+02  0.51100000000E-03 0. -1.
    9900012    2    1    2    0    0  0.27755305292E+01  0.37160255618E+02  0.25308604182E+02  0.46142316378E+02  0.99999873869E+01 0.  0.
         12    1    1    2    0    0 -0.27755305292E+01 -0.37160255618E+02 -0.25308604182E+02  0.45045683622E+02  0.00000000000E+00 0. -1.
         11    1    3    3    0    0  0.38882136372E+01  0.63748405778E+01  0.35164185307E+01  0.82536051047E+01  0.51100000000E-03 0. -1.
        -11    1    3    3    0    0 -0.37268602661E+00  0.28799159278E+02  0.19591665982E+02  0.34833372594E+02  0.51100000000E-03 0.  1.
         12    1    3    3    0    0 -0.73999708137E+00  0.19862557620E+01  0.22005196692E+01  0.30553386796E+01  0.00000000000E+00 0. -1.
</event>
<event>
 7    1  0.2250716E-008  0.4614232E+02  0.7816164E-02  0.1320468E+00
        -11   -1    0    0    0    0  0.00000000000E+00  0.00000000000E+00  0.45593999997E+02  0.45594000000E+02  0.51100000000E-03 0. -1.
         11   -1    0    0    0    0 -0.00000000000E+00 -0.00000000000E+00 -0.45593999997E+02  0.45594000000E+02  0.51100000000E-03 0.  1.
    9900012    2    1    2    0    0 -0.36922598107E+02 -0.42586205166E+01 -0.25449937904E+02  0.46142318309E+02  0.10000004992E+02 0.  0.
         12    1    1    2    0    0  0.36922598107E+02  0.42586205166E+01  0.25449937904E+02  0.45045681691E+02  0.00000000000E+00 0. -1.
         11    1    3    3    0    0 -0.10883125539E+02 -0.38088137164E+01 -0.55768529084E+01  0.12808230637E+02  0.51100000000E-03 0. -1.
        -11    1    3    3    0    0 -0.24006082638E+02 -0.14396069040E+01 -0.16119017757E+02  0.28951462922E+02  0.51100000000E-03 0.  1.
         12    1    3    3    0    0 -0.20333899305E+01  0.98980010384E+00 -0.37540672392E+01  0.43826247491E+01  0.00000000000E+00 0. -1.
</event>
<event>
 7    1  0.2250716E-008  0.4614232E+02  0.7816164E-02  0.1320468E+00
        -11   -1    0    0    0    0  0.00000000000E+00  0.00000000000E+00  0.45593999997E+02  0.45594000000E+02  0.51100000000E-03 0.  1.
         11   -1    0    0    0    0 -0.00000000000E+00 -0.00000000000E+00 -0.45593999997E+02  0.45594000000E+02  0.51100000000E-03 0. -1.
    9900012    2    1    2    0    0  0.19139579005E+02  0.39808176898E+02  0.88373788060E+01  0.46142315450E+02  0.99999789221E+01 0.  0.
         12    1    1    2    0    0 -0.19139579005E+02 -0.39808176898E+02 -0.88373788060E+01  0.45045684550E+02  0.00000000000E+00 0. -1.
         11    1    3    3    0    0  0.10693694490E+02  0.14159972249E+02  0.15587255973E+01  0.17812623100E+02  0.51100000000E-03 0. -1.
        -11    1    3    3    0    0  0.81117716157E+01  0.22664388211E+02  0.77529657845E+01  0.25289994275E+02  0.51100000000E-03 0.  1.
         12    1    3    3    0    0  0.33411289917E+00  0.29838164378E+01 -0.47431257574E+00  0.30396980744E+01  0.00000000000E+00 0. -1.
</event>
<event>
 7    1  0.2250716E-008  0.4614232E+02  0.7816164E-02  0.1320468E+00
        -11   -1    0    0    0    0  0.00000000000E+00  0.00000000000E+00  0.45593999997E+02  0.45594000000E+02  0.51100000000E-03 0. -1.
         11   -1    0    0    0    0 -0.00000000000E+00 -0.00000000000E+00 -0.45593999997E+02  0.45594000000E+02  0.51100000000E-03 0.  1.
    9900012    2    1    2    0    0  0.71064876852E+00 -0.44157514926E+02  0.88725629725E+01  0.46142317412E+02  0.99999968132E+01 0.  0.
         12    1    1    2    0    0 -0.71064876852E+00  0.44157514926E+02 -0.88725629725E+01  0.45045682588E+02  0.00000000000E+00 0. -1.
         11    1    3    3    0    0 -0.30277634684E+01 -0.31213471735E+02  0.37717731136E+01  0.31585984899E+02  0.51100000000E-03 0. -1.
        -11    1    3    3    0    0  0.23261625218E+01 -0.95833181105E+01  0.45824237468E+01  0.10874264377E+02  0.51100000000E-03 0.  1.
        -12    1    3    3    0    0  0.14122497152E+01 -0.33607250812E+01  0.51836611212E+00  0.36820681357E+01  0.00000000000E+00 0.  1.
</event>
<event>
 7    1  0.2250716E-008  0.4614232E+02  0.7816164E-02  0.1320468E+00
        -11   -1    0    0    0    0  0.00000000000E+00  0.00000000000E+00  0.45593999997E+02  0.45594000000E+02  0.51100000000E-03 0. -1.
         11   -1    0    0    0    0 -0.00000000000E+00 -0.00000000000E+00 -0.45593999997E+02  0.45594000000E+02  0.51100000000E-03 0.  1.
    9900012    2    1    2    0    0  0.10440149231E+02 -0.42767123520E+02  0.95441075204E+01  0.46142316982E+02  0.99999928988E+01 0.  0.
         12    1    1    2    0    0 -0.10440149231E+02  0.42767123520E+02 -0.95441075204E+01  0.45045683018E+02  0.00000000000E+00 0. -1.
         11    1    3    3    0    0  0.43168001033E+01 -0.25416349616E+02  0.80384894188E+01  0.27004497835E+02  0.51100000000E-03 0. -1.
        -11    1    3    3    0    0  0.66514158611E+01 -0.12657801042E+02  0.17683591780E+01  0.14407926798E+02  0.51100000000E-03 0.  1.
         12    1    3    3    0    0 -0.52806673308E+00 -0.46929728626E+01 -0.26274107640E+00  0.47298923494E+01  0.00000000000E+00 0. -1.
</event>
<event>
 7    1  0.2250716E-008  0.4614232E+02  0.7816164E-02  0.1320468E+00
        -11   -1    0    0    0    0  0.00000000000E+00  0.00000000000E+00  0.45593999997E+02  0.45594000000E+02  0.51100000000E-03 0.  1.
         11   -1    0    0    0    0 -0.00000000000E+00 -0.00000000000E+00 -0.45593999997E+02  0.45594000000E+02  0.51100000000E-03 0. -1.
    9900012    2    1    2    0    0  0.40877797079E+02 -0.17967942574E+02  0.59390412712E+01  0.46142318013E+02  0.10000002300E+02 0.  0.
         12    1    1    2    0    0 -0.40877797079E+02  0.17967942574E+02 -0.59390412712E+01  0.45045681987E+02  0.00000000000E+00 0. -1.
         11    1    3    3    0    0  0.15526650086E+02 -0.60765460578E+01  0.18603820825E+01  0.16776838100E+02  0.51100000000E-03 0.  1.
        -11    1    3    3    0    0  0.56122252266E+01 -0.65558358221E+01  0.14210026697E+01  0.87461593954E+01  0.51100000000E-03 0. -1.
         12    1    3    3    0    0  0.19738921767E+02 -0.53355606945E+01  0.26576565190E+01  0.20619320518E+02  0.00000000000E+00 0. -1.
</event>
<event>
 7    1  0.2250716E-008  0.4614232E+02  0.7816164E-02  0.1320468E+00
        -11   -1    0    0    0    0  0.00000000000E+00  0.00000000000E+00  0.45593999997E+02  0.45594000000E+02  0.51100000000E-03 0.  1.
         11   -1    0    0    0    0 -0.00000000000E+00 -0.00000000000E+00 -0.45593999997E+02  0.45594000000E+02  0.51100000000E-03 0. -1.
    9900012    2    1    2    0    0 -0.74820969626E+01 -0.10945095982E+02  0.43050395819E+02  0.46142317841E+02  0.10000000729E+02 0.  0.
         12    1    1    2    0    0  0.74820969626E+01  0.10945095982E+02 -0.43050395819E+02  0.45045682159E+02  0.00000000000E+00 0. -1.
         11    1    3    3    0    0 -0.33043136995E+00 -0.12318822668E+01  0.75165541335E+01  0.76239953511E+01  0.51100000000E-03 0. -1.
        -11    1    3    3    0    0  0.68992372355E+00 -0.55843103504E+01  0.18206779815E+02  0.19056425381E+02  0.51100000000E-03 0.  1.
         12    1    3    3    0    0 -0.78415893162E+01 -0.41289033647E+01  0.17327061870E+02  0.19461897108E+02  0.00000000000E+00 0. -1.
</event>
<event>
 7    1  0.2250716E-008  0.4614232E+02  0.7816164E-02  0.1320468E+00
        -11   -1    0    0    0    0  0.00000000000E+00  0.00000000000E+00  0.45593999997E+02  0.45594000000E+02  0.51100000000E-03 0. -1.
         11   -1    0    0    0    0 -0.00000000000E+00 -0.00000000000E+00 -0.45593999997E+02  0.45594000000E+02  0.51100000000E-03 0.  1.
    9900012    2    1    2    0    0 -0.12375151132E+01 -0.39662734940E+02 -0.21317820825E+02  0.46142317950E+02  0.10000001725E+02 0.  0.
         12    1    1    2    0    0  0.12375151132E+01  0.39662734940E+02  0.21317820825E+02  0.45045682050E+02  0.00000000000E+00 0. -1.
         11    1    3    3    0    0 -0.23545990229E+01 -0.19828707413E+02 -0.83715183337E+01  0.21651884300E+02  0.51100000000E-03 0. -1.
        -11    1    3    3    0    0 -0.18149680296E+01 -0.14319965736E+02 -0.10161532536E+02  0.17652542915E+02  0.51100000000E-03 0.  1.
         12    1    3    3    0    0  0.29320519393E+01 -0.55140617913E+01 -0.27847699547E+01  0.68378907357E+01  0.00000000000E+00 0. -1.
</event>
<event>
 7    1  0.2250716E-008  0.4614232E+02  0.7816164E-02  0.1320468E+00
        -11   -1    0    0    0    0  0.00000000000E+00  0.00000000000E+00  0.45593999997E+02  0.45594000000E+02  0.51100000000E-03 0. -1.
         11   -1    0    0    0    0 -0.00000000000E+00 -0.00000000000E+00 -0.45593999997E+02  0.45594000000E+02  0.51100000000E-03 0.  1.
    9900012    2    1    2    0    0  0.22531463384E+02  0.34857733487E+02  0.17503858541E+02  0.46142317744E+02  0.99999998449E+01 0.  0.
         12    1    1    2    0    0 -0.22531463384E+02 -0.34857733487E+02 -0.17503858541E+02  0.45045682256E+02  0.00000000000E+00 0. -1.
         11    1    3    3    0    0  0.57758338579E+01  0.10538582126E+02  0.71406006351E+01  0.13978917972E+02  0.51100000000E-03 0.  1.
        -11    1    3    3    0    0  0.17950434426E+01 -0.10380817725E+00  0.80132323247E+00  0.19685213442E+01  0.51100000000E-03 0. -1.
         12    1    3    3    0    0  0.14960586084E+02  0.24422959538E+02  0.95619346732E+01  0.30194878428E+02  0.00000000000E+00 0. -1.
</event>
<event>
 7    1  0.2250716E-008  0.4614232E+02  0.7816164E-02  0.1320468E+00
        -11   -1    0    0    0    0  0.00000000000E+00  0.00000000000E+00  0.45593999997E+02  0.45594000000E+02  0.51100000000E-03 0. -1.
         11   -1    0    0    0    0 -0.00000000000E+00 -0.00000000000E+00 -0.45593999997E+02  0.45594000000E+02  0.51100000000E-03 0.  1.
    9900012    2    1    2    0    0 -0.31815125605E+02 -0.21297704464E+02 -0.23734343847E+02  0.46142317515E+02  0.99999977546E+01 0.  0.
         12    1    1    2    0    0  0.31815125605E+02  0.21297704464E+02  0.23734343847E+02  0.45045682485E+02  0.00000000000E+00 0. -1.
         11    1    3    3    0    0 -0.13014585648E+02 -0.93304047861E+01 -0.90440298072E+01  0.18391040440E+02  0.51100000000E-03 0. -1.
        -11    1    3    3    0    0 -0.12565656713E+02 -0.10562362720E+02 -0.72560605580E+01  0.17947413461E+02  0.51100000000E-03 0.  1.
         12    1    3    3    0    0 -0.62348832436E+01 -0.14049369581E+01 -0.74342534819E+01  0.98038636134E+01  0.00000000000E+00 0. -1.
</event>
<event>
 7    1  0.2250716E-008  0.4614232E+02  0.7816164E-02  0.1320468E+00
        -11   -1    0    0    0    0  0.00000000000E+00  0.00000000000E+00  0.45593999997E+02  0.45594000000E+02  0.51100000000E-03 0. -1.
         11   -1    0    0    0    0 -0.00000000000E+00 -0.00000000000E+00 -0.45593999997E+02  0.45594000000E+02  0.51100000000E-03 0.  1.
    9900012    2    1    2    0    0 -0.48618260884E+01 -0.44685809016E+02 -0.29418435176E+01  0.46142319590E+02  0.10000016678E+02 0.  0.
         12    1    1    2    0    0  0.48618260884E+01  0.44685809016E+02  0.29418435176E+01  0.45045680410E+02  0.00000000000E+00 0. -1.
         11    1    3    3    0    0  0.15539101926E+01 -0.35724172013E+01  0.23532333027E+00  0.39028424101E+01  0.51100000000E-03 0. -1.
        -11    1    3    3    0    0 -0.56473433801E+00 -0.22992513530E+02 -0.45608240964E+00  0.23003969543E+02  0.51100000000E-03 0.  1.
        -12    1    3    3    0    0 -0.58510019431E+01 -0.18120878285E+02 -0.27210844382E+01  0.19235507637E+02  0.00000000000E+00 0.  1.
</event>
<event>
 7    1  0.2250716E-008  0.4614232E+02  0.7816164E-02  0.1320468E+00
        -11   -1    0    0    0    0  0.00000000000E+00  0.00000000000E+00  0.45593999997E+02  0.45594000000E+02  0.51100000000E-03 0. -1.
         11   -1    0    0    0    0 -0.00000000000E+00 -0.00000000000E+00 -0.45593999997E+02  0.45594000000E+02  0.51100000000E-03 0.  1.
    9900012    2    1    2    0    0  0.11739000406E+02 -0.22882252318E+02 -0.36982586030E+02  0.46142320173E+02  0.10000021992E+02 0.  0.
         12    1    1    2    0    0 -0.11739000406E+02  0.22882252318E+02  0.36982586030E+02  0.45045679827E+02  0.00000000000E+00 0. -1.
         11    1    3    3    0    0  0.57614599781E+01 -0.44723571885E+01 -0.10167888027E+02  0.12513286822E+02  0.51100000000E-03 0. -1.
        -11    1    3    3    0    0  0.49090982850E+01 -0.18254627350E+02 -0.23596212825E+02  0.30234283944E+02  0.51100000000E-03 0.  1.
        -12    1    3    3    0    0  0.10684421426E+01 -0.15526777891E+00 -0.32184851785E+01  0.33947494074E+01  0.00000000000E+00 0.  1.
</event>
<event>
 7    1  0.2250716E-008  0.4614232E+02  0.7816164E-02  0.1320468E+00
        -11   -1    0    0    0    0  0.00000000000E+00  0.00000000000E+00  0.45593999997E+02  0.45594000000E+02  0.51100000000E-03 0.  1.
         11   -1    0    0    0    0 -0.00000000000E+00 -0.00000000000E+00 -0.45593999997E+02  0.45594000000E+02  0.51100000000E-03 0. -1.
    9900012    2    1    2    0    0  0.62280626041E+01 -0.43654500883E+02  0.91983304583E+01  0.46142317694E+02  0.99999993892E+01 0.  0.
         12    1    1    2    0    0 -0.62280626041E+01  0.43654500883E+02 -0.91983304583E+01  0.45045682306E+02  0.00000000000E+00 0. -1.
         11    1    3    3    0    0 -0.74473294678E+00 -0.93460544129E+01  0.22177322077E+01  0.96344017280E+01  0.51100000000E-03 0. -1.
        -11    1    3    3    0    0 -0.16862070999E+01 -0.56717387414E+01  0.11338530106E+01  0.60247437825E+01  0.51100000000E-03 0.  1.
        -12    1    3    3    0    0  0.86590026509E+01 -0.28636707729E+02  0.58467452401E+01  0.30483172184E+02  0.00000000000E+00 0.  1.
</event>
<event>
 7    1  0.2250716E-008  0.4614232E+02  0.7816164E-02  0.1320468E+00
        -11   -1    0    0    0    0  0.00000000000E+00  0.00000000000E+00  0.45593999997E+02  0.45594000000E+02  0.51100000000E-03 0. -1.
         11   -1    0    0    0    0 -0.00000000000E+00 -0.00000000000E+00 -0.45593999997E+02  0.45594000000E+02  0.51100000000E-03 0.  1.
    9900012    2    1    2    0    0  0.16344857822E+02  0.33294353908E+02 -0.25562572987E+02  0.46142317442E+02  0.99999970889E+01 0.  0.
         12    1    1    2    0    0 -0.16344857822E+02 -0.33294353908E+02  0.25562572987E+02  0.45045682558E+02  0.00000000000E+00 0. -1.
         11    1    3    3    0    0  0.21758975490E+01  0.80986857746E+01 -0.28930512988E+01  0.88709068025E+01  0.51100000000E-03 0. -1.
        -11    1    3    3    0    0  0.37307180644E+00 -0.26941703697E+00  0.47996058122E-01  0.46267914940E+00  0.51100000000E-03 0.  1.
        -12    1    3    3    0    0  0.13795888467E+02  0.25465085171E+02 -0.22717517747E+02  0.36808731490E+02  0.00000000000E+00 0.  1.
</event>
<event>
 7    1  0.2250716E-008  0.4614231E+02  0.7816164E-02  0.1320468E+00
        -11   -1    0    0    0    0  0.00000000000E+00  0.00000000000E+00  0.45593999997E+02  0.45594000000E+02  0.51100000000E-03 0. -1.
         11   -1    0    0    0    0 -0.00000000000E+00 -0.00000000000E+00 -0.45593999997E+02  0.45594000000E+02  0.51100000000E-03 0.  1.
    9900012    2    1    2    0    0  0.13369715804E+02 -0.32255875397E+02 -0.28459145626E+02  0.46142314656E+02  0.99999716883E+01 0.  0.
         12    1    1    2    0    0 -0.13369715804E+02  0.32255875397E+02  0.28459145626E+02  0.45045685344E+02  0.00000000000E+00 0. -1.
         11    1    3    3    0    0  0.12135679838E+01 -0.14695499728E+01 -0.82533229937E+00  0.20768962514E+01  0.51100000000E-03 0. -1.
        -11    1    3    3    0    0  0.46937225832E+01 -0.23244145592E+02 -0.19214393479E+02  0.30520718422E+02  0.51100000000E-03 0.  1.
         12    1    3    3    0    0  0.74624252374E+01 -0.75421798319E+01 -0.84194198479E+01  0.13544699982E+02  0.00000000000E+00 0. -1.
</event>
<event>
 7    1  0.2250716E-008  0.4614232E+02  0.7816164E-02  0.1320468E+00
        -11   -1    0    0    0    0  0.00000000000E+00  0.00000000000E+00  0.45593999997E+02  0.45594000000E+02  0.51100000000E-03 0.  1.
         11   -1    0    0    0    0 -0.00000000000E+00 -0.00000000000E+00 -0.45593999997E+02  0.45594000000E+02  0.51100000000E-03 0. -1.
    9900012    2    1    2    0    0  0.20666674340E+02  0.25290908011E+01  0.39945033865E+02  0.46142318087E+02  0.10000002972E+02 0.  0.
         12    1    1    2    0    0 -0.20666674340E+02 -0.25290908011E+01 -0.39945033865E+02  0.45045681913E+02  0.00000000000E+00 0. -1.
         11    1    3    3    0    0  0.42965446818E+01  0.46161500799E+01  0.84416706554E+01  0.10537122068E+02  0.51100000000E-03 0. -1.
        -11    1    3    3    0    0  0.44124014541E+01 -0.97831238431E+00  0.72890582171E+01  0.85765232855E+01  0.51100000000E-03 0.  1.
         12    1    3    3    0    0  0.11957728204E+02 -0.11087468945E+01  0.24214304992E+02  0.27028672733E+02  0.00000000000E+00 0. -1.
</event>
<event>
 7    1  0.2250716E-008  0.4614232E+02  0.7816164E-02  0.1320468E+00
        -11   -1    0    0    0    0  0.00000000000E+00  0.00000000000E+00  0.45593999997E+02  0.45594000000E+02  0.51100000000E-03 0.  1.
         11   -1    0    0    0    0 -0.00000000000E+00 -0.00000000000E+00 -0.45593999997E+02  0.45594000000E+02  0.51100000000E-03 0. -1.
    9900012    2    1    2    0    0 -0.59082781627E+01 -0.17949349799E+02  0.40890422953E+02  0.46142316541E+02  0.99999888721E+01 0.  0.
         12    1    1    2    0    0  0.59082781627E+01  0.17949349799E+02 -0.40890422953E+02  0.45045683459E+02  0.00000000000E+00 0. -1.
         11    1    3    3    0    0 -0.28583260854E+01 -0.12441336812E+02  0.27017436900E+02  0.29881412058E+02  0.51100000000E-03 0.  1.
        -11    1    3    3    0    0 -0.14164643975E+01 -0.28281225061E+01  0.12394281363E+02  0.12791515120E+02  0.51100000000E-03 0. -1.
        -12    1    3    3    0    0 -0.16334876798E+01 -0.26798904807E+01  0.14787046894E+01  0.34693893623E+01  0.00000000000E+00 0.  1.
</event>
<event>
 7    1  0.2250716E-008  0.4614232E+02  0.7816164E-02  0.1320468E+00
        -11   -1    0    0    0    0  0.00000000000E+00  0.00000000000E+00  0.45593999997E+02  0.45594000000E+02  0.51100000000E-03 0. -1.
         11   -1    0    0    0    0 -0.00000000000E+00 -0.00000000000E+00 -0.45593999997E+02  0.45594000000E+02  0.51100000000E-03 0.  1.
    9900012    2    1    2    0    0  0.15211478482E+02 -0.32195342571E+02 -0.27589571517E+02  0.46142316329E+02  0.99999869433E+01 0.  0.
         12    1    1    2    0    0 -0.15211478482E+02  0.32195342571E+02  0.27589571517E+02  0.45045683671E+02  0.00000000000E+00 0. -1.
         11    1    3    3    0    0  0.13242921023E+02 -0.21348512490E+02 -0.16790553000E+02  0.30216826654E+02  0.51100000000E-03 0. -1.
        -11    1    3    3    0    0  0.26333008841E+01 -0.58155626917E+01 -0.43774206581E+01  0.77405978352E+01  0.51100000000E-03 0.  1.
         12    1    3    3    0    0 -0.66474342526E+00 -0.50312673895E+01 -0.64215978589E+01  0.81848918397E+01  0.00000000000E+00 0. -1.
</event>
<event>
 7    1  0.2250716E-008  0.4614232E+02  0.7816164E-02  0.1320468E+00
        -11   -1    0    0    0    0  0.00000000000E+00  0.00000000000E+00  0.45593999997E+02  0.45594000000E+02  0.51100000000E-03 0.  1.
         11   -1    0    0    0    0 -0.00000000000E+00 -0.00000000000E+00 -0.45593999997E+02  0.45594000000E+02  0.51100000000E-03 0. -1.
    9900012    2    1    2    0    0  0.56610085094E+01 -0.39059965879E+02  0.21711411003E+02  0.46142319635E+02  0.10000017088E+02 0.  0.
         12    1    1    2    0    0 -0.56610085094E+01  0.39059965879E+02 -0.21711411003E+02  0.45045680365E+02  0.00000000000E+00 0. -1.
         11    1    3    3    0    0  0.22814178780E+01 -0.21724053145E+01  0.86076455944E+00  0.32657507977E+01  0.51100000000E-03 0. -1.
        -11    1    3    3    0    0  0.68494425233E+00 -0.57919207967E+01  0.10851943422E+01  0.59323808176E+01  0.51100000000E-03 0.  1.
        -12    1    3    3    0    0  0.26946463791E+01 -0.31095639768E+02  0.19765452101E+02  0.36944188020E+02  0.00000000000E+00 0.  1.
</event>
<event>
 7    1  0.2250716E-008  0.4614232E+02  0.7816164E-02  0.1320468E+00
        -11   -1    0    0    0    0  0.00000000000E+00  0.00000000000E+00  0.45593999997E+02  0.45594000000E+02  0.51100000000E-03 0. -1.
         11   -1    0    0    0    0 -0.00000000000E+00 -0.00000000000E+00 -0.45593999997E+02  0.45594000000E+02  0.51100000000E-03 0.  1.
    9900012    2    1    2    0    0 -0.14863816190E+02  0.42326214221E+02  0.40831362517E+01  0.46142318257E+02  0.10000004524E+02 0.  0.
         12    1    1    2    0    0  0.14863816190E+02 -0.42326214221E+02 -0.40831362517E+01  0.45045681743E+02  0.00000000000E+00 0. -1.
         11    1    3    3    0    0  0.15749154736E+00  0.45489190879E+01 -0.29238303067E+00  0.45610258225E+01  0.51100000000E-03 0. -1.
        -11    1    3    3    0    0 -0.79000478785E+01  0.16856195832E+02 -0.16101846133E+01  0.18685148893E+02  0.51100000000E-03 0.  1.
        -12    1    3    3    0    0 -0.71212598587E+01  0.20921099301E+02  0.59857038957E+01  0.22896143541E+02  0.00000000000E+00 0.  1.
</event>
<event>
 7    1  0.2250716E-008  0.4614232E+02  0.7816164E-02  0.1320468E+00
        -11   -1    0    0    0    0  0.00000000000E+00  0.00000000000E+00  0.45593999997E+02  0.45594000000E+02  0.51100000000E-03 0.  1.
         11   -1    0    0    0    0 -0.00000000000E+00 -0.00000000000E+00 -0.45593999997E+02  0.45594000000E+02  0.51100000000E-03 0. -1.
    9900012    2    1    2    0    0 -0.29650869461E+02 -0.33888965531E+02 -0.12154899248E+01  0.46142318073E+02  0.10000002841E+02 0.  0.
         12    1    1    2    0    0  0.29650869461E+02  0.33888965531E+02  0.12154899248E+01  0.45045681927E+02  0.00000000000E+00 0. -1.
         11    1    3    3    0    0 -0.13519972372E+02 -0.14874655196E+02  0.32196721193E+01  0.20357094806E+02  0.51100000000E-03 0. -1.
        -11    1    3    3    0    0 -0.94673003448E+01 -0.12862975186E+02 -0.72796276766E+00  0.15987990384E+02  0.51100000000E-03 0.  1.
         12    1    3    3    0    0 -0.66635967441E+01 -0.61513351484E+01 -0.37071992764E+01  0.97972328823E+01  0.00000000000E+00 0. -1.
</event>
<event>
 7    1  0.2250716E-008  0.4614232E+02  0.7816164E-02  0.1320468E+00
        -11   -1    0    0    0    0  0.00000000000E+00  0.00000000000E+00  0.45593999997E+02  0.45594000000E+02  0.51100000000E-03 0.  1.
         11   -1    0    0    0    0 -0.00000000000E+00 -0.00000000000E+00 -0.45593999997E+02  0.45594000000E+02  0.51100000000E-03 0. -1.
    9900012    2    1    2    0    0 -0.29807926504E+02  0.32392172700E+02  0.95576155897E+01  0.46142319292E+02  0.10000013960E+02 0.  0.
         12    1    1    2    0    0  0.29807926504E+02 -0.32392172700E+02 -0.95576155897E+01  0.45045680708E+02  0.00000000000E+00 0. -1.
         11    1    3    3    0    0 -0.16749166796E+02  0.19189597017E+02  0.36224197947E+01  0.25727361844E+02  0.51100000000E-03 0. -1.
        -11    1    3    3    0    0 -0.55811547454E+01  0.19664343822E+01  0.78693182259E+00  0.59695405540E+01  0.51100000000E-03 0.  1.
        -12    1    3    3    0    0 -0.74776049624E+01  0.11236141301E+02  0.51482639724E+01  0.14445416894E+02  0.00000000000E+00 0.  1.
</event>
<event>
 7    1  0.2250716E-008  0.4614232E+02  0.7816164E-02  0.1320468E+00
        -11   -1    0    0    0    0  0.00000000000E+00  0.00000000000E+00  0.45593999997E+02  0.45594000000E+02  0.51100000000E-03 0.  1.
         11   -1    0    0    0    0 -0.00000000000E+00 -0.00000000000E+00 -0.45593999997E+02  0.45594000000E+02  0.51100000000E-03 0. -1.
    9900012    2    1    2    0    0  0.37498366620E+02 -0.18246342991E+01  0.24892904575E+02  0.46142317769E+02  0.10000000071E+02 0.  0.
         12    1    1    2    0    0 -0.37498366620E+02  0.18246342991E+01 -0.24892904575E+02  0.45045682231E+02  0.00000000000E+00 0. -1.
         11    1    3    3    0    0  0.86640543187E+01 -0.12655948473E+01  0.42079531081E+01  0.97146506461E+01  0.51100000000E-03 0. -1.
        -11    1    3    3    0    0  0.22343049107E+02  0.30598241849E+01  0.15391644718E+02  0.27303426430E+02  0.51100000000E-03 0.  1.
        -12    1    3    3    0    0  0.64912631937E+01 -0.36188636367E+01  0.52933067491E+01  0.91242406923E+01  0.00000000000E+00 0.  1.
</event>
<event>
 7    1  0.2250716E-008  0.4614231E+02  0.7816164E-02  0.1320468E+00
        -11   -1    0    0    0    0  0.00000000000E+00  0.00000000000E+00  0.45593999997E+02  0.45594000000E+02  0.51100000000E-03 0.  1.
         11   -1    0    0    0    0 -0.00000000000E+00 -0.00000000000E+00 -0.45593999997E+02  0.45594000000E+02  0.51100000000E-03 0. -1.
    9900012    2    1    2    0    0 -0.80726345883E+00  0.43572865674E+02  0.11395944272E+02  0.46142313823E+02  0.99999640853E+01 0.  0.
         12    1    1    2    0    0  0.80726345883E+00 -0.43572865674E+02 -0.11395944272E+02  0.45045686177E+02  0.00000000000E+00 0. -1.
         11    1    3    3    0    0  0.84083982377E+00  0.20023958397E+02  0.43413433460E+01  0.20506418112E+02  0.51100000000E-03 0. -1.
        -11    1    3    3    0    0  0.67411572868E+00  0.79349019805E+01 -0.80074650218E+00  0.80036427131E+01  0.51100000000E-03 0.  1.
        -12    1    3    3    0    0 -0.23222190113E+01  0.15614005297E+02  0.78553474282E+01  0.17632252998E+02  0.00000000000E+00 0.  1.
</event>
<event>
 7    1  0.2590277E-008  0.4614232E+02  0.7816164E-02  0.1320468E+00
        -11   -1    0    0    0    0  0.00000000000E+00  0.00000000000E+00  0.45593999997E+02  0.45594000000E+02  0.51100000000E-03 0.  1.
         11   -1    0    0    0    0 -0.00000000000E+00 -0.00000000000E+00 -0.45593999997E+02  0.45594000000E+02  0.51100000000E-03 0. -1.
    9900012    2    1    2    0    0 -0.40524168398E+02  0.15290917077E+02 -0.12373079586E+02  0.46142317989E+02  0.10000002079E+02 0.  0.
         12    1    1    2    0    0  0.40524168398E+02 -0.15290917077E+02  0.12373079586E+02  0.45045682011E+02  0.00000000000E+00 0. -1.
         11    1    3    3    0    0 -0.23039056961E+01  0.11281076642E+01 -0.28103529203E+01  0.38050876673E+01  0.51100000000E-03 0. -1.
        -11    1    3    3    0    0 -0.17702658292E+02  0.86931048014E+01 -0.70987195152E+01  0.20960582070E+02  0.51100000000E-03 0.  1.
        -12    1    3    3    0    0 -0.20517604409E+02  0.54697046117E+01 -0.24640071500E+01  0.21376648252E+02  0.00000000000E+00 0.  1.
</event>
<event>
 7    1  0.2250716E-008  0.4614232E+02  0.7816164E-02  0.1320468E+00
        -11   -1    0    0    0    0  0.00000000000E+00  0.00000000000E+00  0.45593999997E+02  0.45594000000E+02  0.51100000000E-03 0. -1.
         11   -1    0    0    0    0 -0.00000000000E+00 -0.00000000000E+00 -0.45593999997E+02  0.45594000000E+02  0.51100000000E-03 0.  1.
    9900012    2    1    2    0    0 -0.35486008044E+02 -0.15663429967E+02  0.22902263880E+02  0.46142317676E+02  0.99999992250E+01 0.  0.
         12    1    1    2    0    0  0.35486008044E+02  0.15663429967E+02 -0.22902263880E+02  0.45045682324E+02  0.00000000000E+00 0. -1.
         11    1    3    3    0    0 -0.20600052336E+00  0.57319084381E+00  0.54983569509E+00  0.82055073686E+00  0.51100000000E-03 0. -1.
        -11    1    3    3    0    0 -0.57111249681E+01 -0.65588781688E+00  0.15497554012E+01  0.59538961440E+01  0.51100000000E-03 0.  1.
        -12    1    3    3    0    0 -0.29568882552E+02 -0.15580732994E+02  0.20802672784E+02  0.39367870795E+02  0.00000000000E+00 0.  1.
</event>
<event>
 7    1  0.2250716E-008  0.4614232E+02  0.7816164E-02  0.1320468E+00
        -11   -1    0    0    0    0  0.00000000000E+00  0.00000000000E+00  0.45593999997E+02  0.45594000000E+02  0.51100000000E-03 0.  1.
         11   -1    0    0    0    0 -0.00000000000E+00 -0.00000000000E+00 -0.45593999997E+02  0.45594000000E+02  0.51100000000E-03 0. -1.
    9900012    2    1    2    0    0  0.29569732298E+02 -0.33981396047E+02 -0.95455312095E-01  0.46142318107E+02  0.10000003153E+02 0.  0.
         12    1    1    2    0    0 -0.29569732298E+02  0.33981396047E+02  0.95455312095E-01  0.45045681893E+02  0.00000000000E+00 0. -1.
         11    1    3    3    0    0  0.79584512300E+01 -0.15116344759E+02  0.10265441826E+01  0.17114164253E+02  0.51100000000E-03 0. -1.
        -11    1    3    3    0    0  0.13600917483E+02 -0.91108455473E+01 -0.18377887705E+00  0.16371506891E+02  0.51100000000E-03 0.  1.
        -12    1    3    3    0    0  0.80103635850E+01 -0.97542057409E+01 -0.93822061764E+00  0.12656646962E+02  0.00000000000E+00 0.  1.
</event>
<event>
 7    1  0.2250716E-008  0.4614232E+02  0.7816164E-02  0.1320468E+00
        -11   -1    0    0    0    0  0.00000000000E+00  0.00000000000E+00  0.45593999997E+02  0.45594000000E+02  0.51100000000E-03 0. -1.
         11   -1    0    0    0    0 -0.00000000000E+00 -0.00000000000E+00 -0.45593999997E+02  0.45594000000E+02  0.51100000000E-03 0.  1.
    9900012    2    1    2    0    0 -0.40926056223E+02  0.75787032680E+00 -0.18804176736E+02  0.46142317542E+02  0.99999980001E+01 0.  0.
         12    1    1    2    0    0  0.40926056223E+02 -0.75787032680E+00  0.18804176736E+02  0.45045682458E+02  0.00000000000E+00 0. -1.
         11    1    3    3    0    0 -0.83534369088E+01  0.99983011401E+00 -0.23140066249E+01  0.87254911247E+01  0.51100000000E-03 0. -1.
        -11    1    3    3    0    0 -0.40816911090E+01 -0.16875193633E+01 -0.49753954838E+01  0.66530056660E+01  0.51100000000E-03 0.  1.
        -12    1    3    3    0    0 -0.28490928205E+02  0.14455595760E+01 -0.11514774627E+02  0.30763820751E+02  0.00000000000E+00 0.  1.
</event>
<event>
 7    1  0.2250716E-008  0.4614232E+02  0.7816164E-02  0.1320468E+00
        -11   -1    0    0    0    0  0.00000000000E+00  0.00000000000E+00  0.45593999997E+02  0.45594000000E+02  0.51100000000E-03 0. -1.
         11   -1    0    0    0    0 -0.00000000000E+00 -0.00000000000E+00 -0.45593999997E+02  0.45594000000E+02  0.51100000000E-03 0.  1.
    9900012    2    1    2    0    0  0.42505039556E+02 -0.14691764727E+02 -0.25665791864E+01  0.46142315776E+02  0.99999818973E+01 0.  0.
         12    1    1    2    0    0 -0.42505039556E+02  0.14691764727E+02  0.25665791864E+01  0.45045684224E+02  0.00000000000E+00 0. -1.
         11    1    3    3    0    0  0.10153476001E+02 -0.25894246918E+01 -0.42339007266E+01  0.11301509225E+02  0.51100000000E-03 0. -1.
        -11    1    3    3    0    0  0.15306107220E+02 -0.75511503595E+01 -0.43805921784E+00  0.17073039745E+02  0.51100000000E-03 0.  1.
         12    1    3    3    0    0  0.17045456335E+02 -0.45511896760E+01  0.21053807580E+01  0.17767766806E+02  0.00000000000E+00 0. -1.
</event>
<event>
 7    1  0.2250716E-008  0.4614232E+02  0.7816164E-02  0.1320468E+00
        -11   -1    0    0    0    0  0.00000000000E+00  0.00000000000E+00  0.45593999997E+02  0.45594000000E+02  0.51100000000E-03 0.  1.
         11   -1    0    0    0    0 -0.00000000000E+00 -0.00000000000E+00 -0.45593999997E+02  0.45594000000E+02  0.51100000000E-03 0. -1.
    9900012    2    1    2    0    0 -0.16690382817E+01 -0.30933038567E+02  0.32702826434E+02  0.46142318514E+02  0.10000006869E+02 0.  0.
         12    1    1    2    0    0  0.16690382817E+01  0.30933038567E+02 -0.32702826434E+02  0.45045681486E+02  0.00000000000E+00 0. -1.
         11    1    3    3    0    0 -0.11992714532E+01 -0.10277571923E+02  0.58161443903E+01  0.11869889320E+02  0.51100000000E-03 0. -1.
        -11    1    3    3    0    0 -0.19337846171E+00 -0.73126012313E+01  0.13588003889E+02  0.15431959757E+02  0.51100000000E-03 0.  1.
        -12    1    3    3    0    0 -0.27638836682E+00 -0.13342865412E+02  0.13298678155E+02  0.18840469437E+02  0.00000000000E+00 0.  1.
</event>
<event>
 7    1  0.2250716E-008  0.4614232E+02  0.7816164E-02  0.1320468E+00
        -11   -1    0    0    0    0  0.00000000000E+00  0.00000000000E+00  0.45593999997E+02  0.45594000000E+02  0.51100000000E-03 0.  1.
         11   -1    0    0    0    0 -0.00000000000E+00 -0.00000000000E+00 -0.45593999997E+02  0.45594000000E+02  0.51100000000E-03 0. -1.
    9900012    2    1    2    0    0  0.62404875086E+01 -0.42199857854E+02 -0.14468643457E+02  0.46142319510E+02  0.10000015952E+02 0.  0.
         12    1    1    2    0    0 -0.62404875086E+01  0.42199857854E+02  0.14468643457E+02  0.45045680490E+02  0.00000000000E+00 0. -1.
         11    1    3    3    0    0  0.54121374015E+01 -0.13427001203E+02 -0.47440150643E+01  0.15234213854E+02  0.51100000000E-03 0. -1.
        -11    1    3    3    0    0  0.17612594764E+01 -0.21744840260E+02 -0.49798292424E+01  0.22377194025E+02  0.51100000000E-03 0.  1.
        -12    1    3    3    0    0 -0.93290936928E+00 -0.70280163907E+01 -0.47447991506E+01  0.85309116312E+01  0.00000000000E+00 0.  1.
</event>
<event>
 7    1  0.2250716E-008  0.4614232E+02  0.7816164E-02  0.1320468E+00
        -11   -1    0    0    0    0  0.00000000000E+00  0.00000000000E+00  0.45593999997E+02  0.45594000000E+02  0.51100000000E-03 0.  1.
         11   -1    0    0    0    0 -0.00000000000E+00 -0.00000000000E+00 -0.45593999997E+02  0.45594000000E+02  0.51100000000E-03 0. -1.
    9900012    2    1    2    0    0  0.20910158277E+02  0.43819102556E+01  0.39656999421E+02  0.46142318079E+02  0.10000002900E+02 0.  0.
         12    1    1    2    0    0 -0.20910158277E+02 -0.43819102556E+01 -0.39656999421E+02  0.45045681921E+02  0.00000000000E+00 0. -1.
         11    1    3    3    0    0  0.13938858400E+01  0.14627895999E+01  0.37719727567E+01  0.42790711477E+01  0.51100000000E-03 0. -1.
        -11    1    3    3    0    0  0.15469612093E+02  0.19447698006E+00  0.20241871484E+02  0.25477050085E+02  0.51100000000E-03 0.  1.
         12    1    3    3    0    0  0.40466603441E+01  0.27246436757E+01  0.15643155180E+02  0.16386196846E+02  0.00000000000E+00 0. -1.
</event>
<event>
 7    1  0.2250716E-008  0.4614232E+02  0.7816164E-02  0.1320468E+00
        -11   -1    0    0    0    0  0.00000000000E+00  0.00000000000E+00  0.45593999997E+02  0.45594000000E+02  0.51100000000E-03 0.  1.
         11   -1    0    0    0    0 -0.00000000000E+00 -0.00000000000E+00 -0.45593999997E+02  0.45594000000E+02  0.51100000000E-03 0. -1.
    9900012    2    1    2    0    0  0.13739680592E+02  0.35309353335E+01  0.42753563592E+02  0.46142317333E+02  0.99999960974E+01 0.  0.
         12    1    1    2    0    0 -0.13739680592E+02 -0.35309353335E+01 -0.42753563592E+02  0.45045682667E+02  0.00000000000E+00 0. -1.
         11    1    3    3    0    0  0.38789471002E+01  0.55854282174E+01  0.15417704352E+02  0.16850781783E+02  0.51100000000E-03 0.  1.
        -11    1    3    3    0    0  0.80926254166E+01 -0.11403969728E+01  0.24497969194E+02  0.25825212222E+02  0.51100000000E-03 0. -1.
         12    1    3    3    0    0  0.17681080752E+01 -0.91409591105E+00  0.28378900462E+01  0.34663233281E+01  0.00000000000E+00 0. -1.
</event>
<event>
 7    1  0.2250716E-008  0.4614232E+02  0.7816164E-02  0.1320468E+00
        -11   -1    0    0    0    0  0.00000000000E+00  0.00000000000E+00  0.45593999997E+02  0.45594000000E+02  0.51100000000E-03 0.  1.
         11   -1    0    0    0    0 -0.00000000000E+00 -0.00000000000E+00 -0.45593999997E+02  0.45594000000E+02  0.51100000000E-03 0. -1.
    9900012    2    1    2    0    0  0.25257637418E+02 -0.21061433873E+02  0.30782806918E+02  0.46142318226E+02  0.10000004243E+02 0.  0.
         12    1    1    2    0    0 -0.25257637418E+02  0.21061433873E+02 -0.30782806918E+02  0.45045681774E+02  0.00000000000E+00 0. -1.
         11    1    3    3    0    0  0.12089671041E+01 -0.34386756896E+00  0.19892815864E-01  0.12570769065E+01  0.51100000000E-03 0. -1.
        -11    1    3    3    0    0  0.18546914597E+02 -0.13604961556E+02  0.25983178915E+02  0.34701708990E+02  0.51100000000E-03 0.  1.
        -12    1    3    3    0    0  0.55017557164E+01 -0.71126047475E+01  0.47797351871E+01  0.10183532330E+02  0.00000000000E+00 0.  1.
</event>
<event>
 7    1  0.2250716E-008  0.4614232E+02  0.7816164E-02  0.1320468E+00
        -11   -1    0    0    0    0  0.00000000000E+00  0.00000000000E+00  0.45593999997E+02  0.45594000000E+02  0.51100000000E-03 0. -1.
         11   -1    0    0    0    0 -0.00000000000E+00 -0.00000000000E+00 -0.45593999997E+02  0.45594000000E+02  0.51100000000E-03 0.  1.
    9900012    2    1    2    0    0 -0.72039292826E+01  0.87751248304E-01 -0.44465817502E+02  0.46142320701E+02  0.10000026805E+02 0.  0.
         12    1    1    2    0    0  0.72039292826E+01 -0.87751248304E-01  0.44465817502E+02  0.45045679299E+02  0.00000000000E+00 0. -1.
         11    1    3    3    0    0 -0.36098963902E+01 -0.37532825474E+00 -0.63774473573E+01  0.73378510685E+01  0.51100000000E-03 0. -1.
        -11    1    3    3    0    0  0.13509777886E+01  0.17588174076E+01 -0.89224724867E+01  0.91939705892E+01  0.51100000000E-03 0.  1.
         12    1    3    3    0    0 -0.49450106809E+01 -0.12957379046E+01 -0.29165897658E+02  0.29610499043E+02  0.00000000000E+00 0. -1.
</event>
<event>
 7    1  0.2250716E-008  0.4614233E+02  0.7816164E-02  0.1320468E+00
        -11   -1    0    0    0    0  0.00000000000E+00  0.00000000000E+00  0.45593999997E+02  0.45594000000E+02  0.51100000000E-03 0.  1.
         11   -1    0    0    0    0 -0.00000000000E+00 -0.00000000000E+00 -0.45593999997E+02  0.45594000000E+02  0.51100000000E-03 0. -1.
    9900012    2    1    2    0    0  0.21301318493E+02 -0.77077066411E+01  0.38935301482E+02  0.46142327481E+02  0.10000088633E+02 0.  0.
         12    1    1    2    0    0 -0.21301318493E+02  0.77077066411E+01 -0.38935301482E+02  0.45045672519E+02  0.00000000000E+00 0. -1.
         11    1    3    3    0    0  0.99247950961E+01 -0.44080186562E+01  0.14217981424E+02  0.17890868682E+02  0.51100000000E-03 0. -1.
        -11    1    3    3    0    0  0.82224359200E+01 -0.23812827555E+01  0.99612217766E+01  0.13134112058E+02  0.51100000000E-03 0.  1.
         12    1    3    3    0    0  0.31540874771E+01 -0.91840522939E+00  0.14756098282E+02  0.15117346740E+02  0.00000000000E+00 0. -1.
</event>
<event>
 7    1  0.2250716E-008  0.4614232E+02  0.7816164E-02  0.1320468E+00
        -11   -1    0    0    0    0  0.00000000000E+00  0.00000000000E+00  0.45593999997E+02  0.45594000000E+02  0.51100000000E-03 0.  1.
         11   -1    0    0    0    0 -0.00000000000E+00 -0.00000000000E+00 -0.45593999997E+02  0.45594000000E+02  0.51100000000E-03 0. -1.
    9900012    2    1    2    0    0  0.52085402566E+01  0.42214719902E+02  0.14829094335E+02  0.46142317556E+02  0.99999981296E+01 0.  0.
         12    1    1    2    0    0 -0.52085402566E+01 -0.42214719902E+02 -0.14829094335E+02  0.45045682444E+02  0.00000000000E+00 0. -1.
         11    1    3    3    0    0  0.37704529015E+01  0.28332582934E+02  0.11001746888E+02  0.30626622498E+02  0.51100000000E-03 0. -1.
        -11    1    3    3    0    0  0.18889195375E+01  0.13859117016E+02  0.45108037829E+01  0.14696615002E+02  0.51100000000E-03 0.  1.
         12    1    3    3    0    0 -0.45083218240E+00  0.23019951901E-01 -0.68345633558E+00  0.81908005562E+00  0.00000000000E+00 0. -1.
</event>
<event>
 7    1  0.2250716E-008  0.4614232E+02  0.7816164E-02  0.1320468E+00
        -11   -1    0    0    0    0  0.00000000000E+00  0.00000000000E+00  0.45593999997E+02  0.45594000000E+02  0.51100000000E-03 0.  1.
         11   -1    0    0    0    0 -0.00000000000E+00 -0.00000000000E+00 -0.45593999997E+02  0.45594000000E+02  0.51100000000E-03 0. -1.
    9900012    2    1    2    0    0 -0.10637077121E+02 -0.31363961154E+02  0.30533064725E+02  0.46142317516E+02  0.99999977654E+01 0.  0.
         12    1    1    2    0    0  0.10637077121E+02  0.31363961154E+02 -0.30533064725E+02  0.45045682484E+02  0.00000000000E+00 0. -1.
         11    1    3    3    0    0 -0.74390544502E+01 -0.17377830564E+02  0.16457608537E+02  0.25063547340E+02  0.51100000000E-03 0. -1.
        -11    1    3    3    0    0 -0.49630419098E+01 -0.10797239790E+02  0.94066941566E+01  0.15155793193E+02  0.51100000000E-03 0.  1.
         12    1    3    3    0    0  0.17650192387E+01 -0.31888908000E+01  0.46687620311E+01  0.59229769837E+01  0.00000000000E+00 0. -1.
</event>
<event>
 7    1  0.2250716E-008  0.4614232E+02  0.7816164E-02  0.1320468E+00
        -11   -1    0    0    0    0  0.00000000000E+00  0.00000000000E+00  0.45593999997E+02  0.45594000000E+02  0.51100000000E-03 0. -1.
         11   -1    0    0    0    0 -0.00000000000E+00 -0.00000000000E+00 -0.45593999997E+02  0.45594000000E+02  0.51100000000E-03 0.  1.
    9900012    2    1    2    0    0  0.29404520269E+02 -0.33897437943E+02  0.39308143263E+01  0.46142318602E+02  0.10000007663E+02 0.  0.
         12    1    1    2    0    0 -0.29404520269E+02  0.33897437943E+02 -0.39308143263E+01  0.45045681398E+02  0.00000000000E+00 0. -1.
         11    1    3    3    0    0  0.64109096067E+00 -0.17160532695E+01  0.12859275451E+01  0.22381792502E+01  0.51100000000E-03 0. -1.
        -11    1    3    3    0    0  0.17516755656E+02 -0.22297531905E+02  0.48597435875E+01  0.28768624676E+02  0.51100000000E-03 0.  1.
        -12    1    3    3    0    0  0.11246673653E+02 -0.98838527686E+01 -0.22148568063E+01  0.15135514675E+02  0.00000000000E+00 0.  1.
</event>
<event>
 7    1  0.2250716E-008  0.4614232E+02  0.7816164E-02  0.1320468E+00
        -11   -1    0    0    0    0  0.00000000000E+00  0.00000000000E+00  0.45593999997E+02  0.45594000000E+02  0.51100000000E-03 0.  1.
         11   -1    0    0    0    0 -0.00000000000E+00 -0.00000000000E+00 -0.45593999997E+02  0.45594000000E+02  0.51100000000E-03 0. -1.
    9900012    2    1    2    0    0  0.24497425197E+02 -0.48842636570E+01  0.37485112308E+02  0.46142317438E+02  0.99999970518E+01 0.  0.
         12    1    1    2    0    0 -0.24497425197E+02  0.48842636570E+01 -0.37485112308E+02  0.45045682562E+02  0.00000000000E+00 0. -1.
         11    1    3    3    0    0  0.71885744417E+01 -0.23171592187E+01  0.17041606890E+02  0.18640311022E+02  0.51100000000E-03 0. -1.
        -11    1    3    3    0    0  0.17639006820E+02 -0.27447136184E+01  0.20425173897E+02  0.27126661119E+02  0.51100000000E-03 0.  1.
         12    1    3    3    0    0 -0.33015606443E+00  0.17760918009E+00  0.18331520921E-01  0.37534529755E+00  0.00000000000E+00 0. -1.
</event>
<event>
 7    1  0.2250716E-008  0.4614232E+02  0.7816164E-02  0.1320468E+00
        -11   -1    0    0    0    0  0.00000000000E+00  0.00000000000E+00  0.45593999997E+02  0.45594000000E+02  0.51100000000E-03 0.  1.
         11   -1    0    0    0    0 -0.00000000000E+00 -0.00000000000E+00 -0.45593999997E+02  0.45594000000E+02  0.51100000000E-03 0. -1.
    9900012    2    1    2    0    0  0.26842648664E+01  0.20699273989E+02  0.39918020127E+02  0.46142317051E+02  0.99999935206E+01 0.  0.
         12    1    1    2    0    0 -0.26842648664E+01 -0.20699273989E+02 -0.39918020127E+02  0.45045682949E+02  0.00000000000E+00 0. -1.
         11    1    3    3    0    0 -0.13661992532E+01  0.47078277704E+01  0.95220729886E+01  0.10709809381E+02  0.51100000000E-03 0. -1.
        -11    1    3    3    0    0  0.28755626013E+00  0.96490691527E+01  0.10750767641E+02  0.14448744902E+02  0.51100000000E-03 0.  1.
        -12    1    3    3    0    0  0.37629078594E+01  0.63423770663E+01  0.19645179497E+02  0.20983762768E+02  0.00000000000E+00 0.  1.
</event>
<event>
 7    1  0.2250716E-008  0.4614232E+02  0.7816164E-02  0.1320468E+00
        -11   -1    0    0    0    0  0.00000000000E+00  0.00000000000E+00  0.45593999997E+02  0.45594000000E+02  0.51100000000E-03 0.  1.
         11   -1    0    0    0    0 -0.00000000000E+00 -0.00000000000E+00 -0.45593999997E+02  0.45594000000E+02  0.51100000000E-03 0. -1.
    9900012    2    1    2    0    0 -0.35177258432E+01  0.32866871974E+02  0.30602415065E+02  0.46142317895E+02  0.10000001225E+02 0.  0.
         12    1    1    2    0    0  0.35177258432E+01 -0.32866871974E+02 -0.30602415065E+02  0.45045682105E+02  0.00000000000E+00 0. -1.
         11    1    3    3    0    0 -0.39134825742E+01  0.75203780742E+01  0.73429901207E+01  0.11215655862E+02  0.51100000000E-03 0. -1.
        -11    1    3    3    0    0  0.28820884266E+01  0.99121379587E+01  0.77780320429E+01  0.12924964036E+02  0.51100000000E-03 0.  1.
        -12    1    3    3    0    0 -0.24863316957E+01  0.15434355941E+02  0.15481392901E+02  0.22001697998E+02  0.00000000000E+00 0.  1.
</event>
<event>
 7    1  0.2250716E-008  0.4614232E+02  0.7816164E-02  0.1320468E+00
        -11   -1    0    0    0    0  0.00000000000E+00  0.00000000000E+00  0.45593999997E+02  0.45594000000E+02  0.51100000000E-03 0.  1.
         11   -1    0    0    0    0 -0.00000000000E+00 -0.00000000000E+00 -0.45593999997E+02  0.45594000000E+02  0.51100000000E-03 0. -1.
    9900012    2    1    2    0    0  0.56280963375E+01 -0.33736877064E+02  0.29313158383E+02  0.46142316557E+02  0.99999890219E+01 0.  0.
         12    1    1    2    0    0 -0.56280963375E+01  0.33736877064E+02 -0.29313158383E+02  0.45045683443E+02  0.00000000000E+00 0. -1.
         11    1    3    3    0    0  0.55607010223E+01 -0.30808127075E+02  0.24884343391E+02  0.39991156972E+02  0.51100000000E-03 0.  1.
        -11    1    3    3    0    0 -0.12565709716E+01 -0.17409290449E+01  0.11867055355E+01  0.24531764786E+01  0.51100000000E-03 0. -1.
        -12    1    3    3    0    0  0.13239662868E+01 -0.11878209445E+01  0.32421094572E+01  0.36979831067E+01  0.00000000000E+00 0.  1.
</event>
<event>
 7    1  0.2250716E-008  0.4614232E+02  0.7816164E-02  0.1320468E+00
        -11   -1    0    0    0    0  0.00000000000E+00  0.00000000000E+00  0.45593999997E+02  0.45594000000E+02  0.51100000000E-03 0.  1.
         11   -1    0    0    0    0 -0.00000000000E+00 -0.00000000000E+00 -0.45593999997E+02  0.45594000000E+02  0.51100000000E-03 0. -1.
    9900012    2    1    2    0    0 -0.10888294694E+02  0.42226939061E+02  0.11289115094E+02  0.46142318038E+02  0.10000002526E+02 0.  0.
         12    1    1    2    0    0  0.10888294694E+02 -0.42226939061E+02 -0.11289115094E+02  0.45045681962E+02  0.00000000000E+00 0. -1.
         11    1    3    3    0    0  0.12934544167E+01  0.53516093547E+01  0.14449289887E+01  0.56921495990E+01  0.51100000000E-03 0. -1.
        -11    1    3    3    0    0 -0.83611694142E+01  0.17915542042E+02  0.33786787883E+01  0.20057199985E+02  0.51100000000E-03 0.  1.
         12    1    3    3    0    0 -0.38205796964E+01  0.18959787664E+02  0.64655073171E+01  0.20392968454E+02  0.00000000000E+00 0. -1.
</event>
<event>
 7    1  0.2250716E-008  0.4614232E+02  0.7816164E-02  0.1320468E+00
        -11   -1    0    0    0    0  0.00000000000E+00  0.00000000000E+00  0.45593999997E+02  0.45594000000E+02  0.51100000000E-03 0.  1.
         11   -1    0    0    0    0 -0.00000000000E+00 -0.00000000000E+00 -0.45593999997E+02  0.45594000000E+02  0.51100000000E-03 0. -1.
    9900012    2    1    2    0    0  0.36623971449E+02  0.26218402220E+02  0.62733197253E+00  0.46142318242E+02  0.10000004381E+02 0.  0.
         12    1    1    2    0    0 -0.36623971449E+02 -0.26218402220E+02 -0.62733197253E+00  0.45045681758E+02  0.00000000000E+00 0. -1.
         11    1    3    3    0    0 -0.12527174716E+00  0.61082748588E+00 -0.65337034808E-01  0.62695487667E+00  0.51100000000E-03 0. -1.
        -11    1    3    3    0    0  0.45303802646E+01  0.35757514180E+00  0.57649651542E+00  0.45808900682E+01  0.51100000000E-03 0.  1.
        -12    1    3    3    0    0  0.32218862932E+02  0.25249999592E+02  0.11617249192E+00  0.40934473297E+02  0.00000000000E+00 0.  1.
</event>
<event>
 7    1  0.2250716E-008  0.4614232E+02  0.7816164E-02  0.1320468E+00
        -11   -1    0    0    0    0  0.00000000000E+00  0.00000000000E+00  0.45593999997E+02  0.45594000000E+02  0.51100000000E-03 0.  1.
         11   -1    0    0    0    0 -0.00000000000E+00 -0.00000000000E+00 -0.45593999997E+02  0.45594000000E+02  0.51100000000E-03 0. -1.
    9900012    2    1    2    0    0  0.29734987555E+02 -0.21725593816E+02  0.25941136447E+02  0.46142317946E+02  0.10000001682E+02 0.  0.
         12    1    1    2    0    0 -0.29734987555E+02  0.21725593816E+02 -0.25941136447E+02  0.45045682054E+02  0.00000000000E+00 0. -1.
         11    1    3    3    0    0  0.71063558579E+01 -0.39182150052E+01  0.54628490821E+01  0.97824037312E+01  0.51100000000E-03 0.  1.
        -11    1    3    3    0    0  0.12791514910E+02 -0.47620436159E+01  0.10438371606E+02  0.17183117154E+02  0.51100000000E-03 0. -1.
         12    1    3    3    0    0  0.98371167876E+01 -0.13045335195E+02  0.10039915759E+02  0.19176797060E+02  0.00000000000E+00 0. -1.
</event>
<event>
 7    1  0.2250716E-008  0.4614232E+02  0.7816164E-02  0.1320468E+00
        -11   -1    0    0    0    0  0.00000000000E+00  0.00000000000E+00  0.45593999997E+02  0.45594000000E+02  0.51100000000E-03 0. -1.
         11   -1    0    0    0    0 -0.00000000000E+00 -0.00000000000E+00 -0.45593999997E+02  0.45594000000E+02  0.51100000000E-03 0.  1.
    9900012    2    1    2    0    0  0.36392722329E+02 -0.18618787386E+02  0.18921515706E+02  0.46142320531E+02  0.10000025254E+02 0.  0.
         12    1    1    2    0    0 -0.36392722329E+02  0.18618787386E+02 -0.18921515706E+02  0.45045679469E+02  0.00000000000E+00 0. -1.
         11    1    3    3    0    0  0.55110975095E+01 -0.21129154300E+00  0.42014415335E+01  0.69331775613E+01  0.51100000000E-03 0. -1.
        -11    1    3    3    0    0  0.18033364247E+02 -0.13611565818E+02  0.99690662024E+01  0.24695328127E+02  0.51100000000E-03 0.  1.
         12    1    3    3    0    0  0.12848260573E+02 -0.47959300249E+01  0.47510079699E+01  0.14513814843E+02  0.00000000000E+00 0. -1.
</event>
<event>
 7    1  0.2250716E-008  0.4614232E+02  0.7816164E-02  0.1320468E+00
        -11   -1    0    0    0    0  0.00000000000E+00  0.00000000000E+00  0.45593999997E+02  0.45594000000E+02  0.51100000000E-03 0. -1.
         11   -1    0    0    0    0 -0.00000000000E+00 -0.00000000000E+00 -0.45593999997E+02  0.45594000000E+02  0.51100000000E-03 0.  1.
    9900012    2    1    2    0    0 -0.18170065951E+02 -0.24868079731E+02 -0.32871580973E+02  0.46142317389E+02  0.99999966089E+01 0.  0.
         12    1    1    2    0    0  0.18170065951E+02  0.24868079731E+02  0.32871580973E+02  0.45045682611E+02  0.00000000000E+00 0. -1.
         11    1    3    3    0    0  0.82496004081E+00 -0.51566755799E+00 -0.15808421133E+01  0.18562150057E+01  0.51100000000E-03 0. -1.
        -11    1    3    3    0    0 -0.14549353932E+02 -0.18474696180E+02 -0.26806891470E+02  0.35659606410E+02  0.51100000000E-03 0.  1.
         12    1    3    3    0    0 -0.44456720603E+01 -0.58777159931E+01 -0.44838473902E+01  0.86264959736E+01  0.00000000000E+00 0. -1.
</event>
<event>
 7    1  0.2250716E-008  0.4614232E+02  0.7816164E-02  0.1320468E+00
        -11   -1    0    0    0    0  0.00000000000E+00  0.00000000000E+00  0.45593999997E+02  0.45594000000E+02  0.51100000000E-03 0. -1.
         11   -1    0    0    0    0 -0.00000000000E+00 -0.00000000000E+00 -0.45593999997E+02  0.45594000000E+02  0.51100000000E-03 0.  1.
    9900012    2    1    2    0    0  0.83332927816E+01 -0.35780982181E+02 -0.26065130193E+02  0.46142318004E+02  0.10000002218E+02 0.  0.
         12    1    1    2    0    0 -0.83332927816E+01  0.35780982181E+02  0.26065130193E+02  0.45045681996E+02  0.00000000000E+00 0. -1.
         11    1    3    3    0    0  0.64769608696E+01 -0.23420055738E+02 -0.15879142394E+02  0.29027524805E+02  0.51100000000E-03 0. -1.
        -11    1    3    3    0    0  0.27592666797E+01 -0.11506726593E+02 -0.71283785484E+01  0.13814198873E+02  0.51100000000E-03 0.  1.
         12    1    3    3    0    0 -0.90293476773E+00 -0.85419985027E+00 -0.30576092508E+01  0.33005943267E+01  0.00000000000E+00 0. -1.
</event>
<event>
 7    1  0.2250716E-008  0.4614232E+02  0.7816164E-02  0.1320468E+00
        -11   -1    0    0    0    0  0.00000000000E+00  0.00000000000E+00  0.45593999997E+02  0.45594000000E+02  0.51100000000E-03 0.  1.
         11   -1    0    0    0    0 -0.00000000000E+00 -0.00000000000E+00 -0.45593999997E+02  0.45594000000E+02  0.51100000000E-03 0. -1.
    9900012    2    1    2    0    0  0.43353452250E+02 -0.11979834337E+02 -0.24647925232E+01  0.46142318132E+02  0.10000003383E+02 0.  0.
         12    1    1    2    0    0 -0.43353452250E+02  0.11979834337E+02  0.24647925232E+01  0.45045681868E+02  0.00000000000E+00 0. -1.
         11    1    3    3    0    0  0.32669366728E+02 -0.11886145356E+02  0.14481666957E+00  0.34764765870E+02  0.51100000000E-03 0. -1.
        -11    1    3    3    0    0  0.37981540865E+01 -0.22517881724E-01  0.48277637820E+00  0.38287798072E+01  0.51100000000E-03 0.  1.
         12    1    3    3    0    0  0.68859314356E+01 -0.71171099527E-01 -0.30923855710E+01  0.75487724552E+01  0.00000000000E+00 0. -1.
</event>
<event>
 7    1  0.2250716E-008  0.4614232E+02  0.7816164E-02  0.1320468E+00
        -11   -1    0    0    0    0  0.00000000000E+00  0.00000000000E+00  0.45593999997E+02  0.45594000000E+02  0.51100000000E-03 0.  1.
         11   -1    0    0    0    0 -0.00000000000E+00 -0.00000000000E+00 -0.45593999997E+02  0.45594000000E+02  0.51100000000E-03 0. -1.
    9900012    2    1    2    0    0 -0.11752260834E+02 -0.31629967319E+02  0.29841960878E+02  0.46142322112E+02  0.10000039676E+02 0.  0.
         12    1    1    2    0    0  0.11752260834E+02  0.31629967319E+02 -0.29841960878E+02  0.45045677888E+02  0.00000000000E+00 0. -1.
         11    1    3    3    0    0 -0.76408564466E+01 -0.14246973075E+02  0.84781218437E+01  0.18254793324E+02  0.51100000000E-03 0. -1.
        -11    1    3    3    0    0 -0.82876327713E+00 -0.29214012242E+01  0.28281151289E+01  0.41496589168E+01  0.51100000000E-03 0.  1.
         12    1    3    3    0    0 -0.32826411099E+01 -0.14461593020E+02  0.18535723906E+02  0.23737869872E+02  0.00000000000E+00 0. -1.
</event>
<event>
 7    1  0.2250716E-008  0.4614232E+02  0.7816164E-02  0.1320468E+00
        -11   -1    0    0    0    0  0.00000000000E+00  0.00000000000E+00  0.45593999997E+02  0.45594000000E+02  0.51100000000E-03 0.  1.
         11   -1    0    0    0    0 -0.00000000000E+00 -0.00000000000E+00 -0.45593999997E+02  0.45594000000E+02  0.51100000000E-03 0. -1.
    9900012    2    1    2    0    0  0.33875670105E+02 -0.19220858252E+02  0.22629870680E+02  0.46142318031E+02  0.10000002465E+02 0.  0.
         12    1    1    2    0    0 -0.33875670105E+02  0.19220858252E+02 -0.22629870680E+02  0.45045681969E+02  0.00000000000E+00 0. -1.
         11    1    3    3    0    0  0.14235675979E+01 -0.23201006256E+01  0.30283651541E+01  0.40719046387E+01  0.51100000000E-03 0. -1.
        -11    1    3    3    0    0  0.17770795073E+02 -0.10108283292E+02  0.71571932710E+01  0.21661116417E+02  0.51100000000E-03 0.  1.
         12    1    3    3    0    0  0.14681307434E+02 -0.67924743350E+01  0.12444312255E+02  0.20409296976E+02  0.00000000000E+00 0. -1.
</event>
<event>
 7    1  0.2250716E-008  0.4614232E+02  0.7816164E-02  0.1320468E+00
        -11   -1    0    0    0    0  0.00000000000E+00  0.00000000000E+00  0.45593999997E+02  0.45594000000E+02  0.51100000000E-03 0.  1.
         11   -1    0    0    0    0 -0.00000000000E+00 -0.00000000000E+00 -0.45593999997E+02  0.45594000000E+02  0.51100000000E-03 0. -1.
    9900012    2    1    2    0    0  0.25617138603E+02 -0.27818226484E+01  0.36947763311E+02  0.46142317176E+02  0.99999946603E+01 0.  0.
         12    1    1    2    0    0 -0.25617138603E+02  0.27818226484E+01 -0.36947763311E+02  0.45045682824E+02  0.00000000000E+00 0. -1.
         11    1    3    3    0    0  0.79461524151E+01 -0.22429675894E+01  0.75628791450E+01  0.11196847013E+02  0.51100000000E-03 0. -1.
        -11    1    3    3    0    0  0.40706379064E+01  0.45533274600E+00  0.24967150319E+01  0.47969789541E+01  0.51100000000E-03 0.  1.
        -12    1    3    3    0    0  0.13600348282E+02 -0.99418780497E+00  0.26888169134E+02  0.30148491208E+02  0.00000000000E+00 0.  1.
</event>
<event>
 7    1  0.2250716E-008  0.4614232E+02  0.7816164E-02  0.1320468E+00
        -11   -1    0    0    0    0  0.00000000000E+00  0.00000000000E+00  0.45593999997E+02  0.45594000000E+02  0.51100000000E-03 0.  1.
         11   -1    0    0    0    0 -0.00000000000E+00 -0.00000000000E+00 -0.45593999997E+02  0.45594000000E+02  0.51100000000E-03 0. -1.
    9900012    2    1    2    0    0 -0.42129277368E+02 -0.14766207654E+02  0.60163594143E+01  0.46142317846E+02  0.10000000778E+02 0.  0.
         12    1    1    2    0    0  0.42129277368E+02  0.14766207654E+02 -0.60163594143E+01  0.45045682154E+02  0.00000000000E+00 0. -1.
         11    1    3    3    0    0 -0.19254666320E+02 -0.17820822413E+01  0.30021275321E+01  0.19568616768E+02  0.51100000000E-03 0.  1.
        -11    1    3    3    0    0 -0.59809922894E+01 -0.31477619225E+01  0.17639611735E+01  0.69851437472E+01  0.51100000000E-03 0. -1.
        -12    1    3    3    0    0 -0.16893618759E+02 -0.98363634907E+01  0.12502707086E+01  0.19588557332E+02  0.00000000000E+00 0.  1.
</event>
<event>
 7    1  0.2250716E-008  0.4614232E+02  0.7816164E-02  0.1320468E+00
        -11   -1    0    0    0    0  0.00000000000E+00  0.00000000000E+00  0.45593999997E+02  0.45594000000E+02  0.51100000000E-03 0.  1.
         11   -1    0    0    0    0 -0.00000000000E+00 -0.00000000000E+00 -0.45593999997E+02  0.45594000000E+02  0.51100000000E-03 0. -1.
    9900012    2    1    2    0    0 -0.30642932349E+02 -0.18588032790E+02  0.27287527860E+02  0.46142318269E+02  0.10000004627E+02 0.  0.
         12    1    1    2    0    0  0.30642932349E+02  0.18588032790E+02 -0.27287527860E+02  0.45045681731E+02  0.00000000000E+00 0. -1.
         11    1    3    3    0    0 -0.51715973582E+01 -0.34776511042E+01  0.13373588886E+01  0.63740101581E+01  0.51100000000E-03 0. -1.
        -11    1    3    3    0    0 -0.20166650443E+02 -0.12606084682E+02  0.17704397508E+02  0.29648825483E+02  0.51100000000E-03 0.  1.
        -12    1    3    3    0    0 -0.53046845476E+01 -0.25042970034E+01  0.82457714631E+01  0.10119482628E+02  0.00000000000E+00 0.  1.
</event>
<event>
 7    1  0.2250716E-008  0.4614232E+02  0.7816164E-02  0.1320468E+00
        -11   -1    0    0    0    0  0.00000000000E+00  0.00000000000E+00  0.45593999997E+02  0.45594000000E+02  0.51100000000E-03 0.  1.
         11   -1    0    0    0    0 -0.00000000000E+00 -0.00000000000E+00 -0.45593999997E+02  0.45594000000E+02  0.51100000000E-03 0. -1.
    9900012    2    1    2    0    0 -0.35434512415E+02 -0.22282612521E+02  0.16643136024E+02  0.46142317992E+02  0.10000002104E+02 0.  0.
         12    1    1    2    0    0  0.35434512415E+02  0.22282612521E+02 -0.16643136024E+02  0.45045682008E+02  0.00000000000E+00 0. -1.
         11    1    3    3    0    0 -0.91156846298E+01 -0.69521649718E+01  0.89414098151E+01  0.14538814044E+02  0.51100000000E-03 0. -1.
        -11    1    3    3    0    0 -0.62245193532E+01 -0.20051549707E+01  0.16735425855E+01  0.67502616750E+01  0.51100000000E-03 0.  1.
         12    1    3    3    0    0 -0.20094308432E+02 -0.13325292579E+02  0.60281836233E+01  0.24853242273E+02  0.00000000000E+00 0. -1.
</event>
<event>
 7    1  0.2250716E-008  0.4614232E+02  0.7816164E-02  0.1320468E+00
        -11   -1    0    0    0    0  0.00000000000E+00  0.00000000000E+00  0.45593999997E+02  0.45594000000E+02  0.51100000000E-03 0. -1.
         11   -1    0    0    0    0 -0.00000000000E+00 -0.00000000000E+00 -0.45593999997E+02  0.45594000000E+02  0.51100000000E-03 0.  1.
    9900012    2    1    2    0    0  0.14845306462E+02  0.39935469244E+02  0.14624933407E+02  0.46142317578E+02  0.99999983344E+01 0.  0.
         12    1    1    2    0    0 -0.14845306462E+02 -0.39935469244E+02 -0.14624933407E+02  0.45045682422E+02  0.00000000000E+00 0. -1.
         11    1    3    3    0    0  0.12921162856E+01  0.66210679463E+01  0.14943575288E+01  0.69095014241E+01  0.51100000000E-03 0. -1.
        -11    1    3    3    0    0  0.44144762138E+01  0.11075429132E+02  0.18166068100E+00  0.11924165865E+02  0.51100000000E-03 0.  1.
         12    1    3    3    0    0  0.91387139627E+01  0.22238972165E+02  0.12948915197E+02  0.27308650289E+02  0.00000000000E+00 0. -1.
</event>
<event>
 7    1  0.2250716E-008  0.4614232E+02  0.7816164E-02  0.1320468E+00
        -11   -1    0    0    0    0  0.00000000000E+00  0.00000000000E+00  0.45593999997E+02  0.45594000000E+02  0.51100000000E-03 0. -1.
         11   -1    0    0    0    0 -0.00000000000E+00 -0.00000000000E+00 -0.45593999997E+02  0.45594000000E+02  0.51100000000E-03 0.  1.
    9900012    2    1    2    0    0 -0.32036009077E+01  0.27391458464E+02 -0.35616825388E+02  0.46142319782E+02  0.10000018426E+02 0.  0.
         12    1    1    2    0    0  0.32036009077E+01 -0.27391458464E+02  0.35616825388E+02  0.45045680218E+02  0.00000000000E+00 0. -1.
         11    1    3    3    0    0 -0.54093584212E+00  0.11898675927E+02 -0.11032495010E+02  0.16235364079E+02  0.51100000000E-03 0.  1.
        -11    1    3    3    0    0 -0.42787190407E+01  0.60669779723E+01 -0.96967697700E+01  0.12212411825E+02  0.51100000000E-03 0. -1.
        -12    1    3    3    0    0  0.16160539752E+01  0.94258045653E+01 -0.14887560609E+02  0.17694543878E+02  0.00000000000E+00 0.  1.
</event>
<event>
 7    1  0.2250716E-008  0.4614232E+02  0.7816164E-02  0.1320468E+00
        -11   -1    0    0    0    0  0.00000000000E+00  0.00000000000E+00  0.45593999997E+02  0.45594000000E+02  0.51100000000E-03 0. -1.
         11   -1    0    0    0    0 -0.00000000000E+00 -0.00000000000E+00 -0.45593999997E+02  0.45594000000E+02  0.51100000000E-03 0.  1.
    9900012    2    1    2    0    0 -0.26580535081E+02  0.36261510411E+02  0.27733616159E+01  0.46142317441E+02  0.99999970854E+01 0.  0.
         12    1    1    2    0    0  0.26580535081E+02 -0.36261510411E+02 -0.27733616159E+01  0.45045682559E+02  0.00000000000E+00 0. -1.
         11    1    3    3    0    0 -0.16942863316E+02  0.19805701331E+02  0.47040460592E+01  0.26484985787E+02  0.51100000000E-03 0. -1.
        -11    1    3    3    0    0 -0.72421644377E+01  0.83180629028E+01 -0.39246905487E+00  0.11035993314E+02  0.51100000000E-03 0.  1.
         12    1    3    3    0    0 -0.23955073280E+01  0.81377461779E+01 -0.15382153885E+01  0.86213383413E+01  0.00000000000E+00 0. -1.
</event>
<event>
 7    1  0.2250716E-008  0.4614232E+02  0.7816164E-02  0.1320468E+00
        -11   -1    0    0    0    0  0.00000000000E+00  0.00000000000E+00  0.45593999997E+02  0.45594000000E+02  0.51100000000E-03 0.  1.
         11   -1    0    0    0    0 -0.00000000000E+00 -0.00000000000E+00 -0.45593999997E+02  0.45594000000E+02  0.51100000000E-03 0. -1.
    9900012    2    1    2    0    0  0.94542098924E+01  0.37636073405E+02  0.22874819725E+02  0.46142317816E+02  0.10000000496E+02 0.  0.
         12    1    1    2    0    0 -0.94542098924E+01 -0.37636073405E+02 -0.22874819725E+02  0.45045682184E+02  0.00000000000E+00 0. -1.
         11    1    3    3    0    0  0.61870059924E+01  0.94945188783E+01  0.45944903848E+01  0.12228420750E+02  0.51100000000E-03 0.  1.
        -11    1    3    3    0    0 -0.46986386169E+00  0.88285340851E+01  0.47248392862E+01  0.10024364952E+02  0.51100000000E-03 0. -1.
        -12    1    3    3    0    0  0.37370677617E+01  0.19313020441E+02  0.13555490054E+02  0.23889532114E+02  0.00000000000E+00 0.  1.
</event>
<event>
 7    1  0.2250716E-008  0.4614232E+02  0.7816164E-02  0.1320468E+00
        -11   -1    0    0    0    0  0.00000000000E+00  0.00000000000E+00  0.45593999997E+02  0.45594000000E+02  0.51100000000E-03 0.  1.
         11   -1    0    0    0    0 -0.00000000000E+00 -0.00000000000E+00 -0.45593999997E+02  0.45594000000E+02  0.51100000000E-03 0. -1.
    9900012    2    1    2    0    0 -0.13183945212E+02 -0.18330144964E+02  0.38978235347E+02  0.46142318114E+02  0.10000003222E+02 0.  0.
         12    1    1    2    0    0  0.13183945212E+02  0.18330144964E+02 -0.38978235347E+02  0.45045681886E+02  0.00000000000E+00 0. -1.
         11    1    3    3    0    0 -0.36319440442E+01 -0.12876900903E+01  0.53656894585E+01  0.66060416994E+01  0.51100000000E-03 0. -1.
        -11    1    3    3    0    0 -0.25599846052E+00 -0.90960182871E+00 -0.17215964343E+00  0.96049461349E+00  0.51100000000E-03 0.  1.
        -12    1    3    3    0    0 -0.92960027072E+01 -0.16132853045E+02  0.33784705532E+02  0.38575781802E+02  0.00000000000E+00 0.  1.
</event>
<event>
 7    1  0.3147394E-008  0.4614232E+02  0.7816164E-02  0.1320468E+00
        -11   -1    0    0    0    0  0.00000000000E+00  0.00000000000E+00  0.45593999997E+02  0.45594000000E+02  0.51100000000E-03 0. -1.
         11   -1    0    0    0    0 -0.00000000000E+00 -0.00000000000E+00 -0.45593999997E+02  0.45594000000E+02  0.51100000000E-03 0.  1.
    9900012    2    1    2    0    0  0.28666073620E+02  0.22422238185E+02 -0.26544546137E+02  0.46142317947E+02  0.10000001696E+02 0.  0.
         12    1    1    2    0    0 -0.28666073620E+02 -0.22422238185E+02  0.26544546137E+02  0.45045682053E+02  0.00000000000E+00 0. -1.
         11    1    3    3    0    0  0.16545762789E+01  0.13187655662E+01  0.18255049310E+00  0.21236973007E+01  0.51100000000E-03 0. -1.
        -11    1    3    3    0    0  0.14478108302E+02  0.82346314295E+01 -0.97390005649E+01  0.19294375010E+02  0.51100000000E-03 0.  1.
        -12    1    3    3    0    0  0.12533389039E+02  0.12868841189E+02 -0.16988096065E+02  0.24724245636E+02  0.00000000000E+00 0.  1.
</event>
<event>
 7    1  0.2250716E-008  0.4614232E+02  0.7816164E-02  0.1320468E+00
        -11   -1    0    0    0    0  0.00000000000E+00  0.00000000000E+00  0.45593999997E+02  0.45594000000E+02  0.51100000000E-03 0.  1.
         11   -1    0    0    0    0 -0.00000000000E+00 -0.00000000000E+00 -0.45593999997E+02  0.45594000000E+02  0.51100000000E-03 0. -1.
    9900012    2    1    2    0    0  0.10461626576E+02 -0.38491424386E+02 -0.20930309856E+02  0.46142320379E+02  0.10000023869E+02 0.  0.
         12    1    1    2    0    0 -0.10461626576E+02  0.38491424386E+02  0.20930309856E+02  0.45045679621E+02  0.00000000000E+00 0. -1.
         11    1    3    3    0    0  0.35652979363E+01 -0.16329273443E+02 -0.10010831748E+02  0.19482640301E+02  0.51100000000E-03 0. -1.
        -11    1    3    3    0    0  0.67115678056E+01 -0.21835382807E+02 -0.11793626435E+02  0.25708339298E+02  0.51100000000E-03 0.  1.
         12    1    3    3    0    0  0.18476083433E+00 -0.32676813625E+00  0.87414832707E+00  0.95134077937E+00  0.00000000000E+00 0. -1.
</event>
<event>
 7    1  0.2250716E-008  0.4614232E+02  0.7816164E-02  0.1320468E+00
        -11   -1    0    0    0    0  0.00000000000E+00  0.00000000000E+00  0.45593999997E+02  0.45594000000E+02  0.51100000000E-03 0.  1.
         11   -1    0    0    0    0 -0.00000000000E+00 -0.00000000000E+00 -0.45593999997E+02  0.45594000000E+02  0.51100000000E-03 0. -1.
    9900012    2    1    2    0    0  0.37288833407E+02 -0.21185570413E+02  0.13777811298E+02  0.46142316803E+02  0.99999912616E+01 0.  0.
         12    1    1    2    0    0 -0.37288833407E+02  0.21185570413E+02 -0.13777811298E+02  0.45045683197E+02  0.00000000000E+00 0. -1.
         11    1    3    3    0    0  0.78221969483E+01 -0.26286031889E+01  0.10612086469E+01  0.83200050406E+01  0.51100000000E-03 0. -1.
        -11    1    3    3    0    0  0.29866791548E+02 -0.18171663761E+02  0.12856463623E+02  0.37249473263E+02  0.51100000000E-03 0.  1.
         12    1    3    3    0    0 -0.40015509000E+00 -0.38530346301E+00 -0.13986097185E+00  0.57283849915E+00  0.00000000000E+00 0. -1.
</event>
<event>
 7    1  0.2250716E-008  0.4614232E+02  0.7816164E-02  0.1320468E+00
        -11   -1    0    0    0    0  0.00000000000E+00  0.00000000000E+00  0.45593999997E+02  0.45594000000E+02  0.51100000000E-03 0.  1.
         11   -1    0    0    0    0 -0.00000000000E+00 -0.00000000000E+00 -0.45593999997E+02  0.45594000000E+02  0.51100000000E-03 0. -1.
    9900012    2    1    2    0    0 -0.30201981724E+02  0.29878993024E+02  0.14973282316E+02  0.46142321989E+02  0.10000038550E+02 0.  0.
         12    1    1    2    0    0  0.30201981724E+02 -0.29878993024E+02 -0.14973282316E+02  0.45045678011E+02  0.00000000000E+00 0. -1.
         11    1    3    3    0    0 -0.28180375943E+00  0.14859766600E+01 -0.10115555839E+01  0.18195562517E+01  0.51100000000E-03 0. -1.
        -11    1    3    3    0    0 -0.45934701064E+01  0.56700655578E+01  0.33065646639E+01  0.80114281614E+01  0.51100000000E-03 0.  1.
         12    1    3    3    0    0 -0.25326707858E+02  0.22722950806E+02  0.12678273236E+02  0.36311337576E+02  0.00000000000E+00 0. -1.
</event>
<event>
 7    1  0.2250716E-008  0.4614232E+02  0.7816164E-02  0.1320468E+00
        -11   -1    0    0    0    0  0.00000000000E+00  0.00000000000E+00  0.45593999997E+02  0.45594000000E+02  0.51100000000E-03 0.  1.
         11   -1    0    0    0    0 -0.00000000000E+00 -0.00000000000E+00 -0.45593999997E+02  0.45594000000E+02  0.51100000000E-03 0. -1.
    9900012    2    1    2    0    0 -0.34520336415E+02 -0.28825523647E+02  0.25591166882E+01  0.46142317433E+02  0.99999970093E+01 0.  0.
         12    1    1    2    0    0  0.34520336415E+02  0.28825523647E+02 -0.25591166882E+01  0.45045682567E+02  0.00000000000E+00 0. -1.
         11    1    3    3    0    0 -0.22391610316E+02 -0.14810249920E+02  0.15471778254E+01  0.26890918071E+02  0.51100000000E-03 0. -1.
        -11    1    3    3    0    0 -0.10796647001E+02 -0.14232080977E+02  0.11089519189E+01  0.17898309697E+02  0.51100000000E-03 0.  1.
         12    1    3    3    0    0 -0.13320790979E+01  0.21680725071E+00 -0.97013056024E-01  0.13530896644E+01  0.00000000000E+00 0. -1.
</event>
<event>
 7    1  0.2250716E-008  0.4614232E+02  0.7816164E-02  0.1320468E+00
        -11   -1    0    0    0    0  0.00000000000E+00  0.00000000000E+00  0.45593999997E+02  0.45594000000E+02  0.51100000000E-03 0.  1.
         11   -1    0    0    0    0 -0.00000000000E+00 -0.00000000000E+00 -0.45593999997E+02  0.45594000000E+02  0.51100000000E-03 0. -1.
    9900012    2    1    2    0    0 -0.40711523548E+02 -0.15678791729E+02 -0.11218768942E+02  0.46142318339E+02  0.10000005273E+02 0.  0.
         12    1    1    2    0    0  0.40711523548E+02  0.15678791729E+02  0.11218768942E+02  0.45045681661E+02  0.00000000000E+00 0. -1.
         11    1    3    3    0    0 -0.32341209936E+01 -0.90997478040E+00 -0.32233546994E+01  0.46559218724E+01  0.51100000000E-03 0. -1.
        -11    1    3    3    0    0 -0.30699676127E+02 -0.95384086052E+01 -0.62804415453E+01  0.32755080511E+02  0.51100000000E-03 0.  1.
        -12    1    3    3    0    0 -0.67777264273E+01 -0.52304083439E+01 -0.17149726976E+01  0.87313159558E+01  0.00000000000E+00 0.  1.
</event>
<event>
 7    1  0.2250716E-008  0.4614231E+02  0.7816164E-02  0.1320468E+00
        -11   -1    0    0    0    0  0.00000000000E+00  0.00000000000E+00  0.45593999997E+02  0.45594000000E+02  0.51100000000E-03 0.  1.
         11   -1    0    0    0    0 -0.00000000000E+00 -0.00000000000E+00 -0.45593999997E+02  0.45594000000E+02  0.51100000000E-03 0. -1.
    9900012    2    1    2    0    0  0.32681910510E+02 -0.30776505145E+02  0.37166282962E+01  0.46142313531E+02  0.99999614293E+01 0.  0.
         12    1    1    2    0    0 -0.32681910510E+02  0.30776505145E+02 -0.37166282962E+01  0.45045686469E+02  0.00000000000E+00 0. -1.
         11    1    3    3    0    0  0.34294122366E-01 -0.83605613285E+00  0.37843463646E+00  0.91835667325E+00  0.51100000000E-03 0. -1.
        -11    1    3    3    0    0  0.12694113477E+02 -0.17380260723E+02  0.14733046944E+01  0.21572774664E+02  0.51100000000E-03 0.  1.
         12    1    3    3    0    0  0.19953502911E+02 -0.12560188290E+02  0.18648889653E+01  0.23651182194E+02  0.00000000000E+00 0. -1.
</event>
<event>
 7    1  0.2250716E-008  0.4614232E+02  0.7816164E-02  0.1320468E+00
        -11   -1    0    0    0    0  0.00000000000E+00  0.00000000000E+00  0.45593999997E+02  0.45594000000E+02  0.51100000000E-03 0.  1.
         11   -1    0    0    0    0 -0.00000000000E+00 -0.00000000000E+00 -0.45593999997E+02  0.45594000000E+02  0.51100000000E-03 0. -1.
    9900012    2    1    2    0    0  0.81164825666E+01 -0.27527439311E+02  0.34719968326E+02  0.46142318688E+02  0.10000008455E+02 0.  0.
         12    1    1    2    0    0 -0.81164825666E+01  0.27527439311E+02 -0.34719968326E+02  0.45045681312E+02  0.00000000000E+00 0. -1.
         11    1    3    3    0    0  0.69362790429E+01 -0.15550713688E+02  0.24149998191E+02  0.29549265238E+02  0.51100000000E-03 0.  1.
        -11    1    3    3    0    0  0.21399917935E+01 -0.29425834565E+01  0.22768850062E+01  0.42921518924E+01  0.51100000000E-03 0. -1.
         12    1    3    3    0    0 -0.95978826975E+00 -0.90341421662E+01  0.82930851281E+01  0.12300901558E+02  0.00000000000E+00 0. -1.
</event>
<event>
 7    1  0.2250716E-008  0.4614232E+02  0.7816164E-02  0.1320468E+00
        -11   -1    0    0    0    0  0.00000000000E+00  0.00000000000E+00  0.45593999997E+02  0.45594000000E+02  0.51100000000E-03 0.  1.
         11   -1    0    0    0    0 -0.00000000000E+00 -0.00000000000E+00 -0.45593999997E+02  0.45594000000E+02  0.51100000000E-03 0. -1.
    9900012    2    1    2    0    0  0.55495200394E-01  0.44737325357E+02  0.52613677517E+01  0.46142319292E+02  0.10000013961E+02 0.  0.
         12    1    1    2    0    0 -0.55495200394E-01 -0.44737325357E+02 -0.52613677517E+01  0.45045680708E+02  0.00000000000E+00 0. -1.
         11    1    3    3    0    0  0.41878585714E+01  0.26709896694E+02  0.37174381028E+01  0.27290586053E+02  0.51100000000E-03 0.  1.
        -11    1    3    3    0    0 -0.60329636043E+00  0.72029562250E+01 -0.64891857540E+00  0.72572474435E+01  0.51100000000E-03 0. -1.
        -12    1    3    3    0    0 -0.35290670106E+01  0.10824472438E+02  0.21928482243E+01  0.11594485796E+02  0.00000000000E+00 0.  1.
</event>
<event>
 7    1  0.2250716E-008  0.4614232E+02  0.7816164E-02  0.1320468E+00
        -11   -1    0    0    0    0  0.00000000000E+00  0.00000000000E+00  0.45593999997E+02  0.45594000000E+02  0.51100000000E-03 0.  1.
         11   -1    0    0    0    0 -0.00000000000E+00 -0.00000000000E+00 -0.45593999997E+02  0.45594000000E+02  0.51100000000E-03 0. -1.
    9900012    2    1    2    0    0 -0.17383630035E+02  0.18374104959E+02  0.37273518471E+02  0.46142317571E+02  0.99999982686E+01 0.  0.
         12    1    1    2    0    0  0.17383630035E+02 -0.18374104959E+02 -0.37273518471E+02  0.45045682429E+02  0.00000000000E+00 0. -1.
         11    1    3    3    0    0 -0.10512528076E+02  0.11731528376E+02  0.17577402896E+02  0.23603116265E+02  0.51100000000E-03 0. -1.
        -11    1    3    3    0    0 -0.57325565409E+01  0.68055110966E+01  0.19412386827E+02  0.21354576754E+02  0.51100000000E-03 0.  1.
         12    1    3    3    0    0 -0.11385454189E+01 -0.16293451350E+00  0.28372874798E+00  0.11846245519E+01  0.00000000000E+00 0. -1.
</event>
<event>
 7    1  0.2250716E-008  0.4614232E+02  0.7816164E-02  0.1320468E+00
        -11   -1    0    0    0    0  0.00000000000E+00  0.00000000000E+00  0.45593999997E+02  0.45594000000E+02  0.51100000000E-03 0.  1.
         11   -1    0    0    0    0 -0.00000000000E+00 -0.00000000000E+00 -0.45593999997E+02  0.45594000000E+02  0.51100000000E-03 0. -1.
    9900012    2    1    2    0    0  0.35303184709E+02 -0.18681391428E+02  0.20827967953E+02  0.46142317795E+02  0.10000000310E+02 0.  0.
         12    1    1    2    0    0 -0.35303184709E+02  0.18681391428E+02 -0.20827967953E+02  0.45045682205E+02  0.00000000000E+00 0. -1.
         11    1    3    3    0    0  0.15769915936E+01 -0.99857896252E+00  0.29044384152E+01  0.34525099854E+01  0.51100000000E-03 0. -1.
        -11    1    3    3    0    0  0.27410680237E+02 -0.16418321913E+02  0.12646947511E+02  0.34363526698E+02  0.51100000000E-03 0.  1.
        -12    1    3    3    0    0  0.63155128779E+01 -0.12644905522E+01  0.52765820266E+01  0.83262811117E+01  0.00000000000E+00 0.  1.
</event>
<event>
 7    1  0.2250716E-008  0.4614232E+02  0.7816164E-02  0.1320468E+00
        -11   -1    0    0    0    0  0.00000000000E+00  0.00000000000E+00  0.45593999997E+02  0.45594000000E+02  0.51100000000E-03 0.  1.
         11   -1    0    0    0    0 -0.00000000000E+00 -0.00000000000E+00 -0.45593999997E+02  0.45594000000E+02  0.51100000000E-03 0. -1.
    9900012    2    1    2    0    0  0.24980009478E+02 -0.11616795919E+02  0.35639343337E+02  0.46142316362E+02  0.99999872416E+01 0.  0.
         12    1    1    2    0    0 -0.24980009478E+02  0.11616795919E+02 -0.35639343337E+02  0.45045683638E+02  0.00000000000E+00 0. -1.
         11    1    3    3    0    0  0.65469423823E+01 -0.13916710212E+01  0.41176501046E+01  0.78583869485E+01  0.51100000000E-03 0. -1.
        -11    1    3    3    0    0  0.55671650313E+01 -0.59245633322E+00  0.69833917286E+01  0.89505358102E+01  0.51100000000E-03 0.  1.
        -12    1    3    3    0    0  0.12865902064E+02 -0.96326685641E+01  0.24538301504E+02  0.29333393603E+02  0.00000000000E+00 0.  1.
</event>
<event>
 7    1  0.2250716E-008  0.4614232E+02  0.7816164E-02  0.1320468E+00
        -11   -1    0    0    0    0  0.00000000000E+00  0.00000000000E+00  0.45593999997E+02  0.45594000000E+02  0.51100000000E-03 0.  1.
         11   -1    0    0    0    0 -0.00000000000E+00 -0.00000000000E+00 -0.45593999997E+02  0.45594000000E+02  0.51100000000E-03 0. -1.
    9900012    2    1    2    0    0 -0.36634116963E+02  0.17062878665E+02  0.19897557297E+02  0.46142321624E+02  0.10000035224E+02 0.  0.
         12    1    1    2    0    0  0.36634116963E+02 -0.17062878665E+02 -0.19897557297E+02  0.45045678376E+02  0.00000000000E+00 0. -1.
         11    1    3    3    0    0 -0.16021146748E+02  0.11777284962E+02  0.96768343428E+01  0.22113857812E+02  0.51100000000E-03 0. -1.
        -11    1    3    3    0    0 -0.30876887925E-01 -0.50187228711E-01 -0.29984085710E+00  0.30557640754E+00  0.51100000000E-03 0.  1.
        -12    1    3    3    0    0 -0.20582093327E+02  0.53357809316E+01  0.10520563812E+02  0.23722887404E+02  0.00000000000E+00 0.  1.
</event>
<event>
 7    1  0.2250716E-008  0.4614232E+02  0.7816164E-02  0.1320468E+00
        -11   -1    0    0    0    0  0.00000000000E+00  0.00000000000E+00  0.45593999997E+02  0.45594000000E+02  0.51100000000E-03 0.  1.
         11   -1    0    0    0    0 -0.00000000000E+00 -0.00000000000E+00 -0.45593999997E+02  0.45594000000E+02  0.51100000000E-03 0. -1.
    9900012    2    1    2    0    0  0.12526481002E+02 -0.23314178723E+02  0.36450649531E+02  0.46142317553E+02  0.99999981039E+01 0.  0.
         12    1    1    2    0    0 -0.12526481002E+02  0.23314178723E+02 -0.36450649531E+02  0.45045682447E+02  0.00000000000E+00 0. -1.
         11    1    3    3    0    0  0.40831255677E+01 -0.92194618740E+01  0.14743022321E+02  0.17861329711E+02  0.51100000000E-03 0. -1.
        -11    1    3    3    0    0  0.64357113282E+01 -0.14675615636E+02  0.19526291058E+02  0.25260010240E+02  0.51100000000E-03 0.  1.
         12    1    3    3    0    0  0.20076441065E+01  0.58089878669E+00  0.21813361528E+01  0.30209776017E+01  0.00000000000E+00 0. -1.
</event>
<event>
 7    1  0.2250716E-008  0.4614232E+02  0.7816164E-02  0.1320468E+00
        -11   -1    0    0    0    0  0.00000000000E+00  0.00000000000E+00  0.45593999997E+02  0.45594000000E+02  0.51100000000E-03 0.  1.
         11   -1    0    0    0    0 -0.00000000000E+00 -0.00000000000E+00 -0.45593999997E+02  0.45594000000E+02  0.51100000000E-03 0. -1.
    9900012    2    1    2    0    0 -0.17814460996E+02 -0.33657487812E+02  0.24061006066E+02  0.46142317418E+02  0.99999968688E+01 0.  0.
         12    1    1    2    0    0  0.17814460996E+02  0.33657487812E+02 -0.24061006066E+02  0.45045682582E+02  0.00000000000E+00 0. -1.
         11    1    3    3    0    0 -0.43986626163E+01 -0.36282136547E+01  0.32791093542E+01  0.65775926869E+01  0.51100000000E-03 0. -1.
        -11    1    3    3    0    0 -0.12652266407E+02 -0.20677746866E+02  0.14073360379E+02  0.28030492920E+02  0.51100000000E-03 0.  1.
         12    1    3    3    0    0 -0.76353197284E+00 -0.93515272907E+01  0.67085363331E+01  0.11534231811E+02  0.00000000000E+00 0. -1.
</event>
<event>
 7    1  0.2250716E-008  0.4614232E+02  0.7816164E-02  0.1320468E+00
        -11   -1    0    0    0    0  0.00000000000E+00  0.00000000000E+00  0.45593999997E+02  0.45594000000E+02  0.51100000000E-03 0.  1.
         11   -1    0    0    0    0 -0.00000000000E+00 -0.00000000000E+00 -0.45593999997E+02  0.45594000000E+02  0.51100000000E-03 0. -1.
    9900012    2    1    2    0    0  0.40984196447E+02 -0.82286277161E+01  0.16783886097E+02  0.46142317576E+02  0.99999983164E+01 0.  0.
         12    1    1    2    0    0 -0.40984196447E+02  0.82286277161E+01 -0.16783886097E+02  0.45045682424E+02  0.00000000000E+00 0. -1.
         11    1    3    3    0    0  0.15072228794E+01 -0.85160319408E+00  0.20091994444E+01  0.26521371528E+01  0.51100000000E-03 0. -1.
        -11    1    3    3    0    0  0.18656246369E+02  0.44596171604E+00  0.66859811872E+01  0.19823136864E+02  0.51100000000E-03 0.  1.
         12    1    3    3    0    0  0.20820727199E+02 -0.78229862380E+01  0.80887054653E+01  0.23667043560E+02  0.00000000000E+00 0. -1.
</event>
<event>
 7    1  0.2250716E-008  0.4614232E+02  0.7816164E-02  0.1320468E+00
        -11   -1    0    0    0    0  0.00000000000E+00  0.00000000000E+00  0.45593999997E+02  0.45594000000E+02  0.51100000000E-03 0.  1.
         11   -1    0    0    0    0 -0.00000000000E+00 -0.00000000000E+00 -0.45593999997E+02  0.45594000000E+02  0.51100000000E-03 0. -1.
    9900012    2    1    2    0    0 -0.16139818934E+02 -0.41230539005E+02 -0.82862761193E+01  0.46142317923E+02  0.10000001478E+02 0.  0.
         12    1    1    2    0    0  0.16139818934E+02  0.41230539005E+02  0.82862761193E+01  0.45045682077E+02  0.00000000000E+00 0. -1.
         11    1    3    3    0    0 -0.32653507936E+01 -0.12520365165E+02  0.59621925857E+00  0.12952896871E+02  0.51100000000E-03 0.  1.
        -11    1    3    3    0    0  0.22701040850E+00 -0.62443140588E-01  0.29584263054E+00  0.37809521888E+00  0.51100000000E-03 0. -1.
         12    1    3    3    0    0 -0.13101478549E+02 -0.28647730699E+02 -0.91783380084E+01  0.32811325833E+02  0.00000000000E+00 0. -1.
</event>
<event>
 7    1  0.2250716E-008  0.4614232E+02  0.7816164E-02  0.1320468E+00
        -11   -1    0    0    0    0  0.00000000000E+00  0.00000000000E+00  0.45593999997E+02  0.45594000000E+02  0.51100000000E-03 0.  1.
         11   -1    0    0    0    0 -0.00000000000E+00 -0.00000000000E+00 -0.45593999997E+02  0.45594000000E+02  0.51100000000E-03 0. -1.
    9900012    2    1    2    0    0  0.22328568649E+02 -0.39089352955E+02  0.16034591600E+01  0.46142316815E+02  0.99999913751E+01 0.  0.
         12    1    1    2    0    0 -0.22328568649E+02  0.39089352955E+02 -0.16034591600E+01  0.45045683185E+02  0.00000000000E+00 0. -1.
         11    1    3    3    0    0  0.75144654500E+01 -0.81534752728E+01 -0.34984105802E+00  0.11093635069E+02  0.51100000000E-03 0. -1.
        -11    1    3    3    0    0  0.65705431156E+01 -0.70960700807E+01  0.17206020905E+01  0.98227653560E+01  0.51100000000E-03 0.  1.
        -12    1    3    3    0    0  0.82435600831E+01 -0.23839807601E+02  0.23269812755E+00  0.25225916390E+02  0.00000000000E+00 0.  1.
</event>
<event>
 7    1  0.2250716E-008  0.4614232E+02  0.7816164E-02  0.1320468E+00
        -11   -1    0    0    0    0  0.00000000000E+00  0.00000000000E+00  0.45593999997E+02  0.45594000000E+02  0.51100000000E-03 0.  1.
         11   -1    0    0    0    0 -0.00000000000E+00 -0.00000000000E+00 -0.45593999997E+02  0.45594000000E+02  0.51100000000E-03 0. -1.
    9900012    2    1    2    0    0  0.41189146806E+02  0.14491039528E+02  0.11071466894E+02  0.46142318516E+02  0.10000006882E+02 0.  0.
         12    1    1    2    0    0 -0.41189146806E+02 -0.14491039528E+02 -0.11071466894E+02  0.45045681484E+02  0.00000000000E+00 0. -1.
         11    1    3    3    0    0  0.92843232603E+01  0.37594937663E+01  0.21452835040E+00  0.10018905851E+02  0.51100000000E-03 0. -1.
        -11    1    3    3    0    0  0.19912969677E+01  0.29022723653E+01  0.81877988120E+00  0.36137029832E+01  0.51100000000E-03 0.  1.
        -12    1    3    3    0    0  0.29913526578E+02  0.78292733968E+01  0.10038158662E+02  0.32509709681E+02  0.00000000000E+00 0.  1.
</event>
<event>
 7    1  0.2250716E-008  0.4614232E+02  0.7816164E-02  0.1320468E+00
        -11   -1    0    0    0    0  0.00000000000E+00  0.00000000000E+00  0.45593999997E+02  0.45594000000E+02  0.51100000000E-03 0. -1.
         11   -1    0    0    0    0 -0.00000000000E+00 -0.00000000000E+00 -0.45593999997E+02  0.45594000000E+02  0.51100000000E-03 0.  1.
    9900012    2    1    2    0    0 -0.13092698284E+02 -0.39828985613E+02  0.16472601801E+02  0.46142318149E+02  0.10000003536E+02 0.  0.
         12    1    1    2    0    0  0.13092698284E+02  0.39828985613E+02 -0.16472601801E+02  0.45045681851E+02  0.00000000000E+00 0. -1.
         11    1    3    3    0    0 -0.90857990935E+01 -0.33990918605E+02  0.14177341829E+02  0.37933248139E+02  0.51100000000E-03 0. -1.
        -11    1    3    3    0    0 -0.43797419319E+01 -0.60375222392E+01  0.21756875228E+01  0.77696480382E+01  0.51100000000E-03 0.  1.
        -12    1    3    3    0    0  0.37284274107E+00  0.19945523101E+00  0.11957244972E+00  0.43942197200E+00  0.00000000000E+00 0.  1.
</event>
<event>
 7    1  0.2250716E-008  0.4614231E+02  0.7816164E-02  0.1320468E+00
        -11   -1    0    0    0    0  0.00000000000E+00  0.00000000000E+00  0.45593999997E+02  0.45594000000E+02  0.51100000000E-03 0.  1.
         11   -1    0    0    0    0 -0.00000000000E+00 -0.00000000000E+00 -0.45593999997E+02  0.45594000000E+02  0.51100000000E-03 0. -1.
    9900012    2    1    2    0    0  0.13427888155E+02  0.27476769227E+02  0.33073147420E+02  0.46142310887E+02  0.99999373136E+01 0.  0.
         12    1    1    2    0    0 -0.13427888155E+02 -0.27476769227E+02 -0.33073147420E+02  0.45045689113E+02  0.00000000000E+00 0. -1.
         11    1    3    3    0    0  0.31542547452E+01  0.41723732517E+01  0.47462724929E+01  0.70629402084E+01  0.51100000000E-03 0. -1.
        -11    1    3    3    0    0  0.96291692707E+01  0.11469683727E+02  0.17419612485E+02  0.22972101450E+02  0.51100000000E-03 0.  1.
         12    1    3    3    0    0  0.64446413898E+00  0.11834712248E+02  0.10907262442E+02  0.16107269228E+02  0.00000000000E+00 0. -1.
</event>
<event>
 7    1  0.2250716E-008  0.4614232E+02  0.7816164E-02  0.1320468E+00
        -11   -1    0    0    0    0  0.00000000000E+00  0.00000000000E+00  0.45593999997E+02  0.45594000000E+02  0.51100000000E-03 0.  1.
         11   -1    0    0    0    0 -0.00000000000E+00 -0.00000000000E+00 -0.45593999997E+02  0.45594000000E+02  0.51100000000E-03 0. -1.
    9900012    2    1    2    0    0  0.28043437702E+02 -0.32993758206E+02  0.12413340806E+02  0.46142317536E+02  0.99999979428E+01 0.  0.
         12    1    1    2    0    0 -0.28043437702E+02  0.32993758206E+02 -0.12413340806E+02  0.45045682464E+02  0.00000000000E+00 0. -1.
         11    1    3    3    0    0  0.18497654277E+01 -0.11767249140E+01 -0.11310301556E+01  0.24668893641E+01  0.51100000000E-03 0.  1.
        -11    1    3    3    0    0  0.48553448148E+01 -0.33712694642E+01  0.27045232631E+01  0.65003290234E+01  0.51100000000E-03 0. -1.
        -12    1    3    3    0    0  0.21338327460E+02 -0.28445763828E+02  0.10839847699E+02  0.37175099148E+02  0.00000000000E+00 0.  1.
</event>
<event>
 7    1  0.2250716E-008  0.4614231E+02  0.7816164E-02  0.1320468E+00
        -11   -1    0    0    0    0  0.00000000000E+00  0.00000000000E+00  0.45593999997E+02  0.45594000000E+02  0.51100000000E-03 0.  1.
         11   -1    0    0    0    0 -0.00000000000E+00 -0.00000000000E+00 -0.45593999997E+02  0.45594000000E+02  0.51100000000E-03 0. -1.
    9900012    2    1    2    0    0 -0.30032931308E+02  0.28298089812E+02  0.18065296672E+02  0.46142314371E+02  0.99999690820E+01 0.  0.
         12    1    1    2    0    0  0.30032931308E+02 -0.28298089812E+02 -0.18065296672E+02  0.45045685629E+02  0.00000000000E+00 0. -1.
         11    1    3    3    0    0 -0.92379766947E+01  0.72292723091E+01  0.59830293178E+01  0.13168114201E+02  0.51100000000E-03 0. -1.
        -11    1    3    3    0    0 -0.89282811236E+01  0.81892009639E+01  0.92299171415E+01  0.15230514993E+02  0.51100000000E-03 0.  1.
         12    1    3    3    0    0 -0.11866673490E+02  0.12879616539E+02  0.28523502128E+01  0.17743685177E+02  0.00000000000E+00 0. -1.
</event>
<event>
 7    1  0.2250716E-008  0.4614232E+02  0.7816164E-02  0.1320468E+00
        -11   -1    0    0    0    0  0.00000000000E+00  0.00000000000E+00  0.45593999997E+02  0.45594000000E+02  0.51100000000E-03 0.  1.
         11   -1    0    0    0    0 -0.00000000000E+00 -0.00000000000E+00 -0.45593999997E+02  0.45594000000E+02  0.51100000000E-03 0. -1.
    9900012    2    1    2    0    0 -0.36347313748E+02  0.26076577926E+02  0.52913518836E+01  0.46142317213E+02  0.99999949995E+01 0.  0.
         12    1    1    2    0    0  0.36347313748E+02 -0.26076577926E+02 -0.52913518836E+01  0.45045682787E+02  0.00000000000E+00 0. -1.
         11    1    3    3    0    0 -0.64545551926E+01  0.33340396106E+01 -0.91891504436E+00  0.73226708228E+01  0.51100000000E-03 0. -1.
        -11    1    3    3    0    0 -0.16207536972E+02  0.16771593846E+02  0.48900673845E+01  0.23830303693E+02  0.51100000000E-03 0.  1.
        -12    1    3    3    0    0 -0.13685221584E+02  0.59709444697E+01  0.13201995434E+01  0.14989342697E+02  0.00000000000E+00 0.  1.
</event>
<event>
 7    1  0.2250716E-008  0.4614232E+02  0.7816164E-02  0.1320468E+00
        -11   -1    0    0    0    0  0.00000000000E+00  0.00000000000E+00  0.45593999997E+02  0.45594000000E+02  0.51100000000E-03 0.  1.
         11   -1    0    0    0    0 -0.00000000000E+00 -0.00000000000E+00 -0.45593999997E+02  0.45594000000E+02  0.51100000000E-03 0. -1.
    9900012    2    1    2    0    0 -0.28715241535E+02 -0.23437935300E+02  0.25597101675E+02  0.46142317391E+02  0.99999966258E+01 0.  0.
         12    1    1    2    0    0  0.28715241535E+02  0.23437935300E+02 -0.25597101675E+02  0.45045682609E+02  0.00000000000E+00 0. -1.
         11    1    3    3    0    0 -0.28504481309E+01 -0.33566386050E+01  0.63363903309E+00  0.44489971856E+01  0.51100000000E-03 0. -1.
        -11    1    3    3    0    0 -0.12796635284E+02 -0.13103772198E+02  0.11178008528E+02  0.21457180507E+02  0.51100000000E-03 0.  1.
         12    1    3    3    0    0 -0.13068158120E+02 -0.69775244973E+01  0.13785454115E+02  0.20236139699E+02  0.00000000000E+00 0. -1.
</event>
<event>
 7    1  0.2250716E-008  0.4614231E+02  0.7816164E-02  0.1320468E+00
        -11   -1    0    0    0    0  0.00000000000E+00  0.00000000000E+00  0.45593999997E+02  0.45594000000E+02  0.51100000000E-03 0.  1.
         11   -1    0    0    0    0 -0.00000000000E+00 -0.00000000000E+00 -0.45593999997E+02  0.45594000000E+02  0.51100000000E-03 0. -1.
    9900012    2    1    2    0    0 -0.16962526671E+02 -0.25043780310E+02  0.33379570402E+02  0.46142312487E+02  0.99999519055E+01 0.  0.
         12    1    1    2    0    0  0.16962526671E+02  0.25043780310E+02 -0.33379570402E+02  0.45045687513E+02  0.00000000000E+00 0. -1.
         11    1    3    3    0    0 -0.45903292292E+00 -0.40219149235E+01  0.81682478910E+01  0.91162922697E+01  0.51100000000E-03 0. -1.
        -11    1    3    3    0    0 -0.86517499497E+01 -0.13105382749E+02  0.17238379477E+02  0.23318781303E+02  0.51100000000E-03 0.  1.
        -12    1    3    3    0    0 -0.78517437986E+01 -0.79164826380E+01  0.79729430336E+01  0.13707238914E+02  0.00000000000E+00 0.  1.
</event>
<event>
 7    1  0.2250716E-008  0.4614232E+02  0.7816164E-02  0.1320468E+00
        -11   -1    0    0    0    0  0.00000000000E+00  0.00000000000E+00  0.45593999997E+02  0.45594000000E+02  0.51100000000E-03 0. -1.
         11   -1    0    0    0    0 -0.00000000000E+00 -0.00000000000E+00 -0.45593999997E+02  0.45594000000E+02  0.51100000000E-03 0.  1.
    9900012    2    1    2    0    0  0.18783288620E+02 -0.30065085527E+02  0.27791947228E+02  0.46142316190E+02  0.99999856753E+01 0.  0.
         12    1    1    2    0    0 -0.18783288620E+02  0.30065085527E+02 -0.27791947228E+02  0.45045683810E+02  0.00000000000E+00 0. -1.
         11    1    3    3    0    0  0.73770652661E+01 -0.87850205502E+01  0.13710637983E+02  0.17876780252E+02  0.51100000000E-03 0. -1.
        -11    1    3    3    0    0  0.41812814365E+01 -0.11678749606E+02  0.83455253384E+01  0.14950722399E+02  0.51100000000E-03 0.  1.
        -12    1    3    3    0    0  0.72249419175E+01 -0.96013153709E+01  0.57357839066E+01  0.13314813539E+02  0.00000000000E+00 0.  1.
</event>
<event>
 7    1  0.2250716E-008  0.4614232E+02  0.7816164E-02  0.1320468E+00
        -11   -1    0    0    0    0  0.00000000000E+00  0.00000000000E+00  0.45593999997E+02  0.45594000000E+02  0.51100000000E-03 0.  1.
         11   -1    0    0    0    0 -0.00000000000E+00 -0.00000000000E+00 -0.45593999997E+02  0.45594000000E+02  0.51100000000E-03 0. -1.
    9900012    2    1    2    0    0  0.32939862952E+02  0.14704954567E+02  0.26978568979E+02  0.46142318251E+02  0.10000004463E+02 0.  0.
         12    1    1    2    0    0 -0.32939862952E+02 -0.14704954567E+02 -0.26978568979E+02  0.45045681749E+02  0.00000000000E+00 0. -1.
         11    1    3    3    0    0  0.68945831756E+01  0.17401714911E+01  0.23351158405E+01  0.74843997911E+01  0.51100000000E-03 0. -1.
        -11    1    3    3    0    0  0.45602134591E+01  0.61494472188E-01  0.24253617550E+01  0.51654339863E+01  0.51100000000E-03 0.  1.
        -12    1    3    3    0    0  0.21485066317E+02  0.12903288604E+02  0.22218091384E+02  0.33492484473E+02  0.00000000000E+00 0.  1.
</event>
<event>
 7    1  0.2250716E-008  0.4614232E+02  0.7816164E-02  0.1320468E+00
        -11   -1    0    0    0    0  0.00000000000E+00  0.00000000000E+00  0.45593999997E+02  0.45594000000E+02  0.51100000000E-03 0.  1.
         11   -1    0    0    0    0 -0.00000000000E+00 -0.00000000000E+00 -0.45593999997E+02  0.45594000000E+02  0.51100000000E-03 0. -1.
    9900012    2    1    2    0    0 -0.11216883425E+01  0.44196071064E+02 -0.86349646327E+01  0.46142317672E+02  0.99999991830E+01 0.  0.
         12    1    1    2    0    0  0.11216883425E+01 -0.44196071064E+02  0.86349646327E+01  0.45045682328E+02  0.00000000000E+00 0. -1.
         11    1    3    3    0    0 -0.68627422523E+00  0.17468824572E+02 -0.97142915388E+00  0.17509268377E+02  0.51100000000E-03 0. -1.
        -11    1    3    3    0    0  0.11462190782E+01  0.76551365271E+01  0.65001295364E+00  0.77677184890E+01  0.51100000000E-03 0.  1.
         12    1    3    3    0    0 -0.15816331955E+01  0.19072109965E+02 -0.83135484324E+01  0.20865330805E+02  0.00000000000E+00 0. -1.
</event>
<event>
 7    1  0.2250716E-008  0.4614232E+02  0.7816164E-02  0.1320468E+00
        -11   -1    0    0    0    0  0.00000000000E+00  0.00000000000E+00  0.45593999997E+02  0.45594000000E+02  0.51100000000E-03 0.  1.
         11   -1    0    0    0    0 -0.00000000000E+00 -0.00000000000E+00 -0.45593999997E+02  0.45594000000E+02  0.51100000000E-03 0. -1.
    9900012    2    1    2    0    0 -0.30231210203E+02 -0.33103927386E+02  0.43951554142E+01  0.46142317967E+02  0.10000001876E+02 0.  0.
         12    1    1    2    0    0  0.30231210203E+02  0.33103927386E+02 -0.43951554142E+01  0.45045682033E+02  0.00000000000E+00 0. -1.
         11    1    3    3    0    0 -0.78849111164E+00 -0.37327968247E+01  0.87853930217E+00  0.39150123798E+01  0.51100000000E-03 0. -1.
        -11    1    3    3    0    0 -0.25433055352E+02 -0.25179955333E+02  0.52529668707E+01  0.36172698494E+02  0.51100000000E-03 0.  1.
        -12    1    3    3    0    0 -0.40096637393E+01 -0.41911752280E+01 -0.17363507587E+01  0.60546070931E+01  0.00000000000E+00 0.  1.
</event>
<event>
 7    1  0.2250716E-008  0.4614232E+02  0.7816164E-02  0.1320468E+00
        -11   -1    0    0    0    0  0.00000000000E+00  0.00000000000E+00  0.45593999997E+02  0.45594000000E+02  0.51100000000E-03 0.  1.
         11   -1    0    0    0    0 -0.00000000000E+00 -0.00000000000E+00 -0.45593999997E+02  0.45594000000E+02  0.51100000000E-03 0. -1.
    9900012    2    1    2    0    0  0.21026480839E+02 -0.35701434481E+02  0.17675073242E+02  0.46142317248E+02  0.99999953182E+01 0.  0.
         12    1    1    2    0    0 -0.21026480839E+02  0.35701434481E+02 -0.17675073242E+02  0.45045682752E+02  0.00000000000E+00 0. -1.
         11    1    3    3    0    0  0.55017181976E+01 -0.61145797510E+01  0.44535999336E+01  0.93536913188E+01  0.51100000000E-03 0. -1.
        -11    1    3    3    0    0  0.82714399024E+01 -0.21941495227E+02  0.66675913369E+01  0.24378324499E+02  0.51100000000E-03 0.  1.
        -12    1    3    3    0    0  0.72533227392E+01 -0.76453595030E+01  0.65538819716E+01  0.12410301430E+02  0.00000000000E+00 0.  1.
</event>
<event>
 7    1  0.2250716E-008  0.4614232E+02  0.7816164E-02  0.1320468E+00
        -11   -1    0    0    0    0  0.00000000000E+00  0.00000000000E+00  0.45593999997E+02  0.45594000000E+02  0.51100000000E-03 0.  1.
         11   -1    0    0    0    0 -0.00000000000E+00 -0.00000000000E+00 -0.45593999997E+02  0.45594000000E+02  0.51100000000E-03 0. -1.
    9900012    2    1    2    0    0  0.16151889959E+02  0.12008708701E+02  0.40299142218E+02  0.46142317660E+02  0.99999990806E+01 0.  0.
         12    1    1    2    0    0 -0.16151889959E+02 -0.12008708701E+02 -0.40299142218E+02  0.45045682340E+02  0.00000000000E+00 0. -1.
         11    1    3    3    0    0  0.19467776096E+01 -0.14521130471E+01  0.76836411145E+01  0.80583445199E+01  0.51100000000E-03 0. -1.
        -11    1    3    3    0    0  0.45925765350E+01  0.44388855522E+01  0.89684450872E+01  0.11010380180E+02  0.51100000000E-03 0.  1.
         12    1    3    3    0    0  0.96125358144E+01  0.90219361957E+01  0.23647056017E+02  0.27073592960E+02  0.00000000000E+00 0. -1.
</event>
<event>
 7    1  0.2250716E-008  0.4614232E+02  0.7816164E-02  0.1320468E+00
        -11   -1    0    0    0    0  0.00000000000E+00  0.00000000000E+00  0.45593999997E+02  0.45594000000E+02  0.51100000000E-03 0. -1.
         11   -1    0    0    0    0 -0.00000000000E+00 -0.00000000000E+00 -0.45593999997E+02  0.45594000000E+02  0.51100000000E-03 0.  1.
    9900012    2    1    2    0    0  0.38878627746E+02  0.10149637463E+01 -0.22727419120E+02  0.46142318446E+02  0.10000006245E+02 0.  0.
         12    1    1    2    0    0 -0.38878627746E+02 -0.10149637463E+01  0.22727419120E+02  0.45045681554E+02  0.00000000000E+00 0. -1.
         11    1    3    3    0    0  0.20093322723E+02  0.48994047884E+01 -0.11510571271E+02  0.23669369163E+02  0.51100000000E-03 0. -1.
        -11    1    3    3    0    0  0.12399402048E+01 -0.11893315576E+01 -0.11240241780E+01  0.20531419531E+01  0.51100000000E-03 0.  1.
        -12    1    3    3    0    0  0.17545364818E+02 -0.26951094845E+01 -0.10092823671E+02  0.20419807330E+02  0.00000000000E+00 0.  1.
</event>
<event>
 7    1  0.2250716E-008  0.4614232E+02  0.7816164E-02  0.1320468E+00
        -11   -1    0    0    0    0  0.00000000000E+00  0.00000000000E+00  0.45593999997E+02  0.45594000000E+02  0.51100000000E-03 0. -1.
         11   -1    0    0    0    0 -0.00000000000E+00 -0.00000000000E+00 -0.45593999997E+02  0.45594000000E+02  0.51100000000E-03 0.  1.
    9900012    2    1    2    0    0 -0.13804537374E+02  0.10192096663E+02 -0.41649362287E+02  0.46142318016E+02  0.10000002324E+02 0.  0.
         12    1    1    2    0    0  0.13804537374E+02 -0.10192096663E+02  0.41649362287E+02  0.45045681984E+02  0.00000000000E+00 0. -1.
         11    1    3    3    0    0 -0.51378217745E+00 -0.83837771532E+00 -0.13269302930E+01  0.16515427888E+01  0.51100000000E-03 0. -1.
        -11    1    3    3    0    0 -0.10946728100E+02  0.10415047802E+02 -0.26915967367E+02  0.30867027333E+02  0.51100000000E-03 0.  1.
         12    1    3    3    0    0 -0.23440270969E+01  0.61542657684E+00 -0.13406464627E+02  0.13623747895E+02  0.00000000000E+00 0. -1.
</event>
<event>
 7    1  0.2250716E-008  0.4614232E+02  0.7816164E-02  0.1320468E+00
        -11   -1    0    0    0    0  0.00000000000E+00  0.00000000000E+00  0.45593999997E+02  0.45594000000E+02  0.51100000000E-03 0.  1.
         11   -1    0    0    0    0 -0.00000000000E+00 -0.00000000000E+00 -0.45593999997E+02  0.45594000000E+02  0.51100000000E-03 0. -1.
    9900012    2    1    2    0    0  0.72333963142E+01 -0.43131121285E+02  0.10793420373E+02  0.46142316867E+02  0.99999918493E+01 0.  0.
         12    1    1    2    0    0 -0.72333963142E+01  0.43131121285E+02 -0.10793420373E+02  0.45045683133E+02  0.00000000000E+00 0. -1.
         11    1    3    3    0    0 -0.10204025674E+01 -0.36263570111E+01  0.49338534607E-01  0.37675086097E+01  0.51100000000E-03 0. -1.
        -11    1    3    3    0    0  0.36797271420E+01 -0.31754798786E+02  0.77837326874E+01  0.32901278586E+02  0.51100000000E-03 0.  1.
        -12    1    3    3    0    0  0.45740717397E+01 -0.77499654876E+01  0.29603491509E+01  0.94735296713E+01  0.00000000000E+00 0.  1.
</event>
<event>
 7    1  0.2250716E-008  0.4614232E+02  0.7816164E-02  0.1320468E+00
        -11   -1    0    0    0    0  0.00000000000E+00  0.00000000000E+00  0.45593999997E+02  0.45594000000E+02  0.51100000000E-03 0. -1.
         11   -1    0    0    0    0 -0.00000000000E+00 -0.00000000000E+00 -0.45593999997E+02  0.45594000000E+02  0.51100000000E-03 0.  1.
    9900012    2    1    2    0    0 -0.16116297496E+02  0.33343935272E+02 -0.25642938368E+02  0.46142319269E+02  0.10000013751E+02 0.  0.
         12    1    1    2    0    0  0.16116297496E+02 -0.33343935272E+02  0.25642938368E+02  0.45045680731E+02  0.00000000000E+00 0. -1.
         11    1    3    3    0    0 -0.26393173348E+01  0.26601781136E+01 -0.43956637199E+01  0.57761928110E+01  0.51100000000E-03 0. -1.
        -11    1    3    3    0    0 -0.44581147652E+01  0.94217899737E+01 -0.27600055247E+01  0.10782511040E+02  0.51100000000E-03 0.  1.
        -12    1    3    3    0    0 -0.90188653955E+01  0.21261967185E+02 -0.18487269123E+02  0.29583615418E+02  0.00000000000E+00 0.  1.
</event>
<event>
 7    1  0.2250716E-008  0.4614232E+02  0.7816164E-02  0.1320468E+00
        -11   -1    0    0    0    0  0.00000000000E+00  0.00000000000E+00  0.45593999997E+02  0.45594000000E+02  0.51100000000E-03 0.  1.
         11   -1    0    0    0    0 -0.00000000000E+00 -0.00000000000E+00 -0.45593999997E+02  0.45594000000E+02  0.51100000000E-03 0. -1.
    9900012    2    1    2    0    0 -0.38507872171E+02  0.73348617588E+01  0.22191374564E+02  0.46142317397E+02  0.99999966797E+01 0.  0.
         12    1    1    2    0    0  0.38507872171E+02 -0.73348617588E+01 -0.22191374564E+02  0.45045682603E+02  0.00000000000E+00 0. -1.
         11    1    3    3    0    0 -0.11631006859E+02  0.55855462863E+00  0.75520836512E+01  0.13878986691E+02  0.51100000000E-03 0. -1.
        -11    1    3    3    0    0 -0.14474443568E+02  0.19110271035E+01  0.11475873613E+02  0.18570331624E+02  0.51100000000E-03 0.  1.
         12    1    3    3    0    0 -0.12402421744E+02  0.48652800267E+01  0.31634172999E+01  0.13692999082E+02  0.00000000000E+00 0. -1.
</event>
<event>
 7    1  0.2250716E-008  0.4614232E+02  0.7816164E-02  0.1320468E+00
        -11   -1    0    0    0    0  0.00000000000E+00  0.00000000000E+00  0.45593999997E+02  0.45594000000E+02  0.51100000000E-03 0.  1.
         11   -1    0    0    0    0 -0.00000000000E+00 -0.00000000000E+00 -0.45593999997E+02  0.45594000000E+02  0.51100000000E-03 0. -1.
    9900012    2    1    2    0    0  0.42769827290E+02 -0.12630222646E+02  0.63508210681E+01  0.46142316758E+02  0.99999908495E+01 0.  0.
         12    1    1    2    0    0 -0.42769827290E+02  0.12630222646E+02 -0.63508210681E+01  0.45045683242E+02  0.00000000000E+00 0. -1.
         11    1    3    3    0    0  0.93442851403E+00 -0.54631988615E+00  0.89847333691E+00  0.14067255113E+01  0.51100000000E-03 0. -1.
        -11    1    3    3    0    0  0.36770846372E+02 -0.13117755425E+02  0.61419097167E+01  0.39520800922E+02  0.51100000000E-03 0.  1.
        -12    1    3    3    0    0  0.50645524045E+01  0.10338526659E+01 -0.68956198550E+00  0.52147903242E+01  0.00000000000E+00 0.  1.
</event>
<event>
 7    1  0.2250716E-008  0.4614232E+02  0.7816164E-02  0.1320468E+00
        -11   -1    0    0    0    0  0.00000000000E+00  0.00000000000E+00  0.45593999997E+02  0.45594000000E+02  0.51100000000E-03 0.  1.
         11   -1    0    0    0    0 -0.00000000000E+00 -0.00000000000E+00 -0.45593999997E+02  0.45594000000E+02  0.51100000000E-03 0. -1.
    9900012    2    1    2    0    0 -0.11158074290E+02 -0.41649900610E+02  0.13034436383E+02  0.46142319025E+02  0.10000011526E+02 0.  0.
         12    1    1    2    0    0  0.11158074290E+02  0.41649900610E+02 -0.13034436383E+02  0.45045680975E+02  0.00000000000E+00 0. -1.
         11    1    3    3    0    0 -0.49181992444E+01 -0.17129682749E+02  0.27452531324E+01  0.18031947480E+02  0.51100000000E-03 0. -1.
        -11    1    3    3    0    0 -0.73632981542E+01 -0.21931576255E+02  0.10209689121E+02  0.25287347606E+02  0.51100000000E-03 0.  1.
         12    1    3    3    0    0  0.11234231090E+01 -0.25886416061E+01  0.79494129623E-01  0.28230239396E+01  0.00000000000E+00 0. -1.
</event>
<event>
 7    1  0.2250716E-008  0.4614232E+02  0.7816164E-02  0.1320468E+00
        -11   -1    0    0    0    0  0.00000000000E+00  0.00000000000E+00  0.45593999997E+02  0.45594000000E+02  0.51100000000E-03 0. -1.
         11   -1    0    0    0    0 -0.00000000000E+00 -0.00000000000E+00 -0.45593999997E+02  0.45594000000E+02  0.51100000000E-03 0.  1.
    9900012    2    1    2    0    0  0.84150360156E+01  0.44219210006E+02 -0.17210806308E+01  0.46142317818E+02  0.10000000521E+02 0.  0.
         12    1    1    2    0    0 -0.84150360156E+01 -0.44219210006E+02  0.17210806308E+01  0.45045682182E+02  0.00000000000E+00 0. -1.
         11    1    3    3    0    0  0.30313685581E+01  0.27097409848E+02  0.27139610131E+01  0.27401175165E+02  0.51100000000E-03 0. -1.
        -11    1    3    3    0    0  0.68352666401E+00  0.70449597760E+01 -0.13984075965E+01  0.72148604292E+01  0.51100000000E-03 0.  1.
         12    1    3    3    0    0  0.47001407934E+01  0.10076840382E+02 -0.30366340473E+01  0.11526282224E+02  0.00000000000E+00 0. -1.
</event>
<event>
 7    1  0.2250716E-008  0.4614232E+02  0.7816164E-02  0.1320468E+00
        -11   -1    0    0    0    0  0.00000000000E+00  0.00000000000E+00  0.45593999997E+02  0.45594000000E+02  0.51100000000E-03 0.  1.
         11   -1    0    0    0    0 -0.00000000000E+00 -0.00000000000E+00 -0.45593999997E+02  0.45594000000E+02  0.51100000000E-03 0. -1.
    9900012    2    1    2    0    0 -0.10508514658E+02 -0.10950913421E+02  0.42411818276E+02  0.46142315251E+02  0.99999771077E+01 0.  0.
         12    1    1    2    0    0  0.10508514658E+02  0.10950913421E+02 -0.42411818276E+02  0.45045684749E+02  0.00000000000E+00 0. -1.
         11    1    3    3    0    0 -0.30348271304E+01  0.14808553678E+01  0.52243522495E+01  0.62206884684E+01  0.51100000000E-03 0. -1.
        -11    1    3    3    0    0 -0.13293817745E+01 -0.17982991979E+01  0.60064195808E+01  0.64092286859E+01  0.51100000000E-03 0.  1.
         12    1    3    3    0    0 -0.61443057531E+01 -0.10633469591E+02  0.31181046446E+02  0.33512398096E+02  0.00000000000E+00 0. -1.
</event>
<event>
 7    1  0.2250716E-008  0.4614232E+02  0.7816164E-02  0.1320468E+00
        -11   -1    0    0    0    0  0.00000000000E+00  0.00000000000E+00  0.45593999997E+02  0.45594000000E+02  0.51100000000E-03 0. -1.
         11   -1    0    0    0    0 -0.00000000000E+00 -0.00000000000E+00 -0.45593999997E+02  0.45594000000E+02  0.51100000000E-03 0.  1.
    9900012    2    1    2    0    0  0.37029339793E+01 -0.44500514230E+02  0.59250498942E+01  0.46142315378E+02  0.99999782733E+01 0.  0.
         12    1    1    2    0    0 -0.37029339793E+01  0.44500514230E+02 -0.59250498942E+01  0.45045684622E+02  0.00000000000E+00 0. -1.
         11    1    3    3    0    0  0.22659064550E+01 -0.72236941326E+01  0.14124790604E+01  0.77013756136E+01  0.51100000000E-03 0. -1.
        -11    1    3    3    0    0 -0.22564806193E+01 -0.14402319111E+02  0.45451887451E+01  0.15270142159E+02  0.51100000000E-03 0.  1.
        -12    1    3    3    0    0  0.36935081437E+01 -0.22874500986E+02 -0.32617911335E-01  0.23170797606E+02  0.00000000000E+00 0.  1.
</event>
<event>
 7    1  0.2250716E-008  0.4614232E+02  0.7816164E-02  0.1320468E+00
        -11   -1    0    0    0    0  0.00000000000E+00  0.00000000000E+00  0.45593999997E+02  0.45594000000E+02  0.51100000000E-03 0. -1.
         11   -1    0    0    0    0 -0.00000000000E+00 -0.00000000000E+00 -0.45593999997E+02  0.45594000000E+02  0.51100000000E-03 0.  1.
    9900012    2    1    2    0    0  0.33044132162E+02  0.27353181599E+02 -0.13747800388E+02  0.46142320635E+02  0.10000026209E+02 0.  0.
         12    1    1    2    0    0 -0.33044132162E+02 -0.27353181599E+02  0.13747800388E+02  0.45045679365E+02  0.00000000000E+00 0. -1.
         11    1    3    3    0    0  0.19205968270E+02  0.15129416142E+02 -0.93501817323E+01  0.26176217234E+02  0.51100000000E-03 0. -1.
        -11    1    3    3    0    0  0.46886135800E+01  0.57667240177E+01 -0.46458018506E+01  0.87647976757E+01  0.51100000000E-03 0.  1.
         12    1    3    3    0    0  0.91495503121E+01  0.64570414396E+01  0.24818319527E+00  0.11201305726E+02  0.00000000000E+00 0. -1.
</event>
<event>
 7    1  0.2250716E-008  0.4614232E+02  0.7816164E-02  0.1320468E+00
        -11   -1    0    0    0    0  0.00000000000E+00  0.00000000000E+00  0.45593999997E+02  0.45594000000E+02  0.51100000000E-03 0.  1.
         11   -1    0    0    0    0 -0.00000000000E+00 -0.00000000000E+00 -0.45593999997E+02  0.45594000000E+02  0.51100000000E-03 0. -1.
    9900012    2    1    2    0    0  0.18868745587E+02 -0.21340537356E+01  0.40847643061E+02  0.46142315534E+02  0.99999796930E+01 0.  0.
         12    1    1    2    0    0 -0.18868745587E+02  0.21340537356E+01 -0.40847643061E+02  0.45045684466E+02  0.00000000000E+00 0. -1.
         11    1    3    3    0    0  0.14516984644E+02  0.46110668402E+00  0.26766779631E+02  0.30453504800E+02  0.51100000000E-03 0. -1.
        -11    1    3    3    0    0  0.49923443273E+01 -0.23506402016E+01  0.89643997072E+01  0.10526607887E+02  0.51100000000E-03 0.  1.
         12    1    3    3    0    0 -0.64058338415E+00 -0.24452021805E+00  0.51164637229E+01  0.51622028474E+01  0.00000000000E+00 0. -1.
</event>
<event>
 7    1  0.2250716E-008  0.4614232E+02  0.7816164E-02  0.1320468E+00
        -11   -1    0    0    0    0  0.00000000000E+00  0.00000000000E+00  0.45593999997E+02  0.45594000000E+02  0.51100000000E-03 0. -1.
         11   -1    0    0    0    0 -0.00000000000E+00 -0.00000000000E+00 -0.45593999997E+02  0.45594000000E+02  0.51100000000E-03 0.  1.
    9900012    2    1    2    0    0 -0.28509664546E+02  0.23757366116E+02 -0.25532330129E+02  0.46142319862E+02  0.10000019159E+02 0.  0.
         12    1    1    2    0    0  0.28509664546E+02 -0.23757366116E+02  0.25532330129E+02  0.45045680138E+02  0.00000000000E+00 0. -1.
         11    1    3    3    0    0 -0.19766764634E+02  0.12401927631E+02 -0.14390927408E+02  0.27415900222E+02  0.51100000000E-03 0. -1.
        -11    1    3    3    0    0 -0.25360735475E+01  0.78706649790E+00 -0.30311927373E+01  0.40297980572E+01  0.51100000000E-03 0.  1.
         12    1    3    3    0    0 -0.62068263643E+01  0.10568371987E+02 -0.81102099833E+01  0.14696621583E+02  0.00000000000E+00 0. -1.
</event>
<event>
 7    1  0.2250716E-008  0.4614232E+02  0.7816164E-02  0.1320468E+00
        -11   -1    0    0    0    0  0.00000000000E+00  0.00000000000E+00  0.45593999997E+02  0.45594000000E+02  0.51100000000E-03 0.  1.
         11   -1    0    0    0    0 -0.00000000000E+00 -0.00000000000E+00 -0.45593999997E+02  0.45594000000E+02  0.51100000000E-03 0. -1.
    9900012    2    1    2    0    0  0.16995162090E+02  0.37663394819E+02  0.17937297281E+02  0.46142317881E+02  0.10000001097E+02 0.  0.
         12    1    1    2    0    0 -0.16995162090E+02 -0.37663394819E+02 -0.17937297281E+02  0.45045682119E+02  0.00000000000E+00 0. -1.
         11    1    3    3    0    0  0.64811454504E+01  0.99629111705E+01  0.80428030958E+00  0.11912670247E+02  0.51100000000E-03 0. -1.
        -11    1    3    3    0    0  0.55884764180E+01  0.15258796739E+02  0.95961338312E+01  0.18871876732E+02  0.51100000000E-03 0.  1.
         12    1    3    3    0    0  0.49255402220E+01  0.12441686909E+02  0.75368831402E+01  0.15357770903E+02  0.00000000000E+00 0. -1.
</event>
<event>
 7    1  0.2250716E-008  0.4614232E+02  0.7816164E-02  0.1320468E+00
        -11   -1    0    0    0    0  0.00000000000E+00  0.00000000000E+00  0.45593999997E+02  0.45594000000E+02  0.51100000000E-03 0.  1.
         11   -1    0    0    0    0 -0.00000000000E+00 -0.00000000000E+00 -0.45593999997E+02  0.45594000000E+02  0.51100000000E-03 0. -1.
    9900012    2    1    2    0    0  0.36581592884E+02  0.97461746538E+01  0.24411322564E+02  0.46142317325E+02  0.99999960258E+01 0.  0.
         12    1    1    2    0    0 -0.36581592884E+02 -0.97461746538E+01 -0.24411322564E+02  0.45045682675E+02  0.00000000000E+00 0. -1.
         11    1    3    3    0    0  0.21070930600E+02  0.41979630259E+01  0.16453807465E+02  0.27061684912E+02  0.51100000000E-03 0. -1.
        -11    1    3    3    0    0  0.15290890620E+02  0.62823811715E+01  0.73015132640E+01  0.18071849528E+02  0.51100000000E-03 0.  1.
         12    1    3    3    0    0  0.21977166370E+00 -0.73416954360E+00  0.65600183544E+00  0.10087828860E+01  0.00000000000E+00 0. -1.
</event>
<event>
 7    1  0.2250716E-008  0.4614232E+02  0.7816164E-02  0.1320468E+00
        -11   -1    0    0    0    0  0.00000000000E+00  0.00000000000E+00  0.45593999997E+02  0.45594000000E+02  0.51100000000E-03 0.  1.
         11   -1    0    0    0    0 -0.00000000000E+00 -0.00000000000E+00 -0.45593999997E+02  0.45594000000E+02  0.51100000000E-03 0. -1.
    9900012    2    1    2    0    0  0.30422778510E+02  0.12796889150E+02  0.30656281501E+02  0.46142318524E+02  0.10000006954E+02 0.  0.
         12    1    1    2    0    0 -0.30422778510E+02 -0.12796889150E+02 -0.30656281501E+02  0.45045681476E+02  0.00000000000E+00 0. -1.
         11    1    3    3    0    0  0.16294829758E+02  0.76688630672E+01  0.10785809273E+02  0.20992060868E+02  0.51100000000E-03 0. -1.
        -11    1    3    3    0    0  0.12355459921E+02  0.56264967051E+01  0.17488945223E+02  0.22139965228E+02  0.51100000000E-03 0.  1.
         12    1    3    3    0    0  0.17724888313E+01 -0.49847062237E+00  0.23815270058E+01  0.30102924273E+01  0.00000000000E+00 0. -1.
</event>
<event>
 7    1  0.2250716E-008  0.4614232E+02  0.7816164E-02  0.1320468E+00
        -11   -1    0    0    0    0  0.00000000000E+00  0.00000000000E+00  0.45593999997E+02  0.45594000000E+02  0.51100000000E-03 0.  1.
         11   -1    0    0    0    0 -0.00000000000E+00 -0.00000000000E+00 -0.45593999997E+02  0.45594000000E+02  0.51100000000E-03 0. -1.
    9900012    2    1    2    0    0 -0.19665489595E+02  0.35131778395E+02  0.20202479787E+02  0.46142317368E+02  0.99999964152E+01 0.  0.
         12    1    1    2    0    0  0.19665489595E+02 -0.35131778395E+02 -0.20202479787E+02  0.45045682632E+02  0.00000000000E+00 0. -1.
         11    1    3    3    0    0 -0.10375788965E+02  0.19852025831E+02  0.59836013606E+01  0.23185413771E+02  0.51100000000E-03 0. -1.
        -11    1    3    3    0    0 -0.12856058867E+01  0.15206120222E+01  0.24699446364E+01  0.31726440370E+01  0.51100000000E-03 0.  1.
        -12    1    3    3    0    0 -0.80040947441E+01  0.13759140542E+02  0.11748933790E+02  0.19784259560E+02  0.00000000000E+00 0.  1.
</event>
<event>
 7    1  0.2250716E-008  0.4614232E+02  0.7816164E-02  0.1320468E+00
        -11   -1    0    0    0    0  0.00000000000E+00  0.00000000000E+00  0.45593999997E+02  0.45594000000E+02  0.51100000000E-03 0. -1.
         11   -1    0    0    0    0 -0.00000000000E+00 -0.00000000000E+00 -0.45593999997E+02  0.45594000000E+02  0.51100000000E-03 0.  1.
    9900012    2    1    2    0    0 -0.26782109845E+02 -0.34679403866E+02  0.10448494466E+02  0.46142317667E+02  0.99999991441E+01 0.  0.
         12    1    1    2    0    0  0.26782109845E+02  0.34679403866E+02 -0.10448494466E+02  0.45045682333E+02  0.00000000000E+00 0. -1.
         11    1    3    3    0    0 -0.75665571894E+01 -0.10611542149E+02  0.63281568630E+01  0.14488035892E+02  0.51100000000E-03 0. -1.
        -11    1    3    3    0    0 -0.10065320468E+02 -0.12185220293E+02 -0.92261856586E+00  0.15831661157E+02  0.51100000000E-03 0.  1.
        -12    1    3    3    0    0 -0.91502321873E+01 -0.11882641424E+02  0.50429561690E+01  0.15822620618E+02  0.00000000000E+00 0.  1.
</event>
<event>
 7    1  0.2250716E-008  0.4614232E+02  0.7816164E-02  0.1320468E+00
        -11   -1    0    0    0    0  0.00000000000E+00  0.00000000000E+00  0.45593999997E+02  0.45594000000E+02  0.51100000000E-03 0.  1.
         11   -1    0    0    0    0 -0.00000000000E+00 -0.00000000000E+00 -0.45593999997E+02  0.45594000000E+02  0.51100000000E-03 0. -1.
    9900012    2    1    2    0    0  0.27055534766E+02 -0.32479177230E+02  0.15563244709E+02  0.46142317622E+02  0.99999987327E+01 0.  0.
         12    1    1    2    0    0 -0.27055534766E+02  0.32479177230E+02 -0.15563244709E+02  0.45045682378E+02  0.00000000000E+00 0. -1.
         11    1    3    3    0    0  0.71666881927E+00 -0.23787467450E+01  0.33330698677E+01  0.41570909634E+01  0.51100000000E-03 0. -1.
        -11    1    3    3    0    0  0.12104148864E+02 -0.15658047015E+02  0.45973923935E+01  0.20317993826E+02  0.51100000000E-03 0.  1.
         12    1    3    3    0    0  0.14234717083E+02 -0.14442383470E+02  0.76327824478E+01  0.21667232832E+02  0.00000000000E+00 0. -1.
</event>
<event>
 7    1  0.2250716E-008  0.4614232E+02  0.7816164E-02  0.1320468E+00
        -11   -1    0    0    0    0  0.00000000000E+00  0.00000000000E+00  0.45593999997E+02  0.45594000000E+02  0.51100000000E-03 0.  1.
         11   -1    0    0    0    0 -0.00000000000E+00 -0.00000000000E+00 -0.45593999997E+02  0.45594000000E+02  0.51100000000E-03 0. -1.
    9900012    2    1    2    0    0 -0.34599014066E+02 -0.19177557807E+02  0.21546301247E+02  0.46142316575E+02  0.99999891884E+01 0.  0.
         12    1    1    2    0    0  0.34599014066E+02  0.19177557807E+02 -0.21546301247E+02  0.45045683425E+02  0.00000000000E+00 0. -1.
         11    1    3    3    0    0 -0.13194474131E+02 -0.59735073185E+01  0.34569467075E+01  0.14890514366E+02  0.51100000000E-03 0. -1.
        -11    1    3    3    0    0 -0.39199936205E+01 -0.15227294976E+01  0.47774214983E+01  0.63646532931E+01  0.51100000000E-03 0.  1.
         12    1    3    3    0    0 -0.17484546314E+02 -0.11681320991E+02  0.13311933041E+02  0.24887148917E+02  0.00000000000E+00 0. -1.
</event>
<event>
 7    1  0.2250716E-008  0.4614232E+02  0.7816164E-02  0.1320468E+00
        -11   -1    0    0    0    0  0.00000000000E+00  0.00000000000E+00  0.45593999997E+02  0.45594000000E+02  0.51100000000E-03 0.  1.
         11   -1    0    0    0    0 -0.00000000000E+00 -0.00000000000E+00 -0.45593999997E+02  0.45594000000E+02  0.51100000000E-03 0. -1.
    9900012    2    1    2    0    0 -0.35621239070E+02 -0.25005862042E+02  0.11616693322E+02  0.46142319041E+02  0.10000011671E+02 0.  0.
         12    1    1    2    0    0  0.35621239070E+02  0.25005862042E+02 -0.11616693322E+02  0.45045680959E+02  0.00000000000E+00 0. -1.
         11    1    3    3    0    0 -0.37475517200E+01 -0.31345901207E+01  0.16104879590E+01  0.51442658219E+01  0.51100000000E-03 0. -1.
        -11    1    3    3    0    0 -0.28725416807E+02 -0.22197350708E+02  0.10509578610E+02  0.37793163297E+02  0.51100000000E-03 0.  1.
         12    1    3    3    0    0 -0.31482705432E+01  0.32607878671E+00 -0.50337324709E+00  0.32048899223E+01  0.00000000000E+00 0. -1.
</event>
<event>
 7    1  0.2250716E-008  0.4614232E+02  0.7816164E-02  0.1320468E+00
        -11   -1    0    0    0    0  0.00000000000E+00  0.00000000000E+00  0.45593999997E+02  0.45594000000E+02  0.51100000000E-03 0.  1.
         11   -1    0    0    0    0 -0.00000000000E+00 -0.00000000000E+00 -0.45593999997E+02  0.45594000000E+02  0.51100000000E-03 0. -1.
    9900012    2    1    2    0    0  0.41019378095E+02 -0.41574803729E+01  0.18144954741E+02  0.46142318687E+02  0.10000008445E+02 0.  0.
         12    1    1    2    0    0 -0.41019378095E+02  0.41574803729E+01 -0.18144954741E+02  0.45045681313E+02  0.00000000000E+00 0. -1.
         11    1    3    3    0    0  0.15182414395E+02 -0.41113389525E+01  0.89152311562E+01  0.18080104028E+02  0.51100000000E-03 0.  1.
        -11    1    3    3    0    0  0.11883096803E+02 -0.13222817658E+00  0.73726691140E+01  0.13985053594E+02  0.51100000000E-03 0. -1.
        -12    1    3    3    0    0  0.13953866898E+02  0.86086756149E-01  0.18570544706E+01  0.14077161065E+02  0.00000000000E+00 0.  1.
</event>
<event>
 7    1  0.2250716E-008  0.4614232E+02  0.7816164E-02  0.1320468E+00
        -11   -1    0    0    0    0  0.00000000000E+00  0.00000000000E+00  0.45593999997E+02  0.45594000000E+02  0.51100000000E-03 0.  1.
         11   -1    0    0    0    0 -0.00000000000E+00 -0.00000000000E+00 -0.45593999997E+02  0.45594000000E+02  0.51100000000E-03 0. -1.
    9900012    2    1    2    0    0 -0.10293600889E+02 -0.43835014888E+01  0.43634163858E+02  0.46142316964E+02  0.99999927345E+01 0.  0.
         12    1    1    2    0    0  0.10293600889E+02  0.43835014888E+01 -0.43634163858E+02  0.45045683036E+02  0.00000000000E+00 0. -1.
         11    1    3    3    0    0 -0.11012692088E+01 -0.17992411362E+00  0.76770760240E+01  0.77577485842E+01  0.51100000000E-03 0. -1.
        -11    1    3    3    0    0 -0.39922765884E+01 -0.19985479686E+01  0.29370218375E+02  0.29707611718E+02  0.51100000000E-03 0.  1.
         12    1    3    3    0    0 -0.52000550919E+01 -0.22050294065E+01  0.65868694586E+01  0.86769566616E+01  0.00000000000E+00 0. -1.
</event>
<event>
 7    1  0.2250716E-008  0.4614232E+02  0.7816164E-02  0.1320468E+00
        -11   -1    0    0    0    0  0.00000000000E+00  0.00000000000E+00  0.45593999997E+02  0.45594000000E+02  0.51100000000E-03 0. -1.
         11   -1    0    0    0    0 -0.00000000000E+00 -0.00000000000E+00 -0.45593999997E+02  0.45594000000E+02  0.51100000000E-03 0.  1.
    9900012    2    1    2    0    0 -0.10140260822E+02 -0.33780818777E+02 -0.28020437273E+02  0.46142317502E+02  0.99999976346E+01 0.  0.
         12    1    1    2    0    0  0.10140260822E+02  0.33780818777E+02  0.28020437273E+02  0.45045682498E+02  0.00000000000E+00 0. -1.
         11    1    3    3    0    0 -0.10066629534E+01  0.11137418040E+00 -0.19677031285E+01  0.22130590531E+01  0.51100000000E-03 0. -1.
        -11    1    3    3    0    0 -0.41491286887E+01 -0.10884154643E+02 -0.10752769658E+02  0.15852512317E+02  0.51100000000E-03 0.  1.
        -12    1    3    3    0    0 -0.49844691804E+01 -0.23008038314E+02 -0.15299964486E+02  0.28076746132E+02  0.00000000000E+00 0.  1.
</event>
<event>
 7    1  0.2250716E-008  0.4614232E+02  0.7816164E-02  0.1320468E+00
        -11   -1    0    0    0    0  0.00000000000E+00  0.00000000000E+00  0.45593999997E+02  0.45594000000E+02  0.51100000000E-03 0.  1.
         11   -1    0    0    0    0 -0.00000000000E+00 -0.00000000000E+00 -0.45593999997E+02  0.45594000000E+02  0.51100000000E-03 0. -1.
    9900012    2    1    2    0    0 -0.11573365030E+00 -0.45043914608E+02  0.38192204886E+00  0.46142317611E+02  0.99999986290E+01 0.  0.
         12    1    1    2    0    0  0.11573365030E+00  0.45043914608E+02 -0.38192204886E+00  0.45045682389E+02  0.00000000000E+00 0. -1.
         11    1    3    3    0    0 -0.22303009800E+01 -0.10717755752E+02  0.13264770122E+01  0.11027423650E+02  0.51100000000E-03 0. -1.
        -11    1    3    3    0    0  0.13144136885E+01 -0.33302259980E+02  0.27998480754E+00  0.33329365354E+02  0.51100000000E-03 0.  1.
         12    1    3    3    0    0  0.80015364123E+00 -0.10238988749E+01 -0.12245397708E+01  0.17855286069E+01  0.00000000000E+00 0. -1.
</event>
<event>
 7    1  0.2250716E-008  0.4614232E+02  0.7816164E-02  0.1320468E+00
        -11   -1    0    0    0    0  0.00000000000E+00  0.00000000000E+00  0.45593999997E+02  0.45594000000E+02  0.51100000000E-03 0.  1.
         11   -1    0    0    0    0 -0.00000000000E+00 -0.00000000000E+00 -0.45593999997E+02  0.45594000000E+02  0.51100000000E-03 0. -1.
    9900012    2    1    2    0    0  0.28519453554E+02  0.10999026480E+02  0.33087395668E+02  0.46142316893E+02  0.99999920809E+01 0.  0.
         12    1    1    2    0    0 -0.28519453554E+02 -0.10999026480E+02 -0.33087395668E+02  0.45045683107E+02  0.00000000000E+00 0. -1.
         11    1    3    3    0    0  0.51923802373E+00  0.94602054080E+00  0.52626080771E+00  0.12006305376E+01  0.51100000000E-03 0. -1.
        -11    1    3    3    0    0  0.14109149897E+02  0.63783438033E+01  0.10852383819E+02  0.18908347767E+02  0.51100000000E-03 0.  1.
         12    1    3    3    0    0  0.13891065634E+02  0.36746621357E+01  0.21708751041E+02  0.26033338588E+02  0.00000000000E+00 0. -1.
</event>
<event>
 7    1  0.2250716E-008  0.4614232E+02  0.7816164E-02  0.1320468E+00
        -11   -1    0    0    0    0  0.00000000000E+00  0.00000000000E+00  0.45593999997E+02  0.45594000000E+02  0.51100000000E-03 0. -1.
         11   -1    0    0    0    0 -0.00000000000E+00 -0.00000000000E+00 -0.45593999997E+02  0.45594000000E+02  0.51100000000E-03 0.  1.
    9900012    2    1    2    0    0 -0.35300427304E+02  0.19167258120E+02 -0.20386500438E+02  0.46142319278E+02  0.10000013828E+02 0.  0.
         12    1    1    2    0    0  0.35300427304E+02 -0.19167258120E+02  0.20386500438E+02  0.45045680722E+02  0.00000000000E+00 0. -1.
         11    1    3    3    0    0 -0.18951106137E+00  0.45943116010E+00  0.16188455991E+00  0.52268375249E+00  0.51100000000E-03 0. -1.
        -11    1    3    3    0    0 -0.73714001212E+01  0.73035008742E+01 -0.27156879560E+01  0.10726305333E+02  0.51100000000E-03 0.  1.
         12    1    3    3    0    0 -0.27739516121E+02  0.11404326086E+02 -0.17832697042E+02  0.34893330192E+02  0.00000000000E+00 0. -1.
</event>
<event>
 7    1  0.2250716E-008  0.4614232E+02  0.7816164E-02  0.1320468E+00
        -11   -1    0    0    0    0  0.00000000000E+00  0.00000000000E+00  0.45593999997E+02  0.45594000000E+02  0.51100000000E-03 0.  1.
         11   -1    0    0    0    0 -0.00000000000E+00 -0.00000000000E+00 -0.45593999997E+02  0.45594000000E+02  0.51100000000E-03 0. -1.
    9900012    2    1    2    0    0 -0.35278345781E+02  0.99531568919E+00  0.27992164451E+02  0.46142316466E+02  0.99999881944E+01 0.  0.
         12    1    1    2    0    0  0.35278345781E+02 -0.99531568919E+00 -0.27992164451E+02  0.45045683534E+02  0.00000000000E+00 0. -1.
         11    1    3    3    0    0 -0.28816087884E+02  0.39716524406E+01  0.23881149422E+02  0.37635757492E+02  0.51100000000E-03 0. -1.
        -11    1    3    3    0    0 -0.48053370786E+01 -0.14026397950E+01  0.35973724633E+01  0.61643938659E+01  0.51100000000E-03 0.  1.
         12    1    3    3    0    0 -0.16569208187E+01 -0.15736969564E+01  0.51364256558E+00  0.23421651084E+01  0.00000000000E+00 0. -1.
</event>
<event>
 7    1  0.2250716E-008  0.4614231E+02  0.7816164E-02  0.1320468E+00
        -11   -1    0    0    0    0  0.00000000000E+00  0.00000000000E+00  0.45593999997E+02  0.45594000000E+02  0.51100000000E-03 0.  1.
         11   -1    0    0    0    0 -0.00000000000E+00 -0.00000000000E+00 -0.45593999997E+02  0.45594000000E+02  0.51100000000E-03 0. -1.
    9900012    2    1    2    0    0 -0.38990984131E+02 -0.11802722666E+01 -0.22526075219E+02  0.46142312627E+02  0.99999531858E+01 0.  0.
         12    1    1    2    0    0  0.38990984131E+02  0.11802722666E+01  0.22526075219E+02  0.45045687373E+02  0.00000000000E+00 0. -1.
         11    1    3    3    0    0 -0.24985059025E+02 -0.38564958366E+01 -0.11747030585E+02  0.27876844557E+02  0.51100000000E-03 0. -1.
        -11    1    3    3    0    0 -0.74183531848E+01  0.25974550476E+01 -0.40255193462E+01  0.88308291211E+01  0.51100000000E-03 0.  1.
         12    1    3    3    0    0 -0.65875719208E+01  0.78768522408E-01 -0.67535252873E+01  0.94346389490E+01  0.00000000000E+00 0. -1.
</event>
<event>
 7    1  0.2250716E-008  0.4614232E+02  0.7816164E-02  0.1320468E+00
        -11   -1    0    0    0    0  0.00000000000E+00  0.00000000000E+00  0.45593999997E+02  0.45594000000E+02  0.51100000000E-03 0.  1.
         11   -1    0    0    0    0 -0.00000000000E+00 -0.00000000000E+00 -0.45593999997E+02  0.45594000000E+02  0.51100000000E-03 0. -1.
    9900012    2    1    2    0    0  0.81576625704E+01 -0.37646665917E+01  0.44140609305E+02  0.46142316933E+02  0.99999924444E+01 0.  0.
         12    1    1    2    0    0 -0.81576625704E+01  0.37646665917E+01 -0.44140609305E+02  0.45045683067E+02  0.00000000000E+00 0. -1.
         11    1    3    3    0    0 -0.96426929852E+00 -0.29860044662E+00  0.29700971696E+01  0.31369499462E+01  0.51100000000E-03 0. -1.
        -11    1    3    3    0    0  0.12444690635E+01  0.19467205237E+01  0.14303208756E+02  0.14488623297E+02  0.51100000000E-03 0.  1.
        -12    1    3    3    0    0  0.78774628054E+01 -0.54127866688E+01  0.26867303380E+02  0.28516743690E+02  0.00000000000E+00 0.  1.
</event>
<event>
 7    1  0.2250716E-008  0.4614232E+02  0.7816164E-02  0.1320468E+00
        -11   -1    0    0    0    0  0.00000000000E+00  0.00000000000E+00  0.45593999997E+02  0.45594000000E+02  0.51100000000E-03 0.  1.
         11   -1    0    0    0    0 -0.00000000000E+00 -0.00000000000E+00 -0.45593999997E+02  0.45594000000E+02  0.51100000000E-03 0. -1.
    9900012    2    1    2    0    0 -0.33141259610E+02 -0.25965485891E+02  0.16017604455E+02  0.46142320978E+02  0.10000029333E+02 0.  0.
         12    1    1    2    0    0  0.33141259610E+02  0.25965485891E+02 -0.16017604455E+02  0.45045679022E+02  0.00000000000E+00 0. -1.
         11    1    3    3    0    0 -0.12008946478E+02 -0.12267709273E+02  0.99840703674E+01  0.19859334019E+02  0.51100000000E-03 0. -1.
        -11    1    3    3    0    0 -0.10184068108E+02 -0.90436657358E+01  0.41515266274E+01  0.14238620255E+02  0.51100000000E-03 0.  1.
         12    1    3    3    0    0 -0.10948245025E+02 -0.46541108820E+01  0.18820074598E+01  0.12044366704E+02  0.00000000000E+00 0. -1.
</event>
<event>
 7    1  0.2250716E-008  0.4614232E+02  0.7816164E-02  0.1320468E+00
        -11   -1    0    0    0    0  0.00000000000E+00  0.00000000000E+00  0.45593999997E+02  0.45594000000E+02  0.51100000000E-03 0. -1.
         11   -1    0    0    0    0 -0.00000000000E+00 -0.00000000000E+00 -0.45593999997E+02  0.45594000000E+02  0.51100000000E-03 0.  1.
    9900012    2    1    2    0    0  0.14507342392E+02  0.42510603609E+02  0.33910228670E+01  0.46142318314E+02  0.10000005045E+02 0.  0.
         12    1    1    2    0    0 -0.14507342392E+02 -0.42510603609E+02 -0.33910228670E+01  0.45045681686E+02  0.00000000000E+00 0. -1.
         11    1    3    3    0    0 -0.27944042969E+00 -0.61309699554E-01  0.57077863519E+00  0.63846248481E+00  0.51100000000E-03 0. -1.
        -11    1    3    3    0    0  0.18028442836E+01  0.98393473277E+01 -0.11412487962E+01  0.10068041141E+02  0.51100000000E-03 0.  1.
        -12    1    3    3    0    0  0.12983938538E+02  0.32732565980E+02  0.39614930280E+01  0.35435814688E+02  0.00000000000E+00 0.  1.
</event>
<event>
 7    1  0.2250716E-008  0.4614232E+02  0.7816164E-02  0.1320468E+00
        -11   -1    0    0    0    0  0.00000000000E+00  0.00000000000E+00  0.45593999997E+02  0.45594000000E+02  0.51100000000E-03 0. -1.
         11   -1    0    0    0    0 -0.00000000000E+00 -0.00000000000E+00 -0.45593999997E+02  0.45594000000E+02  0.51100000000E-03 0.  1.
    9900012    2    1    2    0    0 -0.38028078468E+02 -0.14693949847E+02 -0.19158980319E+02  0.46142318287E+02  0.10000004797E+02 0.  0.
         12    1    1    2    0    0  0.38028078468E+02  0.14693949847E+02  0.19158980319E+02  0.45045681713E+02  0.00000000000E+00 0. -1.
         11    1    3    3    0    0 -0.36625828582E+01 -0.40919688662E+01 -0.13971803727E+01  0.56666423612E+01  0.51100000000E-03 0. -1.
        -11    1    3    3    0    0 -0.27439263076E+02 -0.72117925783E+01 -0.11794839633E+02  0.30725255940E+02  0.51100000000E-03 0.  1.
         12    1    3    3    0    0 -0.69262325340E+01 -0.33901884027E+01 -0.59669603133E+01  0.97504199859E+01  0.00000000000E+00 0. -1.
</event>
<event>
 7    1  0.2250716E-008  0.4614232E+02  0.7816164E-02  0.1320468E+00
        -11   -1    0    0    0    0  0.00000000000E+00  0.00000000000E+00  0.45593999997E+02  0.45594000000E+02  0.51100000000E-03 0. -1.
         11   -1    0    0    0    0 -0.00000000000E+00 -0.00000000000E+00 -0.45593999997E+02  0.45594000000E+02  0.51100000000E-03 0.  1.
    9900012    2    1    2    0    0  0.41425075372E+02  0.16968931436E+02 -0.50131813475E+01  0.46142317733E+02  0.99999997452E+01 0.  0.
         12    1    1    2    0    0 -0.41425075372E+02 -0.16968931436E+02  0.50131813475E+01  0.45045682267E+02  0.00000000000E+00 0. -1.
         11    1    3    3    0    0  0.41374764839E+01  0.37430126345E+01 -0.49574163037E+00  0.56013047821E+01  0.51100000000E-03 0. -1.
        -11    1    3    3    0    0  0.16417177337E+02  0.40027257360E+01  0.14376465474E+01  0.16959137740E+02  0.51100000000E-03 0.  1.
         12    1    3    3    0    0  0.20870421551E+02  0.92231930657E+01 -0.59550862646E+01  0.23581875211E+02  0.00000000000E+00 0. -1.
</event>
<event>
 7    1  0.2250716E-008  0.4614232E+02  0.7816164E-02  0.1320468E+00
        -11   -1    0    0    0    0  0.00000000000E+00  0.00000000000E+00  0.45593999997E+02  0.45594000000E+02  0.51100000000E-03 0.  1.
         11   -1    0    0    0    0 -0.00000000000E+00 -0.00000000000E+00 -0.45593999997E+02  0.45594000000E+02  0.51100000000E-03 0. -1.
    9900012    2    1    2    0    0 -0.14565883160E+02 -0.23971363287E+02  0.35246591709E+02  0.46142318329E+02  0.10000005182E+02 0.  0.
         12    1    1    2    0    0  0.14565883160E+02  0.23971363287E+02 -0.35246591709E+02  0.45045681671E+02  0.00000000000E+00 0. -1.
         11    1    3    3    0    0  0.72199076356E+00 -0.21538374255E+01  0.16330542508E+01  0.27977049103E+01  0.51100000000E-03 0. -1.
        -11    1    3    3    0    0 -0.12926998609E+02 -0.16453751006E+02  0.22153694237E+02  0.30473256862E+02  0.51100000000E-03 0.  1.
         12    1    3    3    0    0 -0.23608753154E+01 -0.53637748556E+01  0.11459843221E+02  0.12871356557E+02  0.00000000000E+00 0. -1.
</event>
<event>
 7    1  0.2250716E-008  0.4614232E+02  0.7816164E-02  0.1320468E+00
        -11   -1    0    0    0    0  0.00000000000E+00  0.00000000000E+00  0.45593999997E+02  0.45594000000E+02  0.51100000000E-03 0. -1.
         11   -1    0    0    0    0 -0.00000000000E+00 -0.00000000000E+00 -0.45593999997E+02  0.45594000000E+02  0.51100000000E-03 0.  1.
    9900012    2    1    2    0    0 -0.23402229947E+02  0.32393720753E+02 -0.20786918814E+02  0.46142317582E+02  0.99999983647E+01 0.  0.
         12    1    1    2    0    0  0.23402229947E+02 -0.32393720753E+02  0.20786918814E+02  0.45045682418E+02  0.00000000000E+00 0. -1.
         11    1    3    3    0    0 -0.10583090266E+01  0.11542528042E+00  0.70070755239E+00  0.12744929683E+01  0.51100000000E-03 0. -1.
        -11    1    3    3    0    0 -0.13859508770E+02  0.17232107256E+02 -0.11973483238E+02  0.25147481085E+02  0.51100000000E-03 0.  1.
         12    1    3    3    0    0 -0.84844121506E+01  0.15046188217E+02 -0.95141431284E+01  0.19720343528E+02  0.00000000000E+00 0. -1.
</event>
<event>
 7    1  0.2250716E-008  0.4614232E+02  0.7816164E-02  0.1320468E+00
        -11   -1    0    0    0    0  0.00000000000E+00  0.00000000000E+00  0.45593999997E+02  0.45594000000E+02  0.51100000000E-03 0.  1.
         11   -1    0    0    0    0 -0.00000000000E+00 -0.00000000000E+00 -0.45593999997E+02  0.45594000000E+02  0.51100000000E-03 0. -1.
    9900012    2    1    2    0    0 -0.27222519908E+02 -0.65389892075E+01  0.35288660430E+02  0.46142317355E+02  0.99999962942E+01 0.  0.
         12    1    1    2    0    0  0.27222519908E+02  0.65389892075E+01 -0.35288660430E+02  0.45045682645E+02  0.00000000000E+00 0. -1.
         11    1    3    3    0    0 -0.28630758356E+01 -0.19218385227E+01  0.30029442355E+01  0.45725639296E+01  0.51100000000E-03 0. -1.
        -11    1    3    3    0    0 -0.55483514215E+01 -0.31137345013E+00  0.25338177376E+01  0.61074863496E+01  0.51100000000E-03 0.  1.
         12    1    3    3    0    0 -0.18811092651E+02 -0.43057772346E+01  0.29751898457E+02  0.35462267076E+02  0.00000000000E+00 0. -1.
</event>
<event>
 7    1  0.2250716E-008  0.4614232E+02  0.7816164E-02  0.1320468E+00
        -11   -1    0    0    0    0  0.00000000000E+00  0.00000000000E+00  0.45593999997E+02  0.45594000000E+02  0.51100000000E-03 0.  1.
         11   -1    0    0    0    0 -0.00000000000E+00 -0.00000000000E+00 -0.45593999997E+02  0.45594000000E+02  0.51100000000E-03 0. -1.
    9900012    2    1    2    0    0  0.43469944287E+02 -0.98239382639E+01  0.65549723706E+01  0.46142317831E+02  0.10000000636E+02 0.  0.
         12    1    1    2    0    0 -0.43469944287E+02  0.98239382639E+01 -0.65549723706E+01  0.45045682169E+02  0.00000000000E+00 0. -1.
         11    1    3    3    0    0  0.70339829532E+00  0.74531985169E+00 -0.32935450744E+00  0.10764504150E+01  0.51100000000E-03 0. -1.
        -11    1    3    3    0    0  0.39441249098E+02 -0.11073825431E+02  0.74983107311E+01  0.41646925506E+02  0.51100000000E-03 0.  1.
        -12    1    3    3    0    0  0.33252968938E+01  0.50456731552E+00 -0.61398385312E+00  0.34189419094E+01  0.00000000000E+00 0.  1.
</event>
<event>
 7    1  0.2250716E-008  0.4614232E+02  0.7816164E-02  0.1320468E+00
        -11   -1    0    0    0    0  0.00000000000E+00  0.00000000000E+00  0.45593999997E+02  0.45594000000E+02  0.51100000000E-03 0.  1.
         11   -1    0    0    0    0 -0.00000000000E+00 -0.00000000000E+00 -0.45593999997E+02  0.45594000000E+02  0.51100000000E-03 0. -1.
    9900012    2    1    2    0    0  0.12700570179E+01  0.32547371553E+02  0.31115415095E+02  0.46142317673E+02  0.99999991930E+01 0.  0.
         12    1    1    2    0    0 -0.12700570179E+01 -0.32547371553E+02 -0.31115415095E+02  0.45045682327E+02  0.00000000000E+00 0. -1.
         11    1    3    3    0    0 -0.28400521177E+01  0.11122036313E+02  0.81979158682E+01  0.14105722691E+02  0.51100000000E-03 0. -1.
        -11    1    3    3    0    0  0.14776068278E+01  0.99231197754E+00  0.16586103185E+01  0.24328981582E+01  0.51100000000E-03 0.  1.
        -12    1    3    3    0    0  0.26325023078E+01  0.20433023262E+02  0.21258888908E+02  0.29603696824E+02  0.00000000000E+00 0.  1.
</event>
<event>
 7    1  0.2250716E-008  0.4614232E+02  0.7816164E-02  0.1320468E+00
        -11   -1    0    0    0    0  0.00000000000E+00  0.00000000000E+00  0.45593999997E+02  0.45594000000E+02  0.51100000000E-03 0.  1.
         11   -1    0    0    0    0 -0.00000000000E+00 -0.00000000000E+00 -0.45593999997E+02  0.45594000000E+02  0.51100000000E-03 0. -1.
    9900012    2    1    2    0    0 -0.42471771236E+02  0.11764839571E+02 -0.93193649761E+01  0.46142319124E+02  0.10000012425E+02 0.  0.
         12    1    1    2    0    0  0.42471771236E+02 -0.11764839571E+02  0.93193649761E+01  0.45045680876E+02  0.00000000000E+00 0. -1.
         11    1    3    3    0    0 -0.17518778712E+01  0.12219035935E+01 -0.21808447722E+01  0.30525741022E+01  0.51100000000E-03 0. -1.
        -11    1    3    3    0    0 -0.29484796989E+02  0.98018832422E+01 -0.35568466709E+01  0.31274291792E+02  0.51100000000E-03 0.  1.
        -12    1    3    3    0    0 -0.11235096376E+02  0.74105273555E+00 -0.35816735330E+01  0.11815453230E+02  0.00000000000E+00 0.  1.
</event>
<event>
 7    1  0.2250716E-008  0.4614232E+02  0.7816164E-02  0.1320468E+00
        -11   -1    0    0    0    0  0.00000000000E+00  0.00000000000E+00  0.45593999997E+02  0.45594000000E+02  0.51100000000E-03 0. -1.
         11   -1    0    0    0    0 -0.00000000000E+00 -0.00000000000E+00 -0.45593999997E+02  0.45594000000E+02  0.51100000000E-03 0.  1.
    9900012    2    1    2    0    0 -0.24246399163E+02  0.37269779266E+02  0.72242056969E+01  0.46142318000E+02  0.10000002176E+02 0.  0.
         12    1    1    2    0    0  0.24246399163E+02 -0.37269779266E+02 -0.72242056969E+01  0.45045682000E+02  0.00000000000E+00 0. -1.
         11    1    3    3    0    0 -0.23489427100E+01  0.26464950708E+01 -0.79009504346E+00  0.36257024773E+01  0.51100000000E-03 0. -1.
        -11    1    3    3    0    0 -0.17976019264E+02  0.29188625138E+02  0.35481400469E+01  0.34463058542E+02  0.51100000000E-03 0.  1.
        -12    1    3    3    0    0 -0.39214371889E+01  0.54346590572E+01  0.44661606935E+01  0.80535569803E+01  0.00000000000E+00 0.  1.
</event>
<event>
 7    1  0.2250716E-008  0.4614231E+02  0.7816164E-02  0.1320468E+00
        -11   -1    0    0    0    0  0.00000000000E+00  0.00000000000E+00  0.45593999997E+02  0.45594000000E+02  0.51100000000E-03 0.  1.
         11   -1    0    0    0    0 -0.00000000000E+00 -0.00000000000E+00 -0.45593999997E+02  0.45594000000E+02  0.51100000000E-03 0. -1.
    9900012    2    1    2    0    0 -0.29110495430E+02 -0.32783287915E+02  0.10341609142E+02  0.46142314409E+02  0.99999694334E+01 0.  0.
         12    1    1    2    0    0  0.29110495430E+02  0.32783287915E+02 -0.10341609142E+02  0.45045685591E+02  0.00000000000E+00 0. -1.
         11    1    3    3    0    0 -0.20328685702E+01 -0.91020636895E+00  0.23269552329E+01  0.32211412845E+01  0.51100000000E-03 0. -1.
        -11    1    3    3    0    0 -0.94698855877E+01 -0.83093981010E+01  0.74532958665E+00  0.12620631771E+02  0.51100000000E-03 0.  1.
        -12    1    3    3    0    0 -0.17607741272E+02 -0.23563683445E+02  0.72693243229E+01  0.30300541354E+02  0.00000000000E+00 0.  1.
</event>
<event>
 7    1  0.2250716E-008  0.4614232E+02  0.7816164E-02  0.1320468E+00
        -11   -1    0    0    0    0  0.00000000000E+00  0.00000000000E+00  0.45593999997E+02  0.45594000000E+02  0.51100000000E-03 0.  1.
         11   -1    0    0    0    0 -0.00000000000E+00 -0.00000000000E+00 -0.45593999997E+02  0.45594000000E+02  0.51100000000E-03 0. -1.
    9900012    2    1    2    0    0 -0.29217313183E+02 -0.49869673174E+01  0.33920379736E+02  0.46142318807E+02  0.10000009537E+02 0.  0.
         12    1    1    2    0    0  0.29217313183E+02  0.49869673174E+01 -0.33920379736E+02  0.45045681193E+02  0.00000000000E+00 0. -1.
         11    1    3    3    0    0 -0.70439420163E+01  0.52473615810E+00  0.42991530615E+01  0.82689288589E+01  0.51100000000E-03 0. -1.
        -11    1    3    3    0    0 -0.21178380544E+02 -0.62195701169E+01  0.26301557424E+02  0.34336260398E+02  0.51100000000E-03 0.  1.
        -12    1    3    3    0    0 -0.99499062287E+00  0.70786664139E+00  0.33196692505E+01  0.35371295501E+01  0.00000000000E+00 0.  1.
</event>
<event>
 7    1  0.2250716E-008  0.4614232E+02  0.7816164E-02  0.1320468E+00
        -11   -1    0    0    0    0  0.00000000000E+00  0.00000000000E+00  0.45593999997E+02  0.45594000000E+02  0.51100000000E-03 0.  1.
         11   -1    0    0    0    0 -0.00000000000E+00 -0.00000000000E+00 -0.45593999997E+02  0.45594000000E+02  0.51100000000E-03 0. -1.
    9900012    2    1    2    0    0 -0.30806206559E+01 -0.42772974121E+02 -0.13787530782E+02  0.46142317145E+02  0.99999943827E+01 0.  0.
         12    1    1    2    0    0  0.30806206559E+01  0.42772974121E+02  0.13787530782E+02  0.45045682855E+02  0.00000000000E+00 0. -1.
         11    1    3    3    0    0 -0.10674542677E+01 -0.28111585517E+01 -0.35550446292E+01  0.46562231039E+01  0.51100000000E-03 0. -1.
        -11    1    3    3    0    0  0.11098147854E+01 -0.89790262288E+01 -0.17985549866E+01  0.92243916426E+01  0.51100000000E-03 0.  1.
        -12    1    3    3    0    0 -0.31229811736E+01 -0.30982789341E+02 -0.84339311664E+01  0.32261702399E+02  0.00000000000E+00 0.  1.
</event>
<event>
 7    1  0.2250716E-008  0.4614232E+02  0.7816164E-02  0.1320468E+00
        -11   -1    0    0    0    0  0.00000000000E+00  0.00000000000E+00  0.45593999997E+02  0.45594000000E+02  0.51100000000E-03 0.  1.
         11   -1    0    0    0    0 -0.00000000000E+00 -0.00000000000E+00 -0.45593999997E+02  0.45594000000E+02  0.51100000000E-03 0. -1.
    9900012    2    1    2    0    0 -0.33162795991E+02 -0.13477584028E+02  0.27344052455E+02  0.46142317479E+02  0.99999974244E+01 0.  0.
         12    1    1    2    0    0  0.33162795991E+02  0.13477584028E+02 -0.27344052455E+02  0.45045682521E+02  0.00000000000E+00 0. -1.
         11    1    3    3    0    0 -0.11397110334E+02 -0.81552943982E+01  0.79372060079E+01  0.16105967533E+02  0.51100000000E-03 0. -1.
        -11    1    3    3    0    0 -0.17904410170E+02 -0.31393925945E+01  0.13464757203E+02  0.22621303592E+02  0.51100000000E-03 0.  1.
         12    1    3    3    0    0 -0.38612754863E+01 -0.21828970356E+01  0.59420892436E+01  0.74150463538E+01  0.00000000000E+00 0. -1.
</event>
<event>
 7    1  0.2250716E-008  0.4614232E+02  0.7816164E-02  0.1320468E+00
        -11   -1    0    0    0    0  0.00000000000E+00  0.00000000000E+00  0.45593999997E+02  0.45594000000E+02  0.51100000000E-03 0. -1.
         11   -1    0    0    0    0 -0.00000000000E+00 -0.00000000000E+00 -0.45593999997E+02  0.45594000000E+02  0.51100000000E-03 0.  1.
    9900012    2    1    2    0    0  0.30914709734E+02 -0.31691395605E+02 -0.83096153686E+01  0.46142317178E+02  0.99999946851E+01 0.  0.
         12    1    1    2    0    0 -0.30914709734E+02  0.31691395605E+02  0.83096153686E+01  0.45045682822E+02  0.00000000000E+00 0. -1.
         11    1    3    3    0    0  0.34426854805E+00 -0.28597291664E+01 -0.42904172469E+00  0.29121553531E+01  0.51100000000E-03 0. -1.
        -11    1    3    3    0    0  0.17888804573E+02 -0.20809664762E+02 -0.61722377617E+01  0.28127353161E+02  0.51100000000E-03 0.  1.
        -12    1    3    3    0    0  0.12681636613E+02 -0.80220016758E+01 -0.17083358823E+01  0.15102808665E+02  0.00000000000E+00 0.  1.
</event>
<event>
 7    1  0.2250716E-008  0.4614232E+02  0.7816164E-02  0.1320468E+00
        -11   -1    0    0    0    0  0.00000000000E+00  0.00000000000E+00  0.45593999997E+02  0.45594000000E+02  0.51100000000E-03 0.  1.
         11   -1    0    0    0    0 -0.00000000000E+00 -0.00000000000E+00 -0.45593999997E+02  0.45594000000E+02  0.51100000000E-03 0. -1.
    9900012    2    1    2    0    0  0.41831883319E+02  0.16703804722E+02  0.43577244354E+00  0.46142318167E+02  0.10000003700E+02 0.  0.
         12    1    1    2    0    0 -0.41831883319E+02 -0.16703804722E+02 -0.43577244354E+00  0.45045681833E+02  0.00000000000E+00 0. -1.
         11    1    3    3    0    0  0.31781087215E+00  0.59730948695E+00  0.46382729401E+00  0.82031603267E+00  0.51100000000E-03 0. -1.
        -11    1    3    3    0    0  0.22115045845E+02  0.66469168480E+01  0.37990668531E+01  0.23402770467E+02  0.51100000000E-03 0.  1.
        -12    1    3    3    0    0  0.19399026602E+02  0.94595783871E+01 -0.38271217036E+01  0.21919231668E+02  0.00000000000E+00 0.  1.
</event>
<event>
 7    1  0.2250716E-008  0.4614232E+02  0.7816164E-02  0.1320468E+00
        -11   -1    0    0    0    0  0.00000000000E+00  0.00000000000E+00  0.45593999997E+02  0.45594000000E+02  0.51100000000E-03 0.  1.
         11   -1    0    0    0    0 -0.00000000000E+00 -0.00000000000E+00 -0.45593999997E+02  0.45594000000E+02  0.51100000000E-03 0. -1.
    9900012    2    1    2    0    0  0.32983663102E+02 -0.28024886094E+02  0.12481871747E+02  0.46142318803E+02  0.10000009497E+02 0.  0.
         12    1    1    2    0    0 -0.32983663102E+02  0.28024886094E+02 -0.12481871747E+02  0.45045681197E+02  0.00000000000E+00 0. -1.
         11    1    3    3    0    0 -0.23748212650E+00 -0.89518685147E+00  0.63736757347E+00  0.11242752974E+01  0.51100000000E-03 0. -1.
        -11    1    3    3    0    0  0.23623260155E+02 -0.22885447800E+02  0.98672677182E+01  0.34338973686E+02  0.51100000000E-03 0.  1.
        -12    1    3    3    0    0  0.95978850736E+01 -0.42442514428E+01  0.19772364556E+01  0.10679069819E+02  0.00000000000E+00 0.  1.
</event>
<event>
 7    1  0.2589437E-008  0.4614232E+02  0.7816164E-02  0.1320468E+00
        -11   -1    0    0    0    0  0.00000000000E+00  0.00000000000E+00  0.45593999997E+02  0.45594000000E+02  0.51100000000E-03 0.  1.
         11   -1    0    0    0    0 -0.00000000000E+00 -0.00000000000E+00 -0.45593999997E+02  0.45594000000E+02  0.51100000000E-03 0. -1.
    9900012    2    1    2    0    0 -0.29520084237E+02  0.29061821029E+02  0.17694310449E+02  0.46142318329E+02  0.10000005182E+02 0.  0.
         12    1    1    2    0    0  0.29520084237E+02 -0.29061821029E+02 -0.17694310449E+02  0.45045681671E+02  0.00000000000E+00 0. -1.
         11    1    3    3    0    0 -0.98106840895E+01  0.50972268366E+01  0.34716609042E+01  0.11588083251E+02  0.51100000000E-03 0. -1.
        -11    1    3    3    0    0 -0.69363922121E+01  0.56383041603E+01  0.22856650336E+01  0.92264985574E+01  0.51100000000E-03 0.  1.
        -12    1    3    3    0    0 -0.12773007936E+02  0.18326290032E+02  0.11936984511E+02  0.25327736521E+02  0.00000000000E+00 0.  1.
</event>
<event>
 7    1  0.2250716E-008  0.4614231E+02  0.7816164E-02  0.1320468E+00
        -11   -1    0    0    0    0  0.00000000000E+00  0.00000000000E+00  0.45593999997E+02  0.45594000000E+02  0.51100000000E-03 0. -1.
         11   -1    0    0    0    0 -0.00000000000E+00 -0.00000000000E+00 -0.45593999997E+02  0.45594000000E+02  0.51100000000E-03 0.  1.
    9900012    2    1    2    0    0  0.26004889795E+02  0.36345019802E+02 -0.56479716662E+01  0.46142308291E+02  0.99999136394E+01 0.  0.
         12    1    1    2    0    0 -0.26004889795E+02 -0.36345019802E+02  0.56479716662E+01  0.45045691709E+02  0.00000000000E+00 0. -1.
         11    1    3    3    0    0  0.53029127404E+01  0.44287367226E+01 -0.21380234527E+01  0.72322705311E+01  0.51100000000E-03 0. -1.
        -11    1    3    3    0    0  0.82251293565E+01  0.14479494958E+02 -0.50841300275E+01  0.17411401597E+02  0.51100000000E-03 0.  1.
        -12    1    3    3    0    0  0.12476847698E+02  0.17436788121E+02  0.15741818141E+01  0.21498636163E+02  0.00000000000E+00 0.  1.
</event>
<event>
 7    1  0.2250716E-008  0.4614232E+02  0.7816164E-02  0.1320468E+00
        -11   -1    0    0    0    0  0.00000000000E+00  0.00000000000E+00  0.45593999997E+02  0.45594000000E+02  0.51100000000E-03 0.  1.
         11   -1    0    0    0    0 -0.00000000000E+00 -0.00000000000E+00 -0.45593999997E+02  0.45594000000E+02  0.51100000000E-03 0. -1.
    9900012    2    1    2    0    0 -0.40433419687E+02  0.19824282135E+02  0.11179933547E+01  0.46142317644E+02  0.99999989362E+01 0.  0.
         12    1    1    2    0    0  0.40433419687E+02 -0.19824282135E+02 -0.11179933547E+01  0.45045682356E+02  0.00000000000E+00 0. -1.
         11    1    3    3    0    0 -0.55770801737E+01  0.39253330696E+01 -0.24092955723E+01  0.72330331388E+01  0.51100000000E-03 0. -1.
        -11    1    3    3    0    0 -0.14576053096E+02  0.89202688879E+01 -0.45628432029E+00  0.17095049474E+02  0.51100000000E-03 0.  1.
         12    1    3    3    0    0 -0.20280286418E+02  0.69786801772E+01  0.39835732473E+01  0.21814235031E+02  0.00000000000E+00 0. -1.
</event>
<event>
 7    1  0.2250716E-008  0.4614232E+02  0.7816164E-02  0.1320468E+00
        -11   -1    0    0    0    0  0.00000000000E+00  0.00000000000E+00  0.45593999997E+02  0.45594000000E+02  0.51100000000E-03 0.  1.
         11   -1    0    0    0    0 -0.00000000000E+00 -0.00000000000E+00 -0.45593999997E+02  0.45594000000E+02  0.51100000000E-03 0. -1.
    9900012    2    1    2    0    0  0.96792354716E+01 -0.25211339402E+01  0.43921176142E+02  0.46142318416E+02  0.10000005971E+02 0.  0.
         12    1    1    2    0    0 -0.96792354716E+01  0.25211339402E+01 -0.43921176142E+02  0.45045681584E+02  0.00000000000E+00 0. -1.
         11    1    3    3    0    0  0.13034797142E+01  0.24328844782E+01  0.63801913668E+01  0.69516061733E+01  0.51100000000E-03 0. -1.
        -11    1    3    3    0    0  0.10525967654E+01 -0.85293776333E-01  0.59407870947E+00  0.12116784858E+01  0.51100000000E-03 0.  1.
        -12    1    3    3    0    0  0.73231589921E+01 -0.48687246421E+01  0.36946906066E+02  0.37979033757E+02  0.00000000000E+00 0.  1.
</event>
<event>
 7    1  0.2250716E-008  0.4614232E+02  0.7816164E-02  0.1320468E+00
        -11   -1    0    0    0    0  0.00000000000E+00  0.00000000000E+00  0.45593999997E+02  0.45594000000E+02  0.51100000000E-03 0.  1.
         11   -1    0    0    0    0 -0.00000000000E+00 -0.00000000000E+00 -0.45593999997E+02  0.45594000000E+02  0.51100000000E-03 0. -1.
    9900012    2    1    2    0    0 -0.41009528215E+02 -0.71236302946E+01  0.17221672766E+02  0.46142317345E+02  0.99999962054E+01 0.  0.
         12    1    1    2    0    0  0.41009528215E+02  0.71236302946E+01 -0.17221672766E+02  0.45045682655E+02  0.00000000000E+00 0. -1.
         11    1    3    3    0    0 -0.12684653307E+02  0.10027042303E+01  0.40174864767E+01  0.13343389493E+02  0.51100000000E-03 0. -1.
        -11    1    3    3    0    0 -0.15022431194E+02 -0.29129715824E+01  0.40457680864E+01  0.15828047324E+02  0.51100000000E-03 0.  1.
         12    1    3    3    0    0 -0.13302443713E+02 -0.52133629425E+01  0.91584182029E+01  0.16970880528E+02  0.00000000000E+00 0. -1.
</event>
<event>
 7    1  0.2250716E-008  0.4614231E+02  0.7816164E-02  0.1320468E+00
        -11   -1    0    0    0    0  0.00000000000E+00  0.00000000000E+00  0.45593999997E+02  0.45594000000E+02  0.51100000000E-03 0.  1.
         11   -1    0    0    0    0 -0.00000000000E+00 -0.00000000000E+00 -0.45593999997E+02  0.45594000000E+02  0.51100000000E-03 0. -1.
    9900012    2    1    2    0    0 -0.46902104013E+01  0.37615649304E+02  0.24334726787E+02  0.46142311261E+02  0.99999407226E+01 0.  0.
         12    1    1    2    0    0  0.46902104013E+01 -0.37615649304E+02 -0.24334726787E+02  0.45045688739E+02  0.00000000000E+00 0. -1.
         11    1    3    3    0    0 -0.32769972906E+01  0.75583562888E+01  0.31377959927E+01  0.88155104778E+01  0.51100000000E-03 0. -1.
        -11    1    3    3    0    0  0.26881157074E+00 -0.24493805738E+00  0.37122850490E+00  0.51967795459E+00  0.51100000000E-03 0.  1.
        -12    1    3    3    0    0 -0.16820246814E+01  0.30302231073E+02  0.20825702290E+02  0.36807122828E+02  0.00000000000E+00 0.  1.
</event>
<event>
 7    1  0.2250716E-008  0.4614232E+02  0.7816164E-02  0.1320468E+00
        -11   -1    0    0    0    0  0.00000000000E+00  0.00000000000E+00  0.45593999997E+02  0.45594000000E+02  0.51100000000E-03 0.  1.
         11   -1    0    0    0    0 -0.00000000000E+00 -0.00000000000E+00 -0.45593999997E+02  0.45594000000E+02  0.51100000000E-03 0. -1.
    9900012    2    1    2    0    0 -0.21620611578E+02  0.20891417751E+02  0.33544169370E+02  0.46142317861E+02  0.10000000908E+02 0.  0.
         12    1    1    2    0    0  0.21620611578E+02 -0.20891417751E+02 -0.33544169370E+02  0.45045682139E+02  0.00000000000E+00 0. -1.
         11    1    3    3    0    0 -0.68567993256E+00  0.25229501856E+01  0.53669033866E+01  0.59698481414E+01  0.51100000000E-03 0. -1.
        -11    1    3    3    0    0 -0.13246128537E+02  0.15490211169E+02  0.21052593891E+02  0.29302188879E+02  0.51100000000E-03 0.  1.
         12    1    3    3    0    0 -0.76888031087E+01  0.28782563961E+01  0.71246720923E+01  0.10870280840E+02  0.00000000000E+00 0. -1.
</event>
<event>
 7    1  0.2250716E-008  0.4614232E+02  0.7816164E-02  0.1320468E+00
        -11   -1    0    0    0    0  0.00000000000E+00  0.00000000000E+00  0.45593999997E+02  0.45594000000E+02  0.51100000000E-03 0.  1.
         11   -1    0    0    0    0 -0.00000000000E+00 -0.00000000000E+00 -0.45593999997E+02  0.45594000000E+02  0.51100000000E-03 0. -1.
    9900012    2    1    2    0    0  0.77967012402E+00 -0.25008509735E+02  0.37457710125E+02  0.46142317715E+02  0.99999995839E+01 0.  0.
         12    1    1    2    0    0 -0.77967012402E+00  0.25008509735E+02 -0.37457710125E+02  0.45045682285E+02  0.00000000000E+00 0. -1.
         11    1    3    3    0    0 -0.24859146863E+00 -0.21004908311E+01  0.47068400630E+01  0.51602522312E+01  0.51100000000E-03 0.  1.
        -11    1    3    3    0    0  0.50044422762E+01 -0.11232711781E+02  0.16749424910E+02  0.20778871276E+02  0.51100000000E-03 0. -1.
         12    1    3    3    0    0 -0.39761806835E+01 -0.11675307123E+02  0.16001445153E+02  0.20203194208E+02  0.00000000000E+00 0. -1.
</event>
<event>
 7    1  0.2250716E-008  0.4614232E+02  0.7816164E-02  0.1320468E+00
        -11   -1    0    0    0    0  0.00000000000E+00  0.00000000000E+00  0.45593999997E+02  0.45594000000E+02  0.51100000000E-03 0.  1.
         11   -1    0    0    0    0 -0.00000000000E+00 -0.00000000000E+00 -0.45593999997E+02  0.45594000000E+02  0.51100000000E-03 0. -1.
    9900012    2    1    2    0    0  0.27743234775E+02 -0.14695806410E+02  0.32302627025E+02  0.46142317471E+02  0.99999973538E+01 0.  0.
         12    1    1    2    0    0 -0.27743234775E+02  0.14695806410E+02 -0.32302627025E+02  0.45045682529E+02  0.00000000000E+00 0. -1.
         11    1    3    3    0    0  0.13000134578E+01 -0.65875190168E+00  0.34448457632E+00  0.14975509817E+01  0.51100000000E-03 0. -1.
        -11    1    3    3    0    0  0.66106540097E+01 -0.27909789603E+01  0.13585330206E+02  0.15363967816E+02  0.51100000000E-03 0.  1.
        -12    1    3    3    0    0  0.19832567307E+02 -0.11246075548E+02  0.18372812243E+02  0.29280798673E+02  0.00000000000E+00 0.  1.
</event>
<event>
 7    1  0.2250716E-008  0.4614232E+02  0.7816164E-02  0.1320468E+00
        -11   -1    0    0    0    0  0.00000000000E+00  0.00000000000E+00  0.45593999997E+02  0.45594000000E+02  0.51100000000E-03 0.  1.
         11   -1    0    0    0    0 -0.00000000000E+00 -0.00000000000E+00 -0.45593999997E+02  0.45594000000E+02  0.51100000000E-03 0. -1.
    9900012    2    1    2    0    0  0.25081079665E+01 -0.36269133983E+02  0.26596480655E+02  0.46142317980E+02  0.10000001994E+02 0.  0.
         12    1    1    2    0    0 -0.25081079665E+01  0.36269133983E+02 -0.26596480655E+02  0.45045682020E+02  0.00000000000E+00 0. -1.
         11    1    3    3    0    0 -0.52671711780E+00 -0.12543481888E+02  0.10468245051E+02  0.16346269406E+02  0.51100000000E-03 0. -1.
        -11    1    3    3    0    0  0.43437656411E+01 -0.23230926554E+02  0.14935224218E+02  0.27957202492E+02  0.51100000000E-03 0.  1.
         12    1    3    3    0    0 -0.13089405568E+01 -0.49472554068E+00  0.11930113870E+01  0.18388460814E+01  0.00000000000E+00 0. -1.
</event>
<event>
 7    1  0.2250716E-008  0.4614232E+02  0.7816164E-02  0.1320468E+00
        -11   -1    0    0    0    0  0.00000000000E+00  0.00000000000E+00  0.45593999997E+02  0.45594000000E+02  0.51100000000E-03 0.  1.
         11   -1    0    0    0    0 -0.00000000000E+00 -0.00000000000E+00 -0.45593999997E+02  0.45594000000E+02  0.51100000000E-03 0. -1.
    9900012    2    1    2    0    0 -0.14906757388E+02 -0.20326348675E+02  0.37332848442E+02  0.46142318308E+02  0.10000004990E+02 0.  0.
         12    1    1    2    0    0  0.14906757388E+02  0.20326348675E+02 -0.37332848442E+02  0.45045681692E+02  0.00000000000E+00 0. -1.
         11    1    3    3    0    0 -0.22619783182E+01 -0.33861709068E+01  0.37770917634E+01  0.55541985715E+01  0.51100000000E-03 0. -1.
        -11    1    3    3    0    0 -0.11351739167E+02 -0.82219830636E+01  0.20219193478E+02  0.24602413962E+02  0.51100000000E-03 0.  1.
         12    1    3    3    0    0 -0.12930399024E+01 -0.87181947050E+01  0.13336563201E+02  0.15985705775E+02  0.00000000000E+00 0. -1.
</event>
<event>
 7    1  0.2250716E-008  0.4614232E+02  0.7816164E-02  0.1320468E+00
        -11   -1    0    0    0    0  0.00000000000E+00  0.00000000000E+00  0.45593999997E+02  0.45594000000E+02  0.51100000000E-03 0. -1.
         11   -1    0    0    0    0 -0.00000000000E+00 -0.00000000000E+00 -0.45593999997E+02  0.45594000000E+02  0.51100000000E-03 0.  1.
    9900012    2    1    2    0    0 -0.32994564265E+02  0.28831184565E+02 -0.10451556716E+02  0.46142317496E+02  0.99999975859E+01 0.  0.
         12    1    1    2    0    0  0.32994564265E+02 -0.28831184565E+02  0.10451556716E+02  0.45045682504E+02  0.00000000000E+00 0. -1.
         11    1    3    3    0    0 -0.12915210387E+02  0.12526212629E+02 -0.48849481567E+00  0.17998535763E+02  0.51100000000E-03 0. -1.
        -11    1    3    3    0    0 -0.32354416162E+01  0.84477054331E+00 -0.21808377432E+01  0.39922140782E+01  0.51100000000E-03 0.  1.
         12    1    3    3    0    0 -0.16843912261E+02  0.15460201393E+02 -0.77822241570E+01  0.24151567655E+02  0.00000000000E+00 0. -1.
</event>
<event>
 7    1  0.2250716E-008  0.4614232E+02  0.7816164E-02  0.1320468E+00
        -11   -1    0    0    0    0  0.00000000000E+00  0.00000000000E+00  0.45593999997E+02  0.45594000000E+02  0.51100000000E-03 0. -1.
         11   -1    0    0    0    0 -0.00000000000E+00 -0.00000000000E+00 -0.45593999997E+02  0.45594000000E+02  0.51100000000E-03 0.  1.
    9900012    2    1    2    0    0  0.35036465571E+02 -0.16320736379E+02 -0.23134245735E+02  0.46142315619E+02  0.99999804649E+01 0.  0.
         12    1    1    2    0    0 -0.35036465571E+02  0.16320736379E+02  0.23134245735E+02  0.45045684381E+02  0.00000000000E+00 0. -1.
         11    1    3    3    0    0  0.47136373145E+01 -0.22461381093E+01 -0.62170575955E+01  0.81188249486E+01  0.51100000000E-03 0. -1.
        -11    1    3    3    0    0  0.19027064015E+02 -0.53254124315E+01 -0.10189541416E+02  0.22230967975E+02  0.51100000000E-03 0.  1.
        -12    1    3    3    0    0  0.11295764241E+02 -0.87491858387E+01 -0.67276467234E+01  0.15792522695E+02  0.00000000000E+00 0.  1.
</event>
<event>
 7    1  0.2250716E-008  0.4614232E+02  0.7816164E-02  0.1320468E+00
        -11   -1    0    0    0    0  0.00000000000E+00  0.00000000000E+00  0.45593999997E+02  0.45594000000E+02  0.51100000000E-03 0.  1.
         11   -1    0    0    0    0 -0.00000000000E+00 -0.00000000000E+00 -0.45593999997E+02  0.45594000000E+02  0.51100000000E-03 0. -1.
    9900012    2    1    2    0    0 -0.28169907877E+02  0.30772914337E+02  0.16988158035E+02  0.46142317854E+02  0.10000000847E+02 0.  0.
         12    1    1    2    0    0  0.28169907877E+02 -0.30772914337E+02 -0.16988158035E+02  0.45045682146E+02  0.00000000000E+00 0. -1.
         11    1    3    3    0    0  0.21670663265E+00  0.15479561181E+01  0.20071078291E+01  0.25439363213E+01  0.51100000000E-03 0. -1.
        -11    1    3    3    0    0 -0.14200983939E+01  0.26033937506E+01  0.18459907337E+01  0.34931390638E+01  0.51100000000E-03 0.  1.
        -12    1    3    3    0    0 -0.26966516116E+02  0.26621564468E+02  0.13135059472E+02  0.40105242469E+02  0.00000000000E+00 0.  1.
</event>
<event>
 7    1  0.2250716E-008  0.4614232E+02  0.7816164E-02  0.1320468E+00
        -11   -1    0    0    0    0  0.00000000000E+00  0.00000000000E+00  0.45593999997E+02  0.45594000000E+02  0.51100000000E-03 0.  1.
         11   -1    0    0    0    0 -0.00000000000E+00 -0.00000000000E+00 -0.45593999997E+02  0.45594000000E+02  0.51100000000E-03 0. -1.
    9900012    2    1    2    0    0 -0.18210759814E+00  0.35728902466E+02  0.27432203816E+02  0.46142318289E+02  0.10000004813E+02 0.  0.
         12    1    1    2    0    0  0.18210759814E+00 -0.35728902466E+02 -0.27432203816E+02  0.45045681711E+02  0.00000000000E+00 0. -1.
         11    1    3    3    0    0 -0.45627569569E+00  0.57676041813E+00 -0.67431429998E+00  0.99776757147E+00  0.51100000000E-03 0. -1.
        -11    1    3    3    0    0  0.16931703932E+01  0.27001953945E+02  0.21548350341E+02  0.34587624167E+02  0.51100000000E-03 0.  1.
        -12    1    3    3    0    0 -0.14190022956E+01  0.81501881027E+01  0.65581677747E+01  0.10556926550E+02  0.00000000000E+00 0.  1.
</event>
<event>
 7    1  0.2250716E-008  0.4614232E+02  0.7816164E-02  0.1320468E+00
        -11   -1    0    0    0    0  0.00000000000E+00  0.00000000000E+00  0.45593999997E+02  0.45594000000E+02  0.51100000000E-03 0.  1.
         11   -1    0    0    0    0 -0.00000000000E+00 -0.00000000000E+00 -0.45593999997E+02  0.45594000000E+02  0.51100000000E-03 0. -1.
    9900012    2    1    2    0    0 -0.61920204541E+01  0.33172840534E+02  0.29838482649E+02  0.46142317486E+02  0.99999974878E+01 0.  0.
         12    1    1    2    0    0  0.61920204541E+01 -0.33172840534E+02 -0.29838482649E+02  0.45045682514E+02  0.00000000000E+00 0. -1.
         11    1    3    3    0    0 -0.69620454253E+01  0.14157545930E+02  0.12272027987E+02  0.19987717589E+02  0.51100000000E-03 0. -1.
        -11    1    3    3    0    0  0.13126466365E+01  0.14649844391E+02  0.11549850815E+02  0.18701337813E+02  0.51100000000E-03 0.  1.
        -12    1    3    3    0    0 -0.54262166526E+00  0.43654502130E+01  0.60166038471E+01  0.74532620836E+01  0.00000000000E+00 0.  1.
</event>
<event>
 7    1  0.2250716E-008  0.4614232E+02  0.7816164E-02  0.1320468E+00
        -11   -1    0    0    0    0  0.00000000000E+00  0.00000000000E+00  0.45593999997E+02  0.45594000000E+02  0.51100000000E-03 0.  1.
         11   -1    0    0    0    0 -0.00000000000E+00 -0.00000000000E+00 -0.45593999997E+02  0.45594000000E+02  0.51100000000E-03 0. -1.
    9900012    2    1    2    0    0  0.21013442036E+02  0.50280173681E+01  0.39525529207E+02  0.46142321362E+02  0.10000032838E+02 0.  0.
         12    1    1    2    0    0 -0.21013442036E+02 -0.50280173681E+01 -0.39525529207E+02  0.45045678638E+02  0.00000000000E+00 0. -1.
         11    1    3    3    0    0  0.11401346624E+02  0.66607010941E+01  0.26847934961E+02  0.29919345845E+02  0.51100000000E-03 0. -1.
        -11    1    3    3    0    0  0.32240035670E+01  0.46354578859E+00  0.29265335599E+01  0.43787752439E+01  0.51100000000E-03 0.  1.
         12    1    3    3    0    0  0.63880918449E+01 -0.20962295145E+01  0.97510606862E+01  0.11844200273E+02  0.00000000000E+00 0. -1.
</event>
<event>
 7    1  0.2250716E-008  0.4614232E+02  0.7816164E-02  0.1320468E+00
        -11   -1    0    0    0    0  0.00000000000E+00  0.00000000000E+00  0.45593999997E+02  0.45594000000E+02  0.51100000000E-03 0.  1.
         11   -1    0    0    0    0 -0.00000000000E+00 -0.00000000000E+00 -0.45593999997E+02  0.45594000000E+02  0.51100000000E-03 0. -1.
    9900012    2    1    2    0    0 -0.49394352002E+01  0.41427351081E+02 -0.16984994929E+02  0.46142317738E+02  0.99999997923E+01 0.  0.
         12    1    1    2    0    0  0.49394352002E+01 -0.41427351081E+02  0.16984994929E+02  0.45045682262E+02  0.00000000000E+00 0. -1.
         11    1    3    3    0    0 -0.10600184392E+01  0.22358295958E+01 -0.11250898023E+01  0.27181612162E+01  0.51100000000E-03 0. -1.
        -11    1    3    3    0    0  0.27951288906E+01  0.17720601609E+02 -0.69833090205E+01  0.19250949900E+02  0.51100000000E-03 0.  1.
         12    1    3    3    0    0 -0.66745456515E+01  0.21470919876E+02 -0.88765961067E+01  0.24173206623E+02  0.00000000000E+00 0. -1.
</event>
<event>
 7    1  0.2250716E-008  0.4614232E+02  0.7816164E-02  0.1320468E+00
        -11   -1    0    0    0    0  0.00000000000E+00  0.00000000000E+00  0.45593999997E+02  0.45594000000E+02  0.51100000000E-03 0. -1.
         11   -1    0    0    0    0 -0.00000000000E+00 -0.00000000000E+00 -0.45593999997E+02  0.45594000000E+02  0.51100000000E-03 0.  1.
    9900012    2    1    2    0    0  0.35808458003E+02  0.27258664914E+02  0.19577928121E+01  0.46142318408E+02  0.10000005899E+02 0.  0.
         12    1    1    2    0    0 -0.35808458003E+02 -0.27258664914E+02 -0.19577928121E+01  0.45045681592E+02  0.00000000000E+00 0. -1.
         11    1    3    3    0    0  0.18723837112E+02  0.13511671592E+02  0.56307734050E+01  0.23766635328E+02  0.51100000000E-03 0. -1.
        -11    1    3    3    0    0  0.39598437876E+01  0.46203976155E+01 -0.11074897206E+01  0.61850602818E+01  0.51100000000E-03 0.  1.
        -12    1    3    3    0    0  0.13124777103E+02  0.91265957062E+01 -0.25654908723E+01  0.16190622799E+02  0.00000000000E+00 0.  1.
</event>
<event>
 7    1  0.2250716E-008  0.4614232E+02  0.7816164E-02  0.1320468E+00
        -11   -1    0    0    0    0  0.00000000000E+00  0.00000000000E+00  0.45593999997E+02  0.45594000000E+02  0.51100000000E-03 0.  1.
         11   -1    0    0    0    0 -0.00000000000E+00 -0.00000000000E+00 -0.45593999997E+02  0.45594000000E+02  0.51100000000E-03 0. -1.
    9900012    2    1    2    0    0 -0.36702604165E+02  0.16901825580E+02  0.19908809317E+02  0.46142317089E+02  0.99999938748E+01 0.  0.
         12    1    1    2    0    0  0.36702604165E+02 -0.16901825580E+02 -0.19908809317E+02  0.45045682911E+02  0.00000000000E+00 0. -1.
         11    1    3    3    0    0 -0.17611861606E+02  0.70534492470E+01  0.12908630777E+02  0.22946929300E+02  0.51100000000E-03 0. -1.
        -11    1    3    3    0    0 -0.60317131102E+01  0.34605467601E+01  0.48999212492E+01  0.85068311040E+01  0.51100000000E-03 0.  1.
         12    1    3    3    0    0 -0.13059029449E+02  0.63878295733E+01  0.21002572908E+01  0.14688556685E+02  0.00000000000E+00 0. -1.
</event>
<event>
 7    1  0.2250716E-008  0.4614232E+02  0.7816164E-02  0.1320468E+00
        -11   -1    0    0    0    0  0.00000000000E+00  0.00000000000E+00  0.45593999997E+02  0.45594000000E+02  0.51100000000E-03 0. -1.
         11   -1    0    0    0    0 -0.00000000000E+00 -0.00000000000E+00 -0.45593999997E+02  0.45594000000E+02  0.51100000000E-03 0.  1.
    9900012    2    1    2    0    0 -0.38671380762E+02 -0.22910576785E+02  0.29568892969E+01  0.46142318598E+02  0.10000007630E+02 0.  0.
         12    1    1    2    0    0  0.38671380762E+02  0.22910576785E+02 -0.29568892969E+01  0.45045681402E+02  0.00000000000E+00 0. -1.
         11    1    3    3    0    0 -0.38928164082E+00 -0.65480654821E+00  0.74485091617E+00  0.10654177396E+01  0.51100000000E-03 0. -1.
        -11    1    3    3    0    0 -0.26431729822E+02 -0.12312519244E+02 -0.13967977298E+01  0.29192216697E+02  0.51100000000E-03 0.  1.
        -12    1    3    3    0    0 -0.11850369300E+02 -0.99432509925E+01  0.36088361105E+01  0.15884684161E+02  0.00000000000E+00 0.  1.
</event>
<event>
 7    1  0.2250716E-008  0.4614232E+02  0.7816164E-02  0.1320468E+00
        -11   -1    0    0    0    0  0.00000000000E+00  0.00000000000E+00  0.45593999997E+02  0.45594000000E+02  0.51100000000E-03 0. -1.
         11   -1    0    0    0    0 -0.00000000000E+00 -0.00000000000E+00 -0.45593999997E+02  0.45594000000E+02  0.51100000000E-03 0.  1.
    9900012    2    1    2    0    0 -0.22311388985E+02 -0.68926998717E+01 -0.38520203825E+02  0.46142317714E+02  0.99999995668E+01 0.  0.
         12    1    1    2    0    0  0.22311388985E+02  0.68926998717E+01  0.38520203825E+02  0.45045682286E+02  0.00000000000E+00 0. -1.
         11    1    3    3    0    0 -0.10243359708E+01 -0.12231438399E+01 -0.77471023290E+01  0.79096738107E+01  0.51100000000E-03 0. -1.
        -11    1    3    3    0    0 -0.57381877268E+01 -0.40453776259E+01 -0.85886569925E+01  0.11093101808E+02  0.51100000000E-03 0.  1.
        -12    1    3    3    0    0 -0.15548865287E+02 -0.16241784059E+01 -0.22184444503E+02  0.27139542095E+02  0.00000000000E+00 0.  1.
</event>
<event>
 7    1  0.2250716E-008  0.4614232E+02  0.7816164E-02  0.1320468E+00
        -11   -1    0    0    0    0  0.00000000000E+00  0.00000000000E+00  0.45593999997E+02  0.45594000000E+02  0.51100000000E-03 0. -1.
         11   -1    0    0    0    0 -0.00000000000E+00 -0.00000000000E+00 -0.45593999997E+02  0.45594000000E+02  0.51100000000E-03 0.  1.
    9900012    2    1    2    0    0  0.12667242907E+01 -0.20606475263E+02 -0.40036010115E+02  0.46142317419E+02  0.99999968832E+01 0.  0.
         12    1    1    2    0    0 -0.12667242907E+01  0.20606475263E+02  0.40036010115E+02  0.45045682581E+02  0.00000000000E+00 0. -1.
         11    1    3    3    0    0  0.11791798822E+01 -0.65644252154E+01 -0.69147746861E+01  0.96070938802E+01  0.51100000000E-03 0. -1.
        -11    1    3    3    0    0 -0.31310181992E+01 -0.66652521956E+01 -0.16434559063E+02  0.18008986470E+02  0.51100000000E-03 0.  1.
        -12    1    3    3    0    0  0.32185626077E+01 -0.73767978521E+01 -0.16686676366E+02  0.18526237069E+02  0.00000000000E+00 0.  1.
</event>
<event>
 7    1  0.2250716E-008  0.4614232E+02  0.7816164E-02  0.1320468E+00
        -11   -1    0    0    0    0  0.00000000000E+00  0.00000000000E+00  0.45593999997E+02  0.45594000000E+02  0.51100000000E-03 0. -1.
         11   -1    0    0    0    0 -0.00000000000E+00 -0.00000000000E+00 -0.45593999997E+02  0.45594000000E+02  0.51100000000E-03 0.  1.
    9900012    2    1    2    0    0 -0.13084667037E+01 -0.21119596505E+02 -0.39766369063E+02  0.46142317076E+02  0.99999937507E+01 0.  0.
         12    1    1    2    0    0  0.13084667037E+01  0.21119596505E+02  0.39766369063E+02  0.45045682924E+02  0.00000000000E+00 0. -1.
         11    1    3    3    0    0 -0.16966771573E+01 -0.18063665764E+01 -0.30564802669E+01  0.39349390678E+01  0.51100000000E-03 0. -1.
        -11    1    3    3    0    0  0.18263405034E+00 -0.10610881203E+02 -0.12053975148E+02  0.16059964888E+02  0.51100000000E-03 0.  1.
        -12    1    3    3    0    0  0.20557640318E+00 -0.87023487260E+01 -0.24655913648E+02  0.26147413120E+02  0.00000000000E+00 0.  1.
</event>
<event>
 7    1  0.2307157E-008  0.4614232E+02  0.7816164E-02  0.1320468E+00
        -11   -1    0    0    0    0  0.00000000000E+00  0.00000000000E+00  0.45593999997E+02  0.45594000000E+02  0.51100000000E-03 0. -1.
         11   -1    0    0    0    0 -0.00000000000E+00 -0.00000000000E+00 -0.45593999997E+02  0.45594000000E+02  0.51100000000E-03 0.  1.
    9900012    2    1    2    0    0  0.58767511320E+01 -0.15191438674E+02 -0.41997589097E+02  0.46142317601E+02  0.99999985379E+01 0.  0.
         12    1    1    2    0    0 -0.58767511320E+01  0.15191438674E+02  0.41997589097E+02  0.45045682399E+02  0.00000000000E+00 0. -1.
         11    1    3    3    0    0  0.19783125873E+01 -0.31322490566E-01 -0.15815768628E+01  0.25329996892E+01  0.51100000000E-03 0. -1.
        -11    1    3    3    0    0  0.27141494586E+01 -0.31273286244E+01 -0.79268504185E+01  0.89432516138E+01  0.51100000000E-03 0.  1.
        -12    1    3    3    0    0  0.11842890861E+01 -0.12032787559E+02 -0.32489161815E+02  0.34666066298E+02  0.00000000000E+00 0.  1.
</event>
<event>
 7    1  0.2250716E-008  0.4614231E+02  0.7816164E-02  0.1320468E+00
        -11   -1    0    0    0    0  0.00000000000E+00  0.00000000000E+00  0.45593999997E+02  0.45594000000E+02  0.51100000000E-03 0. -1.
         11   -1    0    0    0    0 -0.00000000000E+00 -0.00000000000E+00 -0.45593999997E+02  0.45594000000E+02  0.51100000000E-03 0.  1.
    9900012    2    1    2    0    0  0.13809440323E+02  0.41339123490E+02 -0.11379377063E+02  0.46142312134E+02  0.99999486917E+01 0.  0.
         12    1    1    2    0    0 -0.13809440323E+02 -0.41339123490E+02  0.11379377063E+02  0.45045687866E+02  0.00000000000E+00 0. -1.
         11    1    3    3    0    0  0.42068237726E+01  0.63593938312E+01 -0.36585700947E+01  0.84572094424E+01  0.51100000000E-03 0. -1.
        -11    1    3    3    0    0  0.10168550517E+02  0.34850065436E+02 -0.75517313799E+01  0.37080387371E+02  0.51100000000E-03 0.  1.
        -12    1    3    3    0    0 -0.56593396605E+00  0.12966422233E+00 -0.16907558817E+00  0.60471532063E+00  0.00000000000E+00 0.  1.
</event>
<event>
 7    1  0.2250716E-008  0.4614232E+02  0.7816164E-02  0.1320468E+00
        -11   -1    0    0    0    0  0.00000000000E+00  0.00000000000E+00  0.45593999997E+02  0.45594000000E+02  0.51100000000E-03 0. -1.
         11   -1    0    0    0    0 -0.00000000000E+00 -0.00000000000E+00 -0.45593999997E+02  0.45594000000E+02  0.51100000000E-03 0.  1.
    9900012    2    1    2    0    0  0.40654170103E+01  0.60580826625E+01 -0.44450932255E+02  0.46142319194E+02  0.10000013062E+02 0.  0.
         12    1    1    2    0    0 -0.40654170103E+01 -0.60580826625E+01  0.44450932255E+02  0.45045680806E+02  0.00000000000E+00 0. -1.
         11    1    3    3    0    0  0.50017264003E-01  0.32724801154E+01 -0.49227116493E+01  0.59114057614E+01  0.51100000000E-03 0. -1.
        -11    1    3    3    0    0  0.38542186202E+01  0.37995600525E+01 -0.21404656903E+02  0.22078292397E+02  0.51100000000E-03 0.  1.
        -12    1    3    3    0    0  0.16118112605E+00 -0.10139575054E+01 -0.18123563702E+02  0.18152621035E+02  0.00000000000E+00 0.  1.
</event>
<event>
 7    1  0.2250716E-008  0.4614232E+02  0.7816164E-02  0.1320468E+00
        -11   -1    0    0    0    0  0.00000000000E+00  0.00000000000E+00  0.45593999997E+02  0.45594000000E+02  0.51100000000E-03 0. -1.
         11   -1    0    0    0    0 -0.00000000000E+00 -0.00000000000E+00 -0.45593999997E+02  0.45594000000E+02  0.51100000000E-03 0.  1.
    9900012    2    1    2    0    0 -0.30726745332E+02 -0.95435980694E+01 -0.31526185211E+02  0.46142317668E+02  0.99999991506E+01 0.  0.
         12    1    1    2    0    0  0.30726745332E+02  0.95435980694E+01  0.31526185211E+02  0.45045682332E+02  0.00000000000E+00 0. -1.
         11    1    3    3    0    0 -0.78926441146E+01 -0.44922134172E+01 -0.69487177192E+01  0.11434967893E+02  0.51100000000E-03 0. -1.
        -11    1    3    3    0    0 -0.10539239373E+02 -0.54761404286E+01 -0.14902832297E+02  0.19056707252E+02  0.51100000000E-03 0.  1.
         12    1    3    3    0    0 -0.12294861844E+02  0.42475577632E+00 -0.96746351950E+01  0.15650642523E+02  0.00000000000E+00 0. -1.
</event>
<event>
 7    1  0.2250716E-008  0.4614232E+02  0.7816164E-02  0.1320468E+00
        -11   -1    0    0    0    0  0.00000000000E+00  0.00000000000E+00  0.45593999997E+02  0.45594000000E+02  0.51100000000E-03 0.  1.
         11   -1    0    0    0    0 -0.00000000000E+00 -0.00000000000E+00 -0.45593999997E+02  0.45594000000E+02  0.51100000000E-03 0. -1.
    9900012    2    1    2    0    0  0.56350542887E+01  0.10365135150E+02  0.43473251518E+02  0.46142318064E+02  0.10000002762E+02 0.  0.
         12    1    1    2    0    0 -0.56350542887E+01 -0.10365135150E+02 -0.43473251518E+02  0.45045681936E+02  0.00000000000E+00 0. -1.
         11    1    3    3    0    0  0.40435466077E+01  0.11991383673E+01  0.66195294030E+01  0.78489726570E+01  0.51100000000E-03 0. -1.
        -11    1    3    3    0    0 -0.11030776698E+00 -0.48063931146E+00  0.33802092128E+01  0.34159912960E+01  0.51100000000E-03 0.  1.
        -12    1    3    3    0    0  0.17018154480E+01  0.96466360944E+01  0.33473512902E+02  0.34877354111E+02  0.00000000000E+00 0.  1.
</event>
<event>
 7    1  0.2250716E-008  0.4614232E+02  0.7816164E-02  0.1320468E+00
        -11   -1    0    0    0    0  0.00000000000E+00  0.00000000000E+00  0.45593999997E+02  0.45594000000E+02  0.51100000000E-03 0. -1.
         11   -1    0    0    0    0 -0.00000000000E+00 -0.00000000000E+00 -0.45593999997E+02  0.45594000000E+02  0.51100000000E-03 0.  1.
    9900012    2    1    2    0    0  0.26269091810E+02 -0.36009025604E+02 -0.65114104334E+01  0.46142316796E+02  0.99999912037E+01 0.  0.
         12    1    1    2    0    0 -0.26269091810E+02  0.36009025604E+02  0.65114104334E+01  0.45045683204E+02  0.00000000000E+00 0. -1.
         11    1    3    3    0    0  0.52562410981E+01 -0.63823052894E+01  0.13809886107E+01  0.83826619335E+01  0.51100000000E-03 0. -1.
        -11    1    3    3    0    0  0.79337082743E+01 -0.16682083678E+02 -0.29596657214E+01  0.18708160366E+02  0.51100000000E-03 0.  1.
        -12    1    3    3    0    0  0.13079142438E+02 -0.12944636636E+02 -0.49327333227E+01  0.19051494497E+02  0.00000000000E+00 0.  1.
</event>
<event>
 7    1  0.2250716E-008  0.4614232E+02  0.7816164E-02  0.1320468E+00
        -11   -1    0    0    0    0  0.00000000000E+00  0.00000000000E+00  0.45593999997E+02  0.45594000000E+02  0.51100000000E-03 0.  1.
         11   -1    0    0    0    0 -0.00000000000E+00 -0.00000000000E+00 -0.45593999997E+02  0.45594000000E+02  0.51100000000E-03 0. -1.
    9900012    2    1    2    0    0  0.90365134499E+01 -0.34774106317E+02  0.27170138425E+02  0.46142317993E+02  0.10000002112E+02 0.  0.
         12    1    1    2    0    0 -0.90365134499E+01  0.34774106317E+02 -0.27170138425E+02  0.45045682007E+02  0.00000000000E+00 0. -1.
         11    1    3    3    0    0  0.23591238159E+01 -0.94858258291E+00  0.33939187644E+01  0.42407498082E+01  0.51100000000E-03 0. -1.
        -11    1    3    3    0    0  0.65822703213E+00 -0.36287070785E+01  0.20740984708E+01  0.42311538161E+01  0.51100000000E-03 0.  1.
         12    1    3    3    0    0  0.60191626018E+01 -0.30196816656E+02  0.21702121189E+02  0.37670414368E+02  0.00000000000E+00 0. -1.
</event>
<event>
 7    1  0.2250716E-008  0.4614232E+02  0.7816164E-02  0.1320468E+00
        -11   -1    0    0    0    0  0.00000000000E+00  0.00000000000E+00  0.45593999997E+02  0.45594000000E+02  0.51100000000E-03 0.  1.
         11   -1    0    0    0    0 -0.00000000000E+00 -0.00000000000E+00 -0.45593999997E+02  0.45594000000E+02  0.51100000000E-03 0. -1.
    9900012    2    1    2    0    0 -0.22961165363E+02  0.33675334408E+02  0.19179944283E+02  0.46142317354E+02  0.99999962899E+01 0.  0.
         12    1    1    2    0    0  0.22961165363E+02 -0.33675334408E+02 -0.19179944283E+02  0.45045682646E+02  0.00000000000E+00 0. -1.
         11    1    3    3    0    0 -0.69492975054E+00  0.41744477782E+01  0.14597507964E+01  0.44765851115E+01  0.51100000000E-03 0. -1.
        -11    1    3    3    0    0 -0.10314086967E+02  0.19730575143E+02  0.10901677212E+02  0.24789565380E+02  0.51100000000E-03 0.  1.
        -12    1    3    3    0    0 -0.11952148645E+02  0.97703114870E+01  0.68185162747E+01  0.16876166863E+02  0.00000000000E+00 0.  1.
</event>
<event>
 7    1  0.2250716E-008  0.4614232E+02  0.7816164E-02  0.1320468E+00
        -11   -1    0    0    0    0  0.00000000000E+00  0.00000000000E+00  0.45593999997E+02  0.45594000000E+02  0.51100000000E-03 0. -1.
         11   -1    0    0    0    0 -0.00000000000E+00 -0.00000000000E+00 -0.45593999997E+02  0.45594000000E+02  0.51100000000E-03 0.  1.
    9900012    2    1    2    0    0  0.22711871764E+02  0.38785495612E+02 -0.29948643155E+01  0.46142323168E+02  0.10000049309E+02 0.  0.
         12    1    1    2    0    0 -0.22711871764E+02 -0.38785495612E+02  0.29948643155E+01  0.45045676832E+02  0.00000000000E+00 0. -1.
         11    1    3    3    0    0  0.28521052716E+00  0.63918214516E+00 -0.34983541165E+00  0.78248574163E+00  0.51100000000E-03 0. -1.
        -11    1    3    3    0    0  0.19170491899E+02  0.31490433732E+02 -0.57748282388E+01  0.37316267468E+02  0.51100000000E-03 0.  1.
        -12    1    3    3    0    0  0.32561693378E+01  0.66558797349E+01  0.31297993349E+01  0.80435699586E+01  0.00000000000E+00 0.  1.
</event>
<event>
 7    1  0.2250716E-008  0.4614232E+02  0.7816164E-02  0.1320468E+00
        -11   -1    0    0    0    0  0.00000000000E+00  0.00000000000E+00  0.45593999997E+02  0.45594000000E+02  0.51100000000E-03 0.  1.
         11   -1    0    0    0    0 -0.00000000000E+00 -0.00000000000E+00 -0.45593999997E+02  0.45594000000E+02  0.51100000000E-03 0. -1.
    9900012    2    1    2    0    0 -0.43880324930E+02 -0.98886371662E+01 -0.24177568686E+01  0.46142316420E+02  0.99999877691E+01 0.  0.
         12    1    1    2    0    0  0.43880324930E+02  0.98886371662E+01  0.24177568686E+01  0.45045683580E+02  0.00000000000E+00 0. -1.
         11    1    3    3    0    0 -0.36597863360E+01  0.11426973685E+01 -0.27464758346E+00  0.38438554678E+01  0.51100000000E-03 0. -1.
        -11    1    3    3    0    0 -0.12478118761E+02 -0.64958864714E+01 -0.18281582160E+01  0.14185984336E+02  0.51100000000E-03 0.  1.
         12    1    3    3    0    0 -0.27742419832E+02 -0.45354480633E+01 -0.31495106921E+00  0.28112476616E+02  0.00000000000E+00 0. -1.
</event>
<event>
 7    1  0.2250716E-008  0.4614233E+02  0.7816164E-02  0.1320468E+00
        -11   -1    0    0    0    0  0.00000000000E+00  0.00000000000E+00  0.45593999997E+02  0.45594000000E+02  0.51100000000E-03 0.  1.
         11   -1    0    0    0    0 -0.00000000000E+00 -0.00000000000E+00 -0.45593999997E+02  0.45594000000E+02  0.51100000000E-03 0. -1.
    9900012    2    1    2    0    0 -0.39551406335E+02 -0.20436331539E+02 -0.68669563860E+01  0.46142328956E+02  0.10000102079E+02 0.  0.
         12    1    1    2    0    0  0.39551406335E+02  0.20436331539E+02  0.68669563860E+01  0.45045671044E+02  0.00000000000E+00 0. -1.
         11    1    3    3    0    0 -0.17581361726E+02 -0.82970511422E+01 -0.67373025460E+01  0.20575144803E+02  0.51100000000E-03 0. -1.
        -11    1    3    3    0    0 -0.12452985369E+02 -0.85722510631E+01 -0.19448461999E+01  0.15242793704E+02  0.51100000000E-03 0.  1.
         12    1    3    3    0    0 -0.95170592401E+01 -0.35670293336E+01  0.18151923599E+01  0.10324390449E+02  0.00000000000E+00 0. -1.
</event>
<event>
 7    1  0.2250716E-008  0.4614232E+02  0.7816164E-02  0.1320468E+00
        -11   -1    0    0    0    0  0.00000000000E+00  0.00000000000E+00  0.45593999997E+02  0.45594000000E+02  0.51100000000E-03 0.  1.
         11   -1    0    0    0    0 -0.00000000000E+00 -0.00000000000E+00 -0.45593999997E+02  0.45594000000E+02  0.51100000000E-03 0. -1.
    9900012    2    1    2    0    0 -0.43573989502E+02 -0.88250797844E+01 -0.72483665593E+01  0.46142318608E+02  0.10000007721E+02 0.  0.
         12    1    1    2    0    0  0.43573989502E+02  0.88250797844E+01  0.72483665593E+01  0.45045681392E+02  0.00000000000E+00 0. -1.
         11    1    3    3    0    0 -0.56217385498E+01 -0.55854636156E+00 -0.13342958588E+01  0.58048483236E+01  0.51100000000E-03 0.  1.
        -11    1    3    3    0    0 -0.86666270281E+01 -0.23341814630E+01  0.24587089674E+01  0.93061311614E+01  0.51100000000E-03 0. -1.
         12    1    3    3    0    0 -0.29285623924E+02 -0.59323519598E+01 -0.83727796679E+01  0.31031339123E+02  0.00000000000E+00 0. -1.
</event>
<event>
 7    1  0.2250716E-008  0.4614232E+02  0.7816164E-02  0.1320468E+00
        -11   -1    0    0    0    0  0.00000000000E+00  0.00000000000E+00  0.45593999997E+02  0.45594000000E+02  0.51100000000E-03 0.  1.
         11   -1    0    0    0    0 -0.00000000000E+00 -0.00000000000E+00 -0.45593999997E+02  0.45594000000E+02  0.51100000000E-03 0. -1.
    9900012    2    1    2    0    0 -0.21227871218E+02 -0.38065237484E+02  0.11381067600E+02  0.46142317400E+02  0.99999967111E+01 0.  0.
         12    1    1    2    0    0  0.21227871218E+02  0.38065237484E+02 -0.11381067600E+02  0.45045682600E+02  0.00000000000E+00 0. -1.
         11    1    3    3    0    0 -0.15338322513E+00 -0.44817216417E+01  0.26162898109E+01  0.51917557650E+01  0.51100000000E-03 0. -1.
        -11    1    3    3    0    0 -0.70616563729E+01 -0.88060568703E+01  0.45475614613E+00  0.11296921339E+02  0.51100000000E-03 0.  1.
        -12    1    3    3    0    0 -0.14012831620E+02 -0.24777458972E+02  0.83100216432E+01  0.29653640296E+02  0.00000000000E+00 0.  1.
</event>
<event>
 7    1  0.2250716E-008  0.4614232E+02  0.7816164E-02  0.1320468E+00
        -11   -1    0    0    0    0  0.00000000000E+00  0.00000000000E+00  0.45593999997E+02  0.45594000000E+02  0.51100000000E-03 0. -1.
         11   -1    0    0    0    0 -0.00000000000E+00 -0.00000000000E+00 -0.45593999997E+02  0.45594000000E+02  0.51100000000E-03 0.  1.
    9900012    2    1    2    0    0  0.10802632110E+02 -0.18534186425E+02 -0.39609349639E+02  0.46142317567E+02  0.99999982340E+01 0.  0.
         12    1    1    2    0    0 -0.10802632110E+02  0.18534186425E+02  0.39609349639E+02  0.45045682433E+02  0.00000000000E+00 0. -1.
         11    1    3    3    0    0  0.17665308240E+01 -0.22331072891E+01 -0.91552994318E+01  0.95878520673E+01  0.51100000000E-03 0. -1.
        -11    1    3    3    0    0  0.12940496457E+01 -0.68854172633E+01 -0.17067044593E+02  0.18449052734E+02  0.51100000000E-03 0.  1.
        -12    1    3    3    0    0  0.77420516406E+01 -0.94156618730E+01 -0.13387005614E+02  0.18105412766E+02  0.00000000000E+00 0.  1.
</event>
<event>
 7    1  0.2250716E-008  0.4614232E+02  0.7816164E-02  0.1320468E+00
        -11   -1    0    0    0    0  0.00000000000E+00  0.00000000000E+00  0.45593999997E+02  0.45594000000E+02  0.51100000000E-03 0.  1.
         11   -1    0    0    0    0 -0.00000000000E+00 -0.00000000000E+00 -0.45593999997E+02  0.45594000000E+02  0.51100000000E-03 0. -1.
    9900012    2    1    2    0    0  0.42582735194E+02 -0.53562776324E+01  0.13679706906E+02  0.46142318435E+02  0.10000006141E+02 0.  0.
         12    1    1    2    0    0 -0.42582735194E+02  0.53562776324E+01 -0.13679706906E+02  0.45045681565E+02  0.00000000000E+00 0. -1.
         11    1    3    3    0    0  0.13292131504E+02 -0.86814103446E+00  0.86382401533E+00  0.13348431405E+02  0.51100000000E-03 0. -1.
        -11    1    3    3    0    0  0.24514829677E+02 -0.54193499562E+01  0.92299602029E+01  0.26749549410E+02  0.51100000000E-03 0.  1.
        -12    1    3    3    0    0  0.47757740133E+01  0.93121335825E+00  0.35859226875E+01  0.60443376201E+01  0.00000000000E+00 0.  1.
</event>
<event>
 7    1  0.2250716E-008  0.4614232E+02  0.7816164E-02  0.1320468E+00
        -11   -1    0    0    0    0  0.00000000000E+00  0.00000000000E+00  0.45593999997E+02  0.45594000000E+02  0.51100000000E-03 0.  1.
         11   -1    0    0    0    0 -0.00000000000E+00 -0.00000000000E+00 -0.45593999997E+02  0.45594000000E+02  0.51100000000E-03 0. -1.
    9900012    2    1    2    0    0 -0.24331137791E+02  0.22826876931E+02  0.30266200127E+02  0.46142318223E+02  0.10000004212E+02 0.  0.
         12    1    1    2    0    0  0.24331137791E+02 -0.22826876931E+02 -0.30266200127E+02  0.45045681777E+02  0.00000000000E+00 0. -1.
         11    1    3    3    0    0 -0.54926565806E+01  0.93480890933E+01  0.80151065892E+01  0.13483248122E+02  0.51100000000E-03 0. -1.
        -11    1    3    3    0    0 -0.14033725119E+02  0.12404471469E+02  0.15550064208E+02  0.24343805172E+02  0.51100000000E-03 0.  1.
         12    1    3    3    0    0 -0.48047560918E+01  0.10743163681E+01  0.67010293301E+01  0.83152649292E+01  0.00000000000E+00 0. -1.
</event>
<event>
 7    1  0.2250716E-008  0.4614232E+02  0.7816164E-02  0.1320468E+00
        -11   -1    0    0    0    0  0.00000000000E+00  0.00000000000E+00  0.45593999997E+02  0.45594000000E+02  0.51100000000E-03 0.  1.
         11   -1    0    0    0    0 -0.00000000000E+00 -0.00000000000E+00 -0.45593999997E+02  0.45594000000E+02  0.51100000000E-03 0. -1.
    9900012    2    1    2    0    0  0.38945537806E+02 -0.21345208577E+02  0.75326444187E+01  0.46142316787E+02  0.99999911216E+01 0.  0.
         12    1    1    2    0    0 -0.38945537806E+02  0.21345208577E+02 -0.75326444187E+01  0.45045683213E+02  0.00000000000E+00 0. -1.
         11    1    3    3    0    0  0.28448091504E+02 -0.12461309083E+02  0.52532900787E+01  0.31498812536E+02  0.51100000000E-03 0. -1.
        -11    1    3    3    0    0  0.10889257296E+02 -0.86031309104E+01  0.25202130399E+01  0.14104653840E+02  0.51100000000E-03 0.  1.
         12    1    3    3    0    0 -0.39181099419E+00 -0.28076858328E+00 -0.24085869994E+00  0.53885041140E+00  0.00000000000E+00 0. -1.
</event>
<event>
 7    1  0.2250716E-008  0.4614232E+02  0.7816164E-02  0.1320468E+00
        -11   -1    0    0    0    0  0.00000000000E+00  0.00000000000E+00  0.45593999997E+02  0.45594000000E+02  0.51100000000E-03 0. -1.
         11   -1    0    0    0    0 -0.00000000000E+00 -0.00000000000E+00 -0.45593999997E+02  0.45594000000E+02  0.51100000000E-03 0.  1.
    9900012    2    1    2    0    0  0.15684393922E+02  0.41776623954E+02 -0.61503628396E+01  0.46142317801E+02  0.10000000365E+02 0.  0.
         12    1    1    2    0    0 -0.15684393922E+02 -0.41776623954E+02  0.61503628396E+01  0.45045682199E+02  0.00000000000E+00 0. -1.
         11    1    3    3    0    0  0.15580753720E+00  0.26134950139E+01  0.10687382165E+01  0.28278673613E+01  0.51100000000E-03 0. -1.
        -11    1    3    3    0    0  0.92365582953E+01  0.14652783165E+02 -0.16141711318E+01  0.17396080373E+02  0.51100000000E-03 0.  1.
        -12    1    3    3    0    0  0.62920280894E+01  0.24510345775E+02 -0.56049299243E+01  0.25918370067E+02  0.00000000000E+00 0.  1.
</event>
<event>
 7    1  0.2250716E-008  0.4614232E+02  0.7816164E-02  0.1320468E+00
        -11   -1    0    0    0    0  0.00000000000E+00  0.00000000000E+00  0.45593999997E+02  0.45594000000E+02  0.51100000000E-03 0.  1.
         11   -1    0    0    0    0 -0.00000000000E+00 -0.00000000000E+00 -0.45593999997E+02  0.45594000000E+02  0.51100000000E-03 0. -1.
    9900012    2    1    2    0    0 -0.20954355573E+02  0.36183079823E+02  0.16757484635E+02  0.46142316808E+02  0.99999913100E+01 0.  0.
         12    1    1    2    0    0  0.20954355573E+02 -0.36183079823E+02 -0.16757484635E+02  0.45045683192E+02  0.00000000000E+00 0. -1.
         11    1    3    3    0    0 -0.14719959376E+01  0.54716833625E+01  0.51186021886E+01  0.76358483148E+01  0.51100000000E-03 0. -1.
        -11    1    3    3    0    0 -0.15274559522E+02  0.27279768476E+02  0.95839254189E+01  0.32700910742E+02  0.51100000000E-03 0.  1.
         12    1    3    3    0    0 -0.42078001130E+01  0.34316279846E+01  0.20549570277E+01  0.58055577511E+01  0.00000000000E+00 0. -1.
</event>
<event>
 7    1  0.2250716E-008  0.4614232E+02  0.7816164E-02  0.1320468E+00
        -11   -1    0    0    0    0  0.00000000000E+00  0.00000000000E+00  0.45593999997E+02  0.45594000000E+02  0.51100000000E-03 0.  1.
         11   -1    0    0    0    0 -0.00000000000E+00 -0.00000000000E+00 -0.45593999997E+02  0.45594000000E+02  0.51100000000E-03 0. -1.
    9900012    2    1    2    0    0  0.10648134644E+02 -0.43370867702E+02 -0.58905385087E+01  0.46142318958E+02  0.10000010917E+02 0.  0.
         12    1    1    2    0    0 -0.10648134644E+02  0.43370867702E+02  0.58905385087E+01  0.45045681042E+02  0.00000000000E+00 0. -1.
         11    1    3    3    0    0  0.24305254604E+00 -0.17069076900E+01  0.15008769937E+01  0.22858784775E+01  0.51100000000E-03 0. -1.
        -11    1    3    3    0    0  0.50495056829E+01 -0.11219639982E+02 -0.16065541006E+01  0.12408015366E+02  0.51100000000E-03 0.  1.
        -12    1    3    3    0    0  0.53555764150E+01 -0.30444320029E+02 -0.57848614019E+01  0.31448425115E+02  0.00000000000E+00 0.  1.
</event>
<event>
 7    1  0.2250716E-008  0.4614232E+02  0.7816164E-02  0.1320468E+00
        -11   -1    0    0    0    0  0.00000000000E+00  0.00000000000E+00  0.45593999997E+02  0.45594000000E+02  0.51100000000E-03 0. -1.
         11   -1    0    0    0    0 -0.00000000000E+00 -0.00000000000E+00 -0.45593999997E+02  0.45594000000E+02  0.51100000000E-03 0.  1.
    9900012    2    1    2    0    0  0.25224096143E+02 -0.16980355886E+02 -0.33234410811E+02  0.46142316809E+02  0.99999913144E+01 0.  0.
         12    1    1    2    0    0 -0.25224096143E+02  0.16980355886E+02  0.33234410811E+02  0.45045683191E+02  0.00000000000E+00 0. -1.
         11    1    3    3    0    0  0.79911009260E+01 -0.46439698135E+01 -0.10082701635E+02  0.13677902696E+02  0.51100000000E-03 0. -1.
        -11    1    3    3    0    0  0.15336546410E+02 -0.95404727329E+01 -0.22771090005E+02  0.29064631703E+02  0.51100000000E-03 0.  1.
         12    1    3    3    0    0  0.18964488063E+01 -0.27959133397E+01 -0.38061917068E+00  0.33997824093E+01  0.00000000000E+00 0. -1.
</event>
<event>
 7    1  0.2250716E-008  0.4614232E+02  0.7816164E-02  0.1320468E+00
        -11   -1    0    0    0    0  0.00000000000E+00  0.00000000000E+00  0.45593999997E+02  0.45594000000E+02  0.51100000000E-03 0.  1.
         11   -1    0    0    0    0 -0.00000000000E+00 -0.00000000000E+00 -0.45593999997E+02  0.45594000000E+02  0.51100000000E-03 0. -1.
    9900012    2    1    2    0    0 -0.40253451710E+02 -0.15039404661E+02  0.13512565417E+02  0.46142317729E+02  0.99999997035E+01 0.  0.
         12    1    1    2    0    0  0.40253451710E+02  0.15039404661E+02 -0.13512565417E+02  0.45045682271E+02  0.00000000000E+00 0. -1.
         11    1    3    3    0    0 -0.24886747080E+02 -0.59510819218E+01  0.81601788575E+01  0.26858035586E+02  0.51100000000E-03 0.  1.
        -11    1    3    3    0    0 -0.42965534329E+01 -0.63051476287E+00 -0.47988728123E-01  0.43428358761E+01  0.51100000000E-03 0. -1.
        -12    1    3    3    0    0 -0.11070151197E+02 -0.84578079765E+01  0.54003752879E+01  0.14941446267E+02  0.00000000000E+00 0.  1.
</event>
<event>
 7    1  0.2250716E-008  0.4614232E+02  0.7816164E-02  0.1320468E+00
        -11   -1    0    0    0    0  0.00000000000E+00  0.00000000000E+00  0.45593999997E+02  0.45594000000E+02  0.51100000000E-03 0.  1.
         11   -1    0    0    0    0 -0.00000000000E+00 -0.00000000000E+00 -0.45593999997E+02  0.45594000000E+02  0.51100000000E-03 0. -1.
    9900012    2    1    2    0    0  0.93677205583E+01 -0.31831155239E-01  0.44060847184E+02  0.46142318118E+02  0.10000003254E+02 0.  0.
         12    1    1    2    0    0 -0.93677205583E+01  0.31831155239E-01 -0.44060847184E+02  0.45045681882E+02  0.00000000000E+00 0. -1.
         11    1    3    3    0    0  0.84266627801E+01 -0.77511823164E+00  0.28902292132E+02  0.30115642856E+02  0.51100000000E-03 0. -1.
        -11    1    3    3    0    0  0.29969134722E+01  0.71834455515E+00  0.10295662957E+02  0.10747008200E+02  0.51100000000E-03 0.  1.
        -12    1    3    3    0    0 -0.20558556941E+01  0.24942521248E-01  0.48628920944E+01  0.52796670620E+01  0.00000000000E+00 0.  1.
</event>
<event>
 7    1  0.2250716E-008  0.4614232E+02  0.7816164E-02  0.1320468E+00
        -11   -1    0    0    0    0  0.00000000000E+00  0.00000000000E+00  0.45593999997E+02  0.45594000000E+02  0.51100000000E-03 0.  1.
         11   -1    0    0    0    0 -0.00000000000E+00 -0.00000000000E+00 -0.45593999997E+02  0.45594000000E+02  0.51100000000E-03 0. -1.
    9900012    2    1    2    0    0 -0.13701159565E+02 -0.22056306921E+02  0.36809115563E+02  0.46142318332E+02  0.10000005207E+02 0.  0.
         12    1    1    2    0    0  0.13701159565E+02  0.22056306921E+02 -0.36809115563E+02  0.45045681668E+02  0.00000000000E+00 0. -1.
         11    1    3    3    0    0 -0.54675754686E+01 -0.25200841744E+01  0.12341818597E+02  0.13731922381E+02  0.51100000000E-03 0. -1.
        -11    1    3    3    0    0 -0.37690169943E+01 -0.70506542239E+01  0.93246372378E+01  0.12282755146E+02  0.51100000000E-03 0.  1.
         12    1    3    3    0    0 -0.44645671024E+01 -0.12485568523E+02  0.15142659728E+02  0.20127640805E+02  0.00000000000E+00 0. -1.
</event>
<event>
 7    1  0.2250716E-008  0.4614232E+02  0.7816164E-02  0.1320468E+00
        -11   -1    0    0    0    0  0.00000000000E+00  0.00000000000E+00  0.45593999997E+02  0.45594000000E+02  0.51100000000E-03 0.  1.
         11   -1    0    0    0    0 -0.00000000000E+00 -0.00000000000E+00 -0.45593999997E+02  0.45594000000E+02  0.51100000000E-03 0. -1.
    9900012    2    1    2    0    0 -0.17968627113E+01  0.44490435511E+02  0.68180592836E+01  0.46142317632E+02  0.99999988253E+01 0.  0.
         12    1    1    2    0    0  0.17968627113E+01 -0.44490435511E+02 -0.68180592836E+01  0.45045682368E+02  0.00000000000E+00 0. -1.
         11    1    3    3    0    0  0.18551099915E+01  0.10075051691E+02 -0.11886288134E+00  0.10245107531E+02  0.51100000000E-03 0. -1.
        -11    1    3    3    0    0 -0.46355895924E+01  0.14373446544E+02  0.39460014951E+01  0.15609470986E+02  0.51100000000E-03 0.  1.
        -12    1    3    3    0    0  0.98361688955E+00  0.20041937276E+02  0.29909206698E+01  0.20287739115E+02  0.00000000000E+00 0.  1.
</event>
<event>
 7    1  0.2250716E-008  0.4614232E+02  0.7816164E-02  0.1320468E+00
        -11   -1    0    0    0    0  0.00000000000E+00  0.00000000000E+00  0.45593999997E+02  0.45594000000E+02  0.51100000000E-03 0.  1.
         11   -1    0    0    0    0 -0.00000000000E+00 -0.00000000000E+00 -0.45593999997E+02  0.45594000000E+02  0.51100000000E-03 0. -1.
    9900012    2    1    2    0    0  0.29450705194E+02  0.85966378557E+01  0.32982833746E+02  0.46142317180E+02  0.99999947028E+01 0.  0.
         12    1    1    2    0    0 -0.29450705194E+02 -0.85966378557E+01 -0.32982833746E+02  0.45045682820E+02  0.00000000000E+00 0. -1.
         11    1    3    3    0    0  0.49615564899E+01  0.33709145647E+01  0.72026105818E+01  0.93732442228E+01  0.51100000000E-03 0.  1.
        -11    1    3    3    0    0  0.24046597899E+02  0.64503041669E+01  0.24181731959E+02  0.34707368888E+02  0.51100000000E-03 0. -1.
         12    1    3    3    0    0  0.44255080451E+00 -0.12245808759E+01  0.15984912051E+01  0.20617040692E+01  0.00000000000E+00 0. -1.
</event>
<event>
 7    1  0.2250716E-008  0.4614232E+02  0.7816164E-02  0.1320468E+00
        -11   -1    0    0    0    0  0.00000000000E+00  0.00000000000E+00  0.45593999997E+02  0.45594000000E+02  0.51100000000E-03 0.  1.
         11   -1    0    0    0    0 -0.00000000000E+00 -0.00000000000E+00 -0.45593999997E+02  0.45594000000E+02  0.51100000000E-03 0. -1.
    9900012    2    1    2    0    0 -0.12509759891E+01  0.32634225382E+01  0.44909894079E+02  0.46142318145E+02  0.10000003503E+02 0.  0.
         12    1    1    2    0    0  0.12509759891E+01 -0.32634225382E+01 -0.44909894079E+02  0.45045681855E+02  0.00000000000E+00 0. -1.
         11    1    3    3    0    0 -0.16329799966E+01 -0.25432136833E+01  0.23859503382E+02  0.24050165517E+02  0.51100000000E-03 0. -1.
        -11    1    3    3    0    0  0.11784022905E+01  0.19469813799E+01  0.40962671908E+01  0.46860189513E+01  0.51100000000E-03 0.  1.
         12    1    3    3    0    0 -0.79639828303E+00  0.38596548416E+01  0.16954123506E+02  0.17406133677E+02  0.00000000000E+00 0. -1.
</event>
<event>
 7    1  0.2250716E-008  0.4614232E+02  0.7816164E-02  0.1320468E+00
        -11   -1    0    0    0    0  0.00000000000E+00  0.00000000000E+00  0.45593999997E+02  0.45594000000E+02  0.51100000000E-03 0. -1.
         11   -1    0    0    0    0 -0.00000000000E+00 -0.00000000000E+00 -0.45593999997E+02  0.45594000000E+02  0.51100000000E-03 0.  1.
    9900012    2    1    2    0    0 -0.34485848593E+02  0.28529512145E+02 -0.50898600485E+01  0.46142317724E+02  0.99999996604E+01 0.  0.
         12    1    1    2    0    0  0.34485848593E+02 -0.28529512145E+02  0.50898600485E+01  0.45045682276E+02  0.00000000000E+00 0. -1.
         11    1    3    3    0    0 -0.42234103650E+01  0.11780309879E+01  0.82221541364E-01  0.43853976744E+01  0.51100000000E-03 0. -1.
        -11    1    3    3    0    0 -0.39030304050E+01  0.61609368309E+01  0.10499370233E+01  0.73683890363E+01  0.51100000000E-03 0.  1.
        -12    1    3    3    0    0 -0.26359407823E+02  0.21190544326E+02 -0.62220186132E+01  0.34388531013E+02  0.00000000000E+00 0.  1.
</event>
<event>
 7    1  0.2250716E-008  0.4614232E+02  0.7816164E-02  0.1320468E+00
        -11   -1    0    0    0    0  0.00000000000E+00  0.00000000000E+00  0.45593999997E+02  0.45594000000E+02  0.51100000000E-03 0.  1.
         11   -1    0    0    0    0 -0.00000000000E+00 -0.00000000000E+00 -0.45593999997E+02  0.45594000000E+02  0.51100000000E-03 0. -1.
    9900012    2    1    2    0    0 -0.15562849275E+01 -0.14050671042E+02  0.42769968102E+02  0.46142317066E+02  0.99999936629E+01 0.  0.
         12    1    1    2    0    0  0.15562849275E+01  0.14050671042E+02 -0.42769968102E+02  0.45045682934E+02  0.00000000000E+00 0. -1.
         11    1    3    3    0    0  0.31126025467E+01 -0.26554540213E+01  0.61628477411E+01  0.73973254095E+01  0.51100000000E-03 0. -1.
        -11    1    3    3    0    0 -0.69829571347E+00 -0.18748142228E+01  0.10206760255E+02  0.10400985551E+02  0.51100000000E-03 0.  1.
         12    1    3    3    0    0 -0.39705917608E+01 -0.95204027980E+01  0.26400360106E+02  0.28344006105E+02  0.00000000000E+00 0. -1.
</event>
<event>
 7    1  0.2250716E-008  0.4614232E+02  0.7816164E-02  0.1320468E+00
        -11   -1    0    0    0    0  0.00000000000E+00  0.00000000000E+00  0.45593999997E+02  0.45594000000E+02  0.51100000000E-03 0.  1.
         11   -1    0    0    0    0 -0.00000000000E+00 -0.00000000000E+00 -0.45593999997E+02  0.45594000000E+02  0.51100000000E-03 0. -1.
    9900012    2    1    2    0    0 -0.28712738172E+02 -0.14280696955E+02  0.31634691607E+02  0.46142319276E+02  0.10000013814E+02 0.  0.
         12    1    1    2    0    0  0.28712738172E+02  0.14280696955E+02 -0.31634691607E+02  0.45045680724E+02  0.00000000000E+00 0. -1.
         11    1    3    3    0    0 -0.19116314658E+02 -0.82912528137E+01  0.18032030701E+02  0.27555988293E+02  0.51100000000E-03 0. -1.
        -11    1    3    3    0    0 -0.96194950338E+01 -0.51854903026E+01  0.13941059627E+02  0.17713755620E+02  0.51100000000E-03 0.  1.
         12    1    3    3    0    0  0.23071520649E-01 -0.80395383874E+00 -0.33839872086E+00  0.87257536303E+00  0.00000000000E+00 0. -1.
</event>
<event>
 7    1  0.2250716E-008  0.4614232E+02  0.7816164E-02  0.1320468E+00
        -11   -1    0    0    0    0  0.00000000000E+00  0.00000000000E+00  0.45593999997E+02  0.45594000000E+02  0.51100000000E-03 0.  1.
         11   -1    0    0    0    0 -0.00000000000E+00 -0.00000000000E+00 -0.45593999997E+02  0.45594000000E+02  0.51100000000E-03 0. -1.
    9900012    2    1    2    0    0  0.27262196886E+02  0.36233331663E+01  0.35675727564E+02  0.46142318082E+02  0.10000002924E+02 0.  0.
         12    1    1    2    0    0 -0.27262196886E+02 -0.36233331663E+01 -0.35675727564E+02  0.45045681918E+02  0.00000000000E+00 0. -1.
         11    1    3    3    0    0  0.16679069352E+01  0.16569223170E+01  0.26423128997E+00  0.23658240730E+01  0.51100000000E-03 0. -1.
        -11    1    3    3    0    0  0.16996687432E+02  0.95580222422E+00  0.24824978677E+02  0.30101171208E+02  0.51100000000E-03 0.  1.
         12    1    3    3    0    0  0.85976025190E+01  0.10106086251E+01  0.10586517597E+02  0.13675322801E+02  0.00000000000E+00 0. -1.
</event>
<event>
 7    1  0.2250716E-008  0.4614232E+02  0.7816164E-02  0.1320468E+00
        -11   -1    0    0    0    0  0.00000000000E+00  0.00000000000E+00  0.45593999997E+02  0.45594000000E+02  0.51100000000E-03 0.  1.
         11   -1    0    0    0    0 -0.00000000000E+00 -0.00000000000E+00 -0.45593999997E+02  0.45594000000E+02  0.51100000000E-03 0. -1.
    9900012    2    1    2    0    0  0.24192094312E+02  0.24207828249E+02  0.29288857170E+02  0.46142317299E+02  0.99999957839E+01 0.  0.
         12    1    1    2    0    0 -0.24192094312E+02 -0.24207828249E+02 -0.29288857170E+02  0.45045682701E+02  0.00000000000E+00 0. -1.
         11    1    3    3    0    0  0.94560528227E+01  0.14200631686E+02  0.13333044180E+02  0.21652827590E+02  0.51100000000E-03 0. -1.
        -11    1    3    3    0    0  0.24544169018E+01  0.42095479751E+01  0.30154970588E+01  0.57304170228E+01  0.51100000000E-03 0.  1.
        -12    1    3    3    0    0  0.12281624588E+02  0.57976485875E+01  0.12940315931E+02  0.18759072686E+02  0.00000000000E+00 0.  1.
</event>
<event>
 7    1  0.2250716E-008  0.4614232E+02  0.7816164E-02  0.1320468E+00
        -11   -1    0    0    0    0  0.00000000000E+00  0.00000000000E+00  0.45593999997E+02  0.45594000000E+02  0.51100000000E-03 0.  1.
         11   -1    0    0    0    0 -0.00000000000E+00 -0.00000000000E+00 -0.45593999997E+02  0.45594000000E+02  0.51100000000E-03 0. -1.
    9900012    2    1    2    0    0  0.33187677327E+02 -0.23261594626E+02  0.19661886752E+02  0.46142317614E+02  0.99999986625E+01 0.  0.
         12    1    1    2    0    0 -0.33187677327E+02  0.23261594626E+02 -0.19661886752E+02  0.45045682386E+02  0.00000000000E+00 0. -1.
         11    1    3    3    0    0  0.11287735658E+02 -0.43003697548E+01  0.32938567388E+01  0.12520209615E+02  0.51100000000E-03 0. -1.
        -11    1    3    3    0    0  0.41253014289E+01 -0.60841039258E+01  0.31253859043E+01  0.79876448200E+01  0.51100000000E-03 0.  1.
         12    1    3    3    0    0  0.17774640240E+02 -0.12877120946E+02  0.13242644109E+02  0.25634463180E+02  0.00000000000E+00 0. -1.
</event>
<event>
 7    1  0.2250716E-008  0.4614232E+02  0.7816164E-02  0.1320468E+00
        -11   -1    0    0    0    0  0.00000000000E+00  0.00000000000E+00  0.45593999997E+02  0.45594000000E+02  0.51100000000E-03 0.  1.
         11   -1    0    0    0    0 -0.00000000000E+00 -0.00000000000E+00 -0.45593999997E+02  0.45594000000E+02  0.51100000000E-03 0. -1.
    9900012    2    1    2    0    0 -0.39212773431E+02 -0.21892693720E+02 -0.34902461745E+01  0.46142318111E+02  0.10000003193E+02 0.  0.
         12    1    1    2    0    0  0.39212773431E+02  0.21892693720E+02  0.34902461745E+01  0.45045681889E+02  0.00000000000E+00 0. -1.
         11    1    3    3    0    0 -0.23998867144E+02 -0.10772784506E+02  0.12964633774E+01  0.26337792766E+02  0.51100000000E-03 0. -1.
        -11    1    3    3    0    0 -0.39005179508E+01 -0.11364339856E+01 -0.35249543998E+00  0.40779622098E+01  0.51100000000E-03 0.  1.
         12    1    3    3    0    0 -0.11313388336E+02 -0.99834752287E+01 -0.44342141119E+01  0.15726563136E+02  0.00000000000E+00 0. -1.
</event>
<event>
 7    1  0.2250716E-008  0.4614232E+02  0.7816164E-02  0.1320468E+00
        -11   -1    0    0    0    0  0.00000000000E+00  0.00000000000E+00  0.45593999997E+02  0.45594000000E+02  0.51100000000E-03 0. -1.
         11   -1    0    0    0    0 -0.00000000000E+00 -0.00000000000E+00 -0.45593999997E+02  0.45594000000E+02  0.51100000000E-03 0.  1.
    9900012    2    1    2    0    0 -0.26656975787E+02  0.18385839683E+02 -0.31312614079E+02  0.46142320302E+02  0.10000023171E+02 0.  0.
         12    1    1    2    0    0  0.26656975787E+02 -0.18385839683E+02  0.31312614079E+02  0.45045679698E+02  0.00000000000E+00 0. -1.
         11    1    3    3    0    0 -0.17980196876E+02  0.77963230487E+01 -0.17279712668E+02  0.26127736276E+02  0.51100000000E-03 0.  1.
        -11    1    3    3    0    0 -0.49785137101E+01  0.29645078297E+01 -0.58694268930E+01  0.82476710499E+01  0.51100000000E-03 0. -1.
         12    1    3    3    0    0 -0.36982652013E+01  0.76250088050E+01 -0.81634745183E+01  0.11766912976E+02  0.00000000000E+00 0. -1.
</event>
<event>
 7    1  0.2250716E-008  0.4614232E+02  0.7816164E-02  0.1320468E+00
        -11   -1    0    0    0    0  0.00000000000E+00  0.00000000000E+00  0.45593999997E+02  0.45594000000E+02  0.51100000000E-03 0.  1.
         11   -1    0    0    0    0 -0.00000000000E+00 -0.00000000000E+00 -0.45593999997E+02  0.45594000000E+02  0.51100000000E-03 0. -1.
    9900012    2    1    2    0    0  0.11003384742E+02  0.38043327750E+02 -0.21464953499E+02  0.46142317735E+02  0.99999997582E+01 0.  0.
         12    1    1    2    0    0 -0.11003384742E+02 -0.38043327750E+02  0.21464953499E+02  0.45045682265E+02  0.00000000000E+00 0. -1.
         11    1    3    3    0    0  0.22636968346E+01  0.10734490725E+02 -0.23548406410E+01  0.11220467423E+02  0.51100000000E-03 0.  1.
        -11    1    3    3    0    0  0.25055648456E-01  0.98116659319E+00  0.35089991470E+00  0.10423275303E+01  0.51100000000E-03 0. -1.
         12    1    3    3    0    0  0.87146322584E+01  0.26327670431E+02 -0.19461012773E+02  0.33879522781E+02  0.00000000000E+00 0. -1.
</event>
<event>
 7    1  0.2250716E-008  0.4614232E+02  0.7816164E-02  0.1320468E+00
        -11   -1    0    0    0    0  0.00000000000E+00  0.00000000000E+00  0.45593999997E+02  0.45594000000E+02  0.51100000000E-03 0. -1.
         11   -1    0    0    0    0 -0.00000000000E+00 -0.00000000000E+00 -0.45593999997E+02  0.45594000000E+02  0.51100000000E-03 0.  1.
    9900012    2    1    2    0    0  0.36244587561E+02  0.14838227943E+02 -0.22254668689E+02  0.46142318582E+02  0.10000007485E+02 0.  0.
         12    1    1    2    0    0 -0.36244587561E+02 -0.14838227943E+02  0.22254668689E+02  0.45045681418E+02  0.00000000000E+00 0. -1.
         11    1    3    3    0    0  0.20450641241E+02  0.93566210744E+01 -0.15165138817E+02  0.27124832178E+02  0.51100000000E-03 0.  1.
        -11    1    3    3    0    0  0.87625369842E+01  0.62582896066E+00 -0.53850926705E+01  0.10304025408E+02  0.51100000000E-03 0. -1.
        -12    1    3    3    0    0  0.70314093363E+01  0.48557779080E+01 -0.17044372010E+01  0.87134609955E+01  0.00000000000E+00 0.  1.
</event>
<event>
 7    1  0.2250716E-008  0.4614232E+02  0.7816164E-02  0.1320468E+00
        -11   -1    0    0    0    0  0.00000000000E+00  0.00000000000E+00  0.45593999997E+02  0.45594000000E+02  0.51100000000E-03 0. -1.
         11   -1    0    0    0    0 -0.00000000000E+00 -0.00000000000E+00 -0.45593999997E+02  0.45594000000E+02  0.51100000000E-03 0.  1.
    9900012    2    1    2    0    0 -0.67336437779E+01 -0.77315351735E+01 -0.43863365633E+02  0.46142318306E+02  0.10000004966E+02 0.  0.
         12    1    1    2    0    0  0.67336437779E+01  0.77315351735E+01  0.43863365633E+02  0.45045681694E+02  0.00000000000E+00 0. -1.
         11    1    3    3    0    0 -0.21374464700E+01  0.14704694096E+01 -0.51725072754E+01  0.57866907185E+01  0.51100000000E-03 0. -1.
        -11    1    3    3    0    0 -0.28857818449E+01 -0.30250326069E+01 -0.23483961212E+02  0.23853196716E+02  0.51100000000E-03 0.  1.
        -12    1    3    3    0    0 -0.17104154629E+01 -0.61769719762E+01 -0.15206897146E+02  0.16502430871E+02  0.00000000000E+00 0.  1.
</event>
<event>
 7    1  0.2250716E-008  0.4614232E+02  0.7816164E-02  0.1320468E+00
        -11   -1    0    0    0    0  0.00000000000E+00  0.00000000000E+00  0.45593999997E+02  0.45594000000E+02  0.51100000000E-03 0. -1.
         11   -1    0    0    0    0 -0.00000000000E+00 -0.00000000000E+00 -0.45593999997E+02  0.45594000000E+02  0.51100000000E-03 0.  1.
    9900012    2    1    2    0    0  0.31137673944E+02 -0.90702967528E+01 -0.31261611734E+02  0.46142318853E+02  0.10000009957E+02 0.  0.
         12    1    1    2    0    0 -0.31137673944E+02  0.90702967528E+01  0.31261611734E+02  0.45045681147E+02  0.00000000000E+00 0. -1.
         11    1    3    3    0    0  0.80637072176E+01 -0.16364538238E+00 -0.73329832239E+01  0.10900587008E+02  0.51100000000E-03 0. -1.
        -11    1    3    3    0    0  0.87087006244E+01 -0.59084277527E+01 -0.14039201270E+02  0.17545659225E+02  0.51100000000E-03 0.  1.
        -12    1    3    3    0    0  0.14365266102E+02 -0.29982236177E+01 -0.98894272394E+01  0.17696072619E+02  0.00000000000E+00 0.  1.
</event>
<event>
 7    1  0.2250716E-008  0.4614232E+02  0.7816164E-02  0.1320468E+00
        -11   -1    0    0    0    0  0.00000000000E+00  0.00000000000E+00  0.45593999997E+02  0.45594000000E+02  0.51100000000E-03 0. -1.
         11   -1    0    0    0    0 -0.00000000000E+00 -0.00000000000E+00 -0.45593999997E+02  0.45594000000E+02  0.51100000000E-03 0.  1.
    9900012    2    1    2    0    0 -0.43896383051E+02  0.10044895977E+02 -0.11494405275E+01  0.46142316593E+02  0.99999893437E+01 0.  0.
         12    1    1    2    0    0  0.43896383051E+02 -0.10044895977E+02  0.11494405275E+01  0.45045683407E+02  0.00000000000E+00 0. -1.
         11    1    3    3    0    0 -0.66524316971E+01 -0.22129404451E+00  0.14562715771E+01  0.68135560250E+01  0.51100000000E-03 0. -1.
        -11    1    3    3    0    0 -0.30065589896E+02  0.70524716193E+01  0.46628372547E+00  0.30885182087E+02  0.51100000000E-03 0.  1.
         12    1    3    3    0    0 -0.71783614573E+01  0.32137184026E+01 -0.30719958301E+01  0.84435784809E+01  0.00000000000E+00 0. -1.
</event>
<event>
 7    1  0.2250716E-008  0.4614232E+02  0.7816164E-02  0.1320468E+00
        -11   -1    0    0    0    0  0.00000000000E+00  0.00000000000E+00  0.45593999997E+02  0.45594000000E+02  0.51100000000E-03 0.  1.
         11   -1    0    0    0    0 -0.00000000000E+00 -0.00000000000E+00 -0.45593999997E+02  0.45594000000E+02  0.51100000000E-03 0. -1.
    9900012    2    1    2    0    0 -0.95349407814E+01 -0.26541938386E+02  0.35124406157E+02  0.46142317667E+02  0.99999991382E+01 0.  0.
         12    1    1    2    0    0  0.95349407814E+01  0.26541938386E+02 -0.35124406157E+02  0.45045682333E+02  0.00000000000E+00 0. -1.
         11    1    3    3    0    0  0.10237958783E+01 -0.33838595721E+00  0.58272723250E+00  0.12256566996E+01  0.51100000000E-03 0. -1.
        -11    1    3    3    0    0 -0.10386194282E+02 -0.22407857901E+02  0.27868671665E+02  0.37237722648E+02  0.51100000000E-03 0.  1.
        -12    1    3    3    0    0 -0.17254237743E+00 -0.37956945282E+01  0.66730072596E+01  0.76789383192E+01  0.00000000000E+00 0.  1.
</event>
<event>
 7    1  0.2250716E-008  0.4614232E+02  0.7816164E-02  0.1320468E+00
        -11   -1    0    0    0    0  0.00000000000E+00  0.00000000000E+00  0.45593999997E+02  0.45594000000E+02  0.51100000000E-03 0.  1.
         11   -1    0    0    0    0 -0.00000000000E+00 -0.00000000000E+00 -0.45593999997E+02  0.45594000000E+02  0.51100000000E-03 0. -1.
    9900012    2    1    2    0    0  0.16553980693E+02  0.23570842132E+02  0.34633720307E+02  0.46142318099E+02  0.10000003084E+02 0.  0.
         12    1    1    2    0    0 -0.16553980693E+02 -0.23570842132E+02 -0.34633720307E+02  0.45045681901E+02  0.00000000000E+00 0. -1.
         11    1    3    3    0    0  0.55736716172E+01  0.14732690754E+02  0.20668596679E+02  0.25986705853E+02  0.51100000000E-03 0. -1.
        -11    1    3    3    0    0  0.42450619628E+01  0.56894403332E+01  0.68027652258E+01  0.98319833884E+01  0.51100000000E-03 0.  1.
         12    1    3    3    0    0  0.67352471128E+01  0.31487110448E+01  0.71623584024E+01  0.10323628858E+02  0.00000000000E+00 0. -1.
</event>
<event>
 7    1  0.2250716E-008  0.4614232E+02  0.7816164E-02  0.1320468E+00
        -11   -1    0    0    0    0  0.00000000000E+00  0.00000000000E+00  0.45593999997E+02  0.45594000000E+02  0.51100000000E-03 0.  1.
         11   -1    0    0    0    0 -0.00000000000E+00 -0.00000000000E+00 -0.45593999997E+02  0.45594000000E+02  0.51100000000E-03 0. -1.
    9900012    2    1    2    0    0 -0.54462598863E+01  0.32951933017E+02 -0.30226178564E+02  0.46142317555E+02  0.99999981245E+01 0.  0.
         12    1    1    2    0    0  0.54462598863E+01 -0.32951933017E+02  0.30226178564E+02  0.45045682445E+02  0.00000000000E+00 0. -1.
         11    1    3    3    0    0  0.21415556062E+01  0.67474974561E+01 -0.70867571178E+01  0.10016841271E+02  0.51100000000E-03 0.  1.
        -11    1    3    3    0    0 -0.39237132522E+01  0.21081614399E+02 -0.17888052525E+02  0.27925121571E+02  0.51100000000E-03 0. -1.
         12    1    3    3    0    0 -0.36641022403E+01  0.51228211621E+01 -0.52513689211E+01  0.82003547137E+01  0.00000000000E+00 0. -1.
</event>
<event>
 7    1  0.2250716E-008  0.4614232E+02  0.7816164E-02  0.1320468E+00
        -11   -1    0    0    0    0  0.00000000000E+00  0.00000000000E+00  0.45593999997E+02  0.45594000000E+02  0.51100000000E-03 0.  1.
         11   -1    0    0    0    0 -0.00000000000E+00 -0.00000000000E+00 -0.45593999997E+02  0.45594000000E+02  0.51100000000E-03 0. -1.
    9900012    2    1    2    0    0  0.10429113395E+02 -0.34608171040E+02  0.26881622757E+02  0.46142317066E+02  0.99999936615E+01 0.  0.
         12    1    1    2    0    0 -0.10429113395E+02  0.34608171040E+02 -0.26881622757E+02  0.45045682934E+02  0.00000000000E+00 0. -1.
         11    1    3    3    0    0  0.32742749652E+01 -0.16294966860E+02  0.77170441715E+01  0.18324835402E+02  0.51100000000E-03 0.  1.
        -11    1    3    3    0    0  0.34712536189E+01 -0.13812411912E+02  0.12279909215E+02  0.18805012500E+02  0.51100000000E-03 0. -1.
        -12    1    3    3    0    0  0.36835848112E+01 -0.45007922683E+01  0.68846693697E+01  0.90124691641E+01  0.00000000000E+00 0.  1.
</event>
<event>
 7    1  0.2250716E-008  0.4614232E+02  0.7816164E-02  0.1320468E+00
        -11   -1    0    0    0    0  0.00000000000E+00  0.00000000000E+00  0.45593999997E+02  0.45594000000E+02  0.51100000000E-03 0. -1.
         11   -1    0    0    0    0 -0.00000000000E+00 -0.00000000000E+00 -0.45593999997E+02  0.45594000000E+02  0.51100000000E-03 0.  1.
    9900012    2    1    2    0    0 -0.41780741614E+02 -0.12131808044E+02  0.11674848297E+02  0.46142320752E+02  0.10000027269E+02 0.  0.
         12    1    1    2    0    0  0.41780741614E+02  0.12131808044E+02 -0.11674848297E+02  0.45045679248E+02  0.00000000000E+00 0. -1.
         11    1    3    3    0    0 -0.30471781280E+01 -0.26445482623E+01  0.30555747112E+01  0.50611725057E+01  0.51100000000E-03 0. -1.
        -11    1    3    3    0    0 -0.12937848585E+02 -0.40473420357E+01  0.78587843187E+00  0.13578899393E+02  0.51100000000E-03 0.  1.
        -12    1    3    3    0    0 -0.25795714901E+02 -0.54399177461E+01  0.78333951535E+01  0.27502248853E+02  0.00000000000E+00 0.  1.
</event>
<event>
 7    1  0.2250716E-008  0.4614231E+02  0.7816164E-02  0.1320468E+00
        -11   -1    0    0    0    0  0.00000000000E+00  0.00000000000E+00  0.45593999997E+02  0.45594000000E+02  0.51100000000E-03 0.  1.
         11   -1    0    0    0    0 -0.00000000000E+00 -0.00000000000E+00 -0.45593999997E+02  0.45594000000E+02  0.51100000000E-03 0. -1.
    9900012    2    1    2    0    0  0.41654207044E+02 -0.45063397543E+01  0.16544914007E+02  0.46142309397E+02  0.99999237270E+01 0.  0.
         12    1    1    2    0    0 -0.41654207044E+02  0.45063397543E+01 -0.16544914007E+02  0.45045690603E+02  0.00000000000E+00 0. -1.
         11    1    3    3    0    0  0.72048837484E+01 -0.39145951923E+00  0.38393007293E+00  0.72257174693E+01  0.51100000000E-03 0. -1.
        -11    1    3    3    0    0  0.51387515978E+01 -0.30477225872E+01  0.16784143100E+01  0.62058404596E+01  0.51100000000E-03 0.  1.
        -12    1    3    3    0    0  0.29310571697E+02 -0.10671576478E+01  0.14482569624E+02  0.32710751468E+02  0.00000000000E+00 0.  1.
</event>
<event>
 7    1  0.2250716E-008  0.4614232E+02  0.7816164E-02  0.1320468E+00
        -11   -1    0    0    0    0  0.00000000000E+00  0.00000000000E+00  0.45593999997E+02  0.45594000000E+02  0.51100000000E-03 0.  1.
         11   -1    0    0    0    0 -0.00000000000E+00 -0.00000000000E+00 -0.45593999997E+02  0.45594000000E+02  0.51100000000E-03 0. -1.
    9900012    2    1    2    0    0 -0.10190573395E+02 -0.24115077118E+02  0.36656905768E+02  0.46142317954E+02  0.10000001759E+02 0.  0.
         12    1    1    2    0    0  0.10190573395E+02  0.24115077118E+02 -0.36656905768E+02  0.45045682046E+02  0.00000000000E+00 0. -1.
         11    1    3    3    0    0 -0.41291888126E+01 -0.40349398930E+01  0.90202177750E+01  0.10709587721E+02  0.51100000000E-03 0. -1.
        -11    1    3    3    0    0 -0.71134359452E+01 -0.12154026272E+02  0.16013059575E+02  0.21324619640E+02  0.51100000000E-03 0.  1.
        -12    1    3    3    0    0  0.10520513628E+01 -0.79261109528E+01  0.11623628417E+02  0.14108110592E+02  0.00000000000E+00 0.  1.
</event>
<event>
 7    1  0.2250716E-008  0.4614232E+02  0.7816164E-02  0.1320468E+00
        -11   -1    0    0    0    0  0.00000000000E+00  0.00000000000E+00  0.45593999997E+02  0.45594000000E+02  0.51100000000E-03 0. -1.
         11   -1    0    0    0    0 -0.00000000000E+00 -0.00000000000E+00 -0.45593999997E+02  0.45594000000E+02  0.51100000000E-03 0.  1.
    9900012    2    1    2    0    0 -0.26696120551E+02  0.16037770564E+02 -0.32545668297E+02  0.46142318054E+02  0.10000002669E+02 0.  0.
         12    1    1    2    0    0  0.26696120551E+02 -0.16037770564E+02  0.32545668297E+02  0.45045681946E+02  0.00000000000E+00 0. -1.
         11    1    3    3    0    0 -0.11814657707E+02  0.98900357914E+01 -0.12852307979E+02  0.20064415400E+02  0.51100000000E-03 0. -1.
        -11    1    3    3    0    0 -0.15272098224E+02  0.64607833497E+01 -0.19266655032E+02  0.25420123958E+02  0.51100000000E-03 0.  1.
         12    1    3    3    0    0  0.39063538026E+00 -0.31304857740E+00 -0.42670528645E+00  0.65777869653E+00  0.00000000000E+00 0. -1.
</event>
<event>
 7    1  0.2250716E-008  0.4614232E+02  0.7816164E-02  0.1320468E+00
        -11   -1    0    0    0    0  0.00000000000E+00  0.00000000000E+00  0.45593999997E+02  0.45594000000E+02  0.51100000000E-03 0. -1.
         11   -1    0    0    0    0 -0.00000000000E+00 -0.00000000000E+00 -0.45593999997E+02  0.45594000000E+02  0.51100000000E-03 0.  1.
    9900012    2    1    2    0    0 -0.37231569108E+02  0.16694811417E+02 -0.19084208758E+02  0.46142317738E+02  0.99999997928E+01 0.  0.
         12    1    1    2    0    0  0.37231569108E+02 -0.16694811417E+02  0.19084208758E+02  0.45045682262E+02  0.00000000000E+00 0. -1.
         11    1    3    3    0    0 -0.11324275587E+02  0.49306442604E+01 -0.78258972519E+01  0.14621735138E+02  0.51100000000E-03 0. -1.
        -11    1    3    3    0    0 -0.24204881106E+02  0.12333712047E+02 -0.11839142473E+02  0.29633798557E+02  0.51100000000E-03 0.  1.
         12    1    3    3    0    0 -0.17024124150E+01 -0.56954489016E+00  0.58083096607E+00  0.18867840427E+01  0.00000000000E+00 0. -1.
</event>
<event>
 7    1  0.2250716E-008  0.4614232E+02  0.7816164E-02  0.1320468E+00
        -11   -1    0    0    0    0  0.00000000000E+00  0.00000000000E+00  0.45593999997E+02  0.45594000000E+02  0.51100000000E-03 0.  1.
         11   -1    0    0    0    0 -0.00000000000E+00 -0.00000000000E+00 -0.45593999997E+02  0.45594000000E+02  0.51100000000E-03 0. -1.
    9900012    2    1    2    0    0 -0.32040705103E+02 -0.17552556292E+01  0.31613697721E+02  0.46142316640E+02  0.99999897736E+01 0.  0.
         12    1    1    2    0    0  0.32040705103E+02  0.17552556292E+01 -0.31613697721E+02  0.45045683360E+02  0.00000000000E+00 0. -1.
         11    1    3    3    0    0 -0.10611441832E+02  0.27469730166E+01  0.92349489446E+01  0.14332928549E+02  0.51100000000E-03 0. -1.
        -11    1    3    3    0    0 -0.18366095030E+02 -0.21694597252E+01  0.20192499143E+02  0.27381691402E+02  0.51100000000E-03 0.  1.
         12    1    3    3    0    0 -0.30631682410E+01 -0.23327689206E+01  0.21862496333E+01  0.44276966889E+01  0.00000000000E+00 0. -1.
</event>
<event>
 7    1  0.2250716E-008  0.4614232E+02  0.7816164E-02  0.1320468E+00
        -11   -1    0    0    0    0  0.00000000000E+00  0.00000000000E+00  0.45593999997E+02  0.45594000000E+02  0.51100000000E-03 0.  1.
         11   -1    0    0    0    0 -0.00000000000E+00 -0.00000000000E+00 -0.45593999997E+02  0.45594000000E+02  0.51100000000E-03 0. -1.
    9900012    2    1    2    0    0  0.28458781255E+02 -0.21167705021E+02  0.27769400472E+02  0.46142316867E+02  0.99999918431E+01 0.  0.
         12    1    1    2    0    0 -0.28458781255E+02  0.21167705021E+02 -0.27769400472E+02  0.45045683133E+02  0.00000000000E+00 0. -1.
         11    1    3    3    0    0  0.80845681115E+01 -0.99153883514E+01  0.78165391640E+01  0.14992446514E+02  0.51100000000E-03 0. -1.
        -11    1    3    3    0    0  0.73829430318E+01 -0.67248399935E+01  0.65502910948E+01  0.11943099867E+02  0.51100000000E-03 0.  1.
        -12    1    3    3    0    0  0.12991270112E+02 -0.45274766766E+01  0.13402570213E+02  0.19206770486E+02  0.00000000000E+00 0.  1.
</event>
<event>
 7    1  0.2250716E-008  0.4614232E+02  0.7816164E-02  0.1320468E+00
        -11   -1    0    0    0    0  0.00000000000E+00  0.00000000000E+00  0.45593999997E+02  0.45594000000E+02  0.51100000000E-03 0. -1.
         11   -1    0    0    0    0 -0.00000000000E+00 -0.00000000000E+00 -0.45593999997E+02  0.45594000000E+02  0.51100000000E-03 0.  1.
    9900012    2    1    2    0    0 -0.36638959639E+02  0.59981774627E+01 -0.25509256887E+02  0.46142315598E+02  0.99999802747E+01 0.  0.
         12    1    1    2    0    0  0.36638959639E+02 -0.59981774627E+01  0.25509256887E+02  0.45045684402E+02  0.00000000000E+00 0. -1.
         11    1    3    3    0    0 -0.40958550659E+01  0.22107796160E+01 -0.53921190565E+01  0.71230978802E+01  0.51100000000E-03 0. -1.
        -11    1    3    3    0    0 -0.49160832867E+01  0.27478668664E+01 -0.48784156059E+01  0.74510124334E+01  0.51100000000E-03 0.  1.
         12    1    3    3    0    0 -0.27627021287E+02  0.10395309803E+01 -0.15238722224E+02  0.31568205284E+02  0.00000000000E+00 0. -1.
</event>
<event>
 7    1  0.2250716E-008  0.4614232E+02  0.7816164E-02  0.1320468E+00
        -11   -1    0    0    0    0  0.00000000000E+00  0.00000000000E+00  0.45593999997E+02  0.45594000000E+02  0.51100000000E-03 0.  1.
         11   -1    0    0    0    0 -0.00000000000E+00 -0.00000000000E+00 -0.45593999997E+02  0.45594000000E+02  0.51100000000E-03 0. -1.
    9900012    2    1    2    0    0  0.45322515025E+01 -0.56104527895E+01  0.44464538532E+02  0.46142315733E+02  0.99999815060E+01 0.  0.
         12    1    1    2    0    0 -0.45322515025E+01  0.56104527895E+01 -0.44464538532E+02  0.45045684267E+02  0.00000000000E+00 0. -1.
         11    1    3    3    0    0  0.22349166476E+01 -0.27391705088E+01  0.14994089110E+02  0.15405213922E+02  0.51100000000E-03 0.  1.
        -11    1    3    3    0    0  0.36697655461E+01  0.57737167998E-01  0.59189509589E+01  0.69645167427E+01  0.51100000000E-03 0. -1.
         12    1    3    3    0    0 -0.13724306911E+01 -0.29290194486E+01  0.23551498464E+02  0.23772585068E+02  0.00000000000E+00 0. -1.
</event>
<event>
 7    1  0.2250716E-008  0.4614232E+02  0.7816164E-02  0.1320468E+00
        -11   -1    0    0    0    0  0.00000000000E+00  0.00000000000E+00  0.45593999997E+02  0.45594000000E+02  0.51100000000E-03 0.  1.
         11   -1    0    0    0    0 -0.00000000000E+00 -0.00000000000E+00 -0.45593999997E+02  0.45594000000E+02  0.51100000000E-03 0. -1.
    9900012    2    1    2    0    0  0.50486726651E+01  0.75510440027E+01  0.44120359134E+02  0.46142318173E+02  0.10000003753E+02 0.  0.
         12    1    1    2    0    0 -0.50486726651E+01 -0.75510440027E+01 -0.44120359134E+02  0.45045681827E+02  0.00000000000E+00 0. -1.
         11    1    3    3    0    0 -0.16593710559E+01 -0.51105072848E-01  0.15955453936E+02  0.16041590775E+02  0.51100000000E-03 0. -1.
        -11    1    3    3    0    0  0.24447320326E+01  0.13893118416E+01  0.11020622848E+02  0.11373699061E+02  0.51100000000E-03 0.  1.
         12    1    3    3    0    0  0.42633116883E+01  0.62128372339E+01  0.17144282350E+02  0.18727028337E+02  0.00000000000E+00 0. -1.
</event>
<event>
 7    1  0.2250716E-008  0.4614233E+02  0.7816164E-02  0.1320468E+00
        -11   -1    0    0    0    0  0.00000000000E+00  0.00000000000E+00  0.45593999997E+02  0.45594000000E+02  0.51100000000E-03 0.  1.
         11   -1    0    0    0    0 -0.00000000000E+00 -0.00000000000E+00 -0.45593999997E+02  0.45594000000E+02  0.51100000000E-03 0. -1.
    9900012    2    1    2    0    0  0.97599027549E+01 -0.21541513336E+02  0.38338234148E+02  0.46142326554E+02  0.10000080183E+02 0.  0.
         12    1    1    2    0    0 -0.97599027549E+01  0.21541513336E+02 -0.38338234148E+02  0.45045673446E+02  0.00000000000E+00 0. -1.
         11    1    3    3    0    0  0.61239111383E+01 -0.12674255104E+02  0.13739197169E+02  0.19669889913E+02  0.51100000000E-03 0.  1.
        -11    1    3    3    0    0  0.39388969390E+00 -0.12348072201E+01  0.55033636095E+01  0.56539286554E+01  0.51100000000E-03 0. -1.
        -12    1    3    3    0    0  0.32421019227E+01 -0.76324510116E+01  0.19095673370E+02  0.20818507986E+02  0.00000000000E+00 0.  1.
</event>
<event>
 7    1  0.2250716E-008  0.4614232E+02  0.7816164E-02  0.1320468E+00
        -11   -1    0    0    0    0  0.00000000000E+00  0.00000000000E+00  0.45593999997E+02  0.45594000000E+02  0.51100000000E-03 0.  1.
         11   -1    0    0    0    0 -0.00000000000E+00 -0.00000000000E+00 -0.45593999997E+02  0.45594000000E+02  0.51100000000E-03 0. -1.
    9900012    2    1    2    0    0  0.24037521245E+02 -0.20728532035E+02  0.31963088523E+02  0.46142317678E+02  0.99999992388E+01 0.  0.
         12    1    1    2    0    0 -0.24037521245E+02  0.20728532035E+02 -0.31963088523E+02  0.45045682322E+02  0.00000000000E+00 0. -1.
         11    1    3    3    0    0  0.83308286555E+01 -0.21379577670E+01  0.56063179797E+01  0.10266663092E+02  0.51100000000E-03 0. -1.
        -11    1    3    3    0    0  0.16842424351E+01 -0.21114124573E+01  0.28686318740E+01  0.39400233800E+01  0.51100000000E-03 0.  1.
         12    1    3    3    0    0  0.14022450155E+02 -0.16479161811E+02  0.23488138670E+02  0.31935631205E+02  0.00000000000E+00 0. -1.
</event>
<event>
 7    1  0.2250716E-008  0.4614232E+02  0.7816164E-02  0.1320468E+00
        -11   -1    0    0    0    0  0.00000000000E+00  0.00000000000E+00  0.45593999997E+02  0.45594000000E+02  0.51100000000E-03 0. -1.
         11   -1    0    0    0    0 -0.00000000000E+00 -0.00000000000E+00 -0.45593999997E+02  0.45594000000E+02  0.51100000000E-03 0.  1.
    9900012    2    1    2    0    0 -0.99798304860E+01  0.36907007013E+02 -0.23819936908E+02  0.46142316772E+02  0.99999909818E+01 0.  0.
         12    1    1    2    0    0  0.99798304860E+01 -0.36907007013E+02  0.23819936908E+02  0.45045683228E+02  0.00000000000E+00 0. -1.
         11    1    3    3    0    0 -0.58324550218E+01  0.20544306384E+02 -0.97031674929E+01  0.23457142112E+02  0.51100000000E-03 0. -1.
        -11    1    3    3    0    0 -0.18816063293E+00  0.58097240073E+00  0.51820282488E+00  0.80091683902E+00  0.51100000000E-03 0.  1.
        -12    1    3    3    0    0 -0.39592148312E+01  0.15781728228E+02 -0.14634972240E+02  0.21884257821E+02  0.00000000000E+00 0.  1.
</event>
<event>
 7    1  0.2250716E-008  0.4614232E+02  0.7816164E-02  0.1320468E+00
        -11   -1    0    0    0    0  0.00000000000E+00  0.00000000000E+00  0.45593999997E+02  0.45594000000E+02  0.51100000000E-03 0.  1.
         11   -1    0    0    0    0 -0.00000000000E+00 -0.00000000000E+00 -0.45593999997E+02  0.45594000000E+02  0.51100000000E-03 0. -1.
    9900012    2    1    2    0    0  0.36654185374E+02 -0.23949214475E+02  0.10583916964E+02  0.46142317879E+02  0.10000001079E+02 0.  0.
         12    1    1    2    0    0 -0.36654185374E+02  0.23949214475E+02 -0.10583916964E+02  0.45045682121E+02  0.00000000000E+00 0. -1.
         11    1    3    3    0    0  0.13533939696E+02 -0.61960491630E+01  0.65573524527E+00  0.14899279778E+02  0.51100000000E-03 0. -1.
        -11    1    3    3    0    0  0.21241364558E+02 -0.17831921758E+02  0.94842657564E+01  0.29310822217E+02  0.51100000000E-03 0.  1.
        -12    1    3    3    0    0  0.18788811204E+01  0.78756445643E-01  0.44391596194E+00  0.19322158843E+01  0.00000000000E+00 0.  1.
</event>
<event>
 7    1  0.2250716E-008  0.4614232E+02  0.7816164E-02  0.1320468E+00
        -11   -1    0    0    0    0  0.00000000000E+00  0.00000000000E+00  0.45593999997E+02  0.45594000000E+02  0.51100000000E-03 0.  1.
         11   -1    0    0    0    0 -0.00000000000E+00 -0.00000000000E+00 -0.45593999997E+02  0.45594000000E+02  0.51100000000E-03 0. -1.
    9900012    2    1    2    0    0  0.23407825680E+02  0.16970246649E+02  0.34542690734E+02  0.46142322544E+02  0.10000043610E+02 0.  0.
         12    1    1    2    0    0 -0.23407825680E+02 -0.16970246649E+02 -0.34542690734E+02  0.45045677456E+02  0.00000000000E+00 0. -1.
         11    1    3    3    0    0  0.34594672075E+01  0.34516219510E+01  0.61402561572E+01  0.78475699034E+01  0.51100000000E-03 0. -1.
        -11    1    3    3    0    0  0.16088301424E+02  0.63399368992E+01  0.16750760634E+02  0.24075220137E+02  0.51100000000E-03 0.  1.
         12    1    3    3    0    0  0.38600570487E+01  0.71786877984E+01  0.11651673943E+02  0.14219532503E+02  0.00000000000E+00 0. -1.
</event>
<event>
 7    1  0.2250716E-008  0.4614232E+02  0.7816164E-02  0.1320468E+00
        -11   -1    0    0    0    0  0.00000000000E+00  0.00000000000E+00  0.45593999997E+02  0.45594000000E+02  0.51100000000E-03 0. -1.
         11   -1    0    0    0    0 -0.00000000000E+00 -0.00000000000E+00 -0.45593999997E+02  0.45594000000E+02  0.51100000000E-03 0.  1.
    9900012    2    1    2    0    0  0.42428088597E+02  0.11987604424E+02 -0.92340780904E+01  0.46142316966E+02  0.99999927465E+01 0.  0.
         12    1    1    2    0    0 -0.42428088597E+02 -0.11987604424E+02  0.92340780904E+01  0.45045683034E+02  0.00000000000E+00 0. -1.
         11    1    3    3    0    0  0.55788498561E-01 -0.21004874153E+00  0.86158016892E+00  0.88856821854E+00  0.51100000000E-03 0. -1.
        -11    1    3    3    0    0  0.12859675286E+02  0.42513799004E+01 -0.34264606750E+01  0.13970902352E+02  0.51100000000E-03 0.  1.
         12    1    3    3    0    0  0.29512624813E+02  0.79462732650E+01 -0.66691975843E+01  0.31282846395E+02  0.00000000000E+00 0. -1.
</event>
<event>
 7    1  0.2250716E-008  0.4614231E+02  0.7816164E-02  0.1320468E+00
        -11   -1    0    0    0    0  0.00000000000E+00  0.00000000000E+00  0.45593999997E+02  0.45594000000E+02  0.51100000000E-03 0.  1.
         11   -1    0    0    0    0 -0.00000000000E+00 -0.00000000000E+00 -0.45593999997E+02  0.45594000000E+02  0.51100000000E-03 0. -1.
    9900012    2    1    2    0    0 -0.26332014429E+02  0.32820328307E+02  0.16079961647E+02  0.46142310965E+02  0.99999380270E+01 0.  0.
         12    1    1    2    0    0  0.26332014429E+02 -0.32820328307E+02 -0.16079961647E+02  0.45045689035E+02  0.00000000000E+00 0. -1.
         11    1    3    3    0    0 -0.94808965869E+01  0.86611541008E+01  0.52740834816E+01  0.13882324996E+02  0.51100000000E-03 0. -1.
        -11    1    3    3    0    0 -0.93467915271E+01  0.19177327105E+02  0.67024584282E+01  0.22361917091E+02  0.51100000000E-03 0.  1.
        -12    1    3    3    0    0 -0.75043263154E+01  0.49818471014E+01  0.41034197372E+01  0.98980688788E+01  0.00000000000E+00 0.  1.
</event>
<event>
 7    1  0.2250716E-008  0.4614232E+02  0.7816164E-02  0.1320468E+00
        -11   -1    0    0    0    0  0.00000000000E+00  0.00000000000E+00  0.45593999997E+02  0.45594000000E+02  0.51100000000E-03 0. -1.
         11   -1    0    0    0    0 -0.00000000000E+00 -0.00000000000E+00 -0.45593999997E+02  0.45594000000E+02  0.51100000000E-03 0.  1.
    9900012    2    1    2    0    0  0.15439824736E+02  0.33367697312E+02  0.26025411532E+02  0.46142318107E+02  0.10000003157E+02 0.  0.
         12    1    1    2    0    0 -0.15439824736E+02 -0.33367697312E+02 -0.26025411532E+02  0.45045681893E+02  0.00000000000E+00 0. -1.
         11    1    3    3    0    0  0.48655568184E+01  0.15019881891E+02  0.11821567664E+02  0.19723588859E+02  0.51100000000E-03 0. -1.
        -11    1    3    3    0    0  0.68205296788E+01  0.15463255420E+02  0.82342750484E+01  0.18799871785E+02  0.51100000000E-03 0.  1.
         12    1    3    3    0    0  0.37537382383E+01  0.28845600001E+01  0.59695688196E+01  0.76188574634E+01  0.00000000000E+00 0. -1.
</event>
<event>
 7    1  0.2250716E-008  0.4614232E+02  0.7816164E-02  0.1320468E+00
        -11   -1    0    0    0    0  0.00000000000E+00  0.00000000000E+00  0.45593999997E+02  0.45594000000E+02  0.51100000000E-03 0.  1.
         11   -1    0    0    0    0 -0.00000000000E+00 -0.00000000000E+00 -0.45593999997E+02  0.45594000000E+02  0.51100000000E-03 0. -1.
    9900012    2    1    2    0    0 -0.34042144147E+01 -0.55143035783E+01  0.44577093794E+02  0.46142317511E+02  0.99999977214E+01 0.  0.
         12    1    1    2    0    0  0.34042144147E+01  0.55143035783E+01 -0.44577093794E+02  0.45045682489E+02  0.00000000000E+00 0. -1.
         11    1    3    3    0    0 -0.19779344258E+01 -0.48865720885E+01  0.87120136788E+01  0.10182828387E+02  0.51100000000E-03 0. -1.
        -11    1    3    3    0    0 -0.72827842514E+00  0.14735299541E+00  0.35187485419E+01  0.35963445235E+01  0.51100000000E-03 0.  1.
         12    1    3    3    0    0 -0.69800156373E+00 -0.77508448518E+00  0.32346331574E+02  0.32363144600E+02  0.00000000000E+00 0. -1.
</event>
<event>
 7    1  0.2250716E-008  0.4614232E+02  0.7816164E-02  0.1320468E+00
        -11   -1    0    0    0    0  0.00000000000E+00  0.00000000000E+00  0.45593999997E+02  0.45594000000E+02  0.51100000000E-03 0.  1.
         11   -1    0    0    0    0 -0.00000000000E+00 -0.00000000000E+00 -0.45593999997E+02  0.45594000000E+02  0.51100000000E-03 0. -1.
    9900012    2    1    2    0    0 -0.54045825110E+01  0.32049985378E+02  0.31188175983E+02  0.46142318787E+02  0.10000009353E+02 0.  0.
         12    1    1    2    0    0  0.54045825110E+01 -0.32049985378E+02 -0.31188175983E+02  0.45045681213E+02  0.00000000000E+00 0. -1.
         11    1    3    3    0    0 -0.60859077871E+01  0.13406036527E+02  0.14080820307E+02  0.20372275027E+02  0.51100000000E-03 0. -1.
        -11    1    3    3    0    0  0.11424670149E+01  0.17400037806E+02  0.13901820509E+02  0.22300833174E+02  0.51100000000E-03 0.  1.
        -12    1    3    3    0    0 -0.46114173883E+00  0.12439110445E+01  0.32055351661E+01  0.34692105861E+01  0.00000000000E+00 0.  1.
</event>
<event>
 7    1  0.2250716E-008  0.4614232E+02  0.7816164E-02  0.1320468E+00
        -11   -1    0    0    0    0  0.00000000000E+00  0.00000000000E+00  0.45593999997E+02  0.45594000000E+02  0.51100000000E-03 0. -1.
         11   -1    0    0    0    0 -0.00000000000E+00 -0.00000000000E+00 -0.45593999997E+02  0.45594000000E+02  0.51100000000E-03 0.  1.
    9900012    2    1    2    0    0 -0.39509523958E+01 -0.44387175155E+02 -0.65789171979E+01  0.46142317692E+02  0.99999993708E+01 0.  0.
         12    1    1    2    0    0  0.39509523958E+01  0.44387175155E+02  0.65789171979E+01  0.45045682308E+02  0.00000000000E+00 0. -1.
         11    1    3    3    0    0  0.46624292680E+00 -0.18906763018E+02  0.55314295212E+00  0.18920598238E+02  0.51100000000E-03 0. -1.
        -11    1    3    3    0    0 -0.14364379595E+00 -0.17932648119E+01  0.66924050982E+00  0.19194570448E+01  0.51100000000E-03 0.  1.
        -12    1    3    3    0    0 -0.42735515267E+01 -0.23687147325E+02 -0.78013006599E+01  0.25302262409E+02  0.00000000000E+00 0.  1.
</event>
<event>
 7    1  0.2250716E-008  0.4614232E+02  0.7816164E-02  0.1320468E+00
        -11   -1    0    0    0    0  0.00000000000E+00  0.00000000000E+00  0.45593999997E+02  0.45594000000E+02  0.51100000000E-03 0.  1.
         11   -1    0    0    0    0 -0.00000000000E+00 -0.00000000000E+00 -0.45593999997E+02  0.45594000000E+02  0.51100000000E-03 0. -1.
    9900012    2    1    2    0    0  0.25191948617E+02  0.27105339430E+02  0.25686171445E+02  0.46142322025E+02  0.10000038880E+02 0.  0.
         12    1    1    2    0    0 -0.25191948617E+02 -0.27105339430E+02 -0.25686171445E+02  0.45045677975E+02  0.00000000000E+00 0. -1.
         11    1    3    3    0    0  0.12680799673E+02  0.13590929983E+02  0.80375903020E+01  0.20251392947E+02  0.51100000000E-03 0. -1.
        -11    1    3    3    0    0  0.36111201487E+01  0.68899195427E+01  0.61897770725E+01  0.99410522834E+01  0.51100000000E-03 0.  1.
        -12    1    3    3    0    0  0.89000287948E+01  0.66244899046E+01  0.11458804070E+02  0.15949876795E+02  0.00000000000E+00 0.  1.
</event>
<event>
 7    1  0.2250716E-008  0.4614232E+02  0.7816164E-02  0.1320468E+00
        -11   -1    0    0    0    0  0.00000000000E+00  0.00000000000E+00  0.45593999997E+02  0.45594000000E+02  0.51100000000E-03 0.  1.
         11   -1    0    0    0    0 -0.00000000000E+00 -0.00000000000E+00 -0.45593999997E+02  0.45594000000E+02  0.51100000000E-03 0. -1.
    9900012    2    1    2    0    0 -0.19711487603E+02  0.38974342249E+02  0.11025935367E+02  0.46142319320E+02  0.10000014213E+02 0.  0.
         12    1    1    2    0    0  0.19711487603E+02 -0.38974342249E+02 -0.11025935367E+02  0.45045680680E+02  0.00000000000E+00 0. -1.
         11    1    3    3    0    0 -0.64806784130E+01  0.48837111553E+01  0.21001070948E+01  0.83821403837E+01  0.51100000000E-03 0. -1.
        -11    1    3    3    0    0 -0.22160881716E+01  0.61227428964E+01  0.43852054126E+00  0.65262031753E+01  0.51100000000E-03 0.  1.
        -12    1    3    3    0    0 -0.11014721018E+02  0.27967888197E+02  0.84873077307E+01  0.31233975761E+02  0.00000000000E+00 0.  1.
</event>
<event>
 7    1  0.2250716E-008  0.4614232E+02  0.7816164E-02  0.1320468E+00
        -11   -1    0    0    0    0  0.00000000000E+00  0.00000000000E+00  0.45593999997E+02  0.45594000000E+02  0.51100000000E-03 0.  1.
         11   -1    0    0    0    0 -0.00000000000E+00 -0.00000000000E+00 -0.45593999997E+02  0.45594000000E+02  0.51100000000E-03 0. -1.
    9900012    2    1    2    0    0  0.41986569344E+02  0.42470835366E+01  0.15754485242E+02  0.46142317309E+02  0.99999958781E+01 0.  0.
         12    1    1    2    0    0 -0.41986569344E+02 -0.42470835366E+01 -0.15754485242E+02  0.45045682691E+02  0.00000000000E+00 0. -1.
         11    1    3    3    0    0  0.10605986527E+02 -0.27696406308E+01  0.19170380207E+01  0.11128022936E+02  0.51100000000E-03 0. -1.
        -11    1    3    3    0    0  0.29864848986E+01  0.72797958402E+00  0.10967201240E+01  0.32637159215E+01  0.51100000000E-03 0.  1.
         12    1    3    3    0    0  0.28394097919E+02  0.62887445834E+01  0.12740727097E+02  0.31750578452E+02  0.00000000000E+00 0. -1.
</event>
<event>
 7    1  0.2250716E-008  0.4614232E+02  0.7816164E-02  0.1320468E+00
        -11   -1    0    0    0    0  0.00000000000E+00  0.00000000000E+00  0.45593999997E+02  0.45594000000E+02  0.51100000000E-03 0. -1.
         11   -1    0    0    0    0 -0.00000000000E+00 -0.00000000000E+00 -0.45593999997E+02  0.45594000000E+02  0.51100000000E-03 0.  1.
    9900012    2    1    2    0    0 -0.12428958321E+02 -0.26387772589E+02 -0.34326657738E+02  0.46142323420E+02  0.10000051598E+02 0.  0.
         12    1    1    2    0    0  0.12428958321E+02  0.26387772589E+02  0.34326657738E+02  0.45045676580E+02  0.00000000000E+00 0. -1.
         11    1    3    3    0    0 -0.58985554488E+01 -0.12246387122E+02 -0.12414880866E+02  0.18409134175E+02  0.51100000000E-03 0. -1.
        -11    1    3    3    0    0 -0.52295481892E+01 -0.14321061997E+02 -0.17904410078E+02  0.23516141084E+02  0.51100000000E-03 0.  1.
         12    1    3    3    0    0 -0.13008546828E+01  0.17967652998E+00 -0.40073667939E+01  0.42170481598E+01  0.00000000000E+00 0. -1.
</event>
<event>
 7    1  0.2250716E-008  0.4614232E+02  0.7816164E-02  0.1320468E+00
        -11   -1    0    0    0    0  0.00000000000E+00  0.00000000000E+00  0.45593999997E+02  0.45594000000E+02  0.51100000000E-03 0. -1.
         11   -1    0    0    0    0 -0.00000000000E+00 -0.00000000000E+00 -0.45593999997E+02  0.45594000000E+02  0.51100000000E-03 0.  1.
    9900012    2    1    2    0    0 -0.19400662619E+02 -0.14305363753E+02 -0.38053703612E+02  0.46142317624E+02  0.99999987461E+01 0.  0.
         12    1    1    2    0    0  0.19400662619E+02  0.14305363753E+02  0.38053703612E+02  0.45045682376E+02  0.00000000000E+00 0. -1.
         11    1    3    3    0    0 -0.43905457148E+01 -0.10904552448E+01 -0.75543158223E+01  0.88053206710E+01  0.51100000000E-03 0. -1.
        -11    1    3    3    0    0 -0.13274529484E+02 -0.10371665515E+02 -0.29298084066E+02  0.33795891892E+02  0.51100000000E-03 0.  1.
         12    1    3    3    0    0 -0.17355874196E+01 -0.28432429935E+01 -0.12013037234E+01  0.35411050601E+01  0.00000000000E+00 0. -1.
</event>
<event>
 7    1  0.2250716E-008  0.4614232E+02  0.7816164E-02  0.1320468E+00
        -11   -1    0    0    0    0  0.00000000000E+00  0.00000000000E+00  0.45593999997E+02  0.45594000000E+02  0.51100000000E-03 0.  1.
         11   -1    0    0    0    0 -0.00000000000E+00 -0.00000000000E+00 -0.45593999997E+02  0.45594000000E+02  0.51100000000E-03 0. -1.
    9900012    2    1    2    0    0 -0.19920653726E+02 -0.27021073622E+02  0.30035689855E+02  0.46142317303E+02  0.99999958271E+01 0.  0.
         12    1    1    2    0    0  0.19920653726E+02  0.27021073622E+02 -0.30035689855E+02  0.45045682697E+02  0.00000000000E+00 0. -1.
         11    1    3    3    0    0 -0.92535272567E+00 -0.42349439444E+01  0.52136097950E+01  0.67803211749E+01  0.51100000000E-03 0. -1.
        -11    1    3    3    0    0 -0.83705143423E+01 -0.12589042659E+02  0.83642106894E+01  0.17277428227E+02  0.51100000000E-03 0.  1.
        -12    1    3    3    0    0 -0.10624786658E+02 -0.10197087019E+02  0.16457869370E+02  0.22084567902E+02  0.00000000000E+00 0.  1.
</event>
<event>
 7    1  0.2250716E-008  0.4614232E+02  0.7816164E-02  0.1320468E+00
        -11   -1    0    0    0    0  0.00000000000E+00  0.00000000000E+00  0.45593999997E+02  0.45594000000E+02  0.51100000000E-03 0. -1.
         11   -1    0    0    0    0 -0.00000000000E+00 -0.00000000000E+00 -0.45593999997E+02  0.45594000000E+02  0.51100000000E-03 0.  1.
    9900012    2    1    2    0    0 -0.10783926303E+02 -0.19600360354E+02 -0.39097905813E+02  0.46142318393E+02  0.10000005760E+02 0.  0.
         12    1    1    2    0    0  0.10783926303E+02  0.19600360354E+02  0.39097905813E+02  0.45045681607E+02  0.00000000000E+00 0. -1.
         11    1    3    3    0    0 -0.76636905318E+01 -0.97934775553E+01 -0.14095901436E+02  0.18797308125E+02  0.51100000000E-03 0. -1.
        -11    1    3    3    0    0  0.14301057936E+00 -0.55953954215E+01 -0.10561236819E+02  0.11952766431E+02  0.51100000000E-03 0.  1.
         12    1    3    3    0    0 -0.32632463505E+01 -0.42114873777E+01 -0.14440767557E+02  0.15392243837E+02  0.00000000000E+00 0. -1.
</event>
<event>
 7    1  0.2250716E-008  0.4614232E+02  0.7816164E-02  0.1320468E+00
        -11   -1    0    0    0    0  0.00000000000E+00  0.00000000000E+00  0.45593999997E+02  0.45594000000E+02  0.51100000000E-03 0.  1.
         11   -1    0    0    0    0 -0.00000000000E+00 -0.00000000000E+00 -0.45593999997E+02  0.45594000000E+02  0.51100000000E-03 0. -1.
    9900012    2    1    2    0    0 -0.23066842114E+02 -0.55762070813E+01  0.38287597722E+02  0.46142318411E+02  0.10000005926E+02 0.  0.
         12    1    1    2    0    0  0.23066842114E+02  0.55762070813E+01 -0.38287597722E+02  0.45045681589E+02  0.00000000000E+00 0. -1.
         11    1    3    3    0    0 -0.40978455378E+01 -0.22773618023E+01  0.12377481254E+02  0.13235586776E+02  0.51100000000E-03 0. -1.
        -11    1    3    3    0    0 -0.13405524802E+02 -0.54926158457E+00  0.21310051539E+02  0.25181899856E+02  0.51100000000E-03 0.  1.
         12    1    3    3    0    0 -0.55634717743E+01 -0.27495836944E+01  0.46000649286E+01  0.77248317796E+01  0.00000000000E+00 0. -1.
</event>
<event>
 7    1  0.2250716E-008  0.4614232E+02  0.7816164E-02  0.1320468E+00
        -11   -1    0    0    0    0  0.00000000000E+00  0.00000000000E+00  0.45593999997E+02  0.45594000000E+02  0.51100000000E-03 0.  1.
         11   -1    0    0    0    0 -0.00000000000E+00 -0.00000000000E+00 -0.45593999997E+02  0.45594000000E+02  0.51100000000E-03 0. -1.
    9900012    2    1    2    0    0  0.26961623890E+02  0.24442007608E+00  0.36084963728E+02  0.46142317508E+02  0.99999976891E+01 0.  0.
         12    1    1    2    0    0 -0.26961623890E+02 -0.24442007608E+00 -0.36084963728E+02  0.45045682492E+02  0.00000000000E+00 0. -1.
         11    1    3    3    0    0  0.21346247285E+02 -0.34018040186E+01  0.24666567729E+02  0.32797471053E+02  0.51100000000E-03 0. -1.
        -11    1    3    3    0    0  0.40490360223E+01  0.21481463985E+01  0.89819162219E+01  0.10083850700E+02  0.51100000000E-03 0.  1.
         12    1    3    3    0    0  0.15663405829E+01  0.14980776961E+01  0.24364797772E+01  0.32609957543E+01  0.00000000000E+00 0. -1.
</event>
<event>
 7    1  0.2250716E-008  0.4614232E+02  0.7816164E-02  0.1320468E+00
        -11   -1    0    0    0    0  0.00000000000E+00  0.00000000000E+00  0.45593999997E+02  0.45594000000E+02  0.51100000000E-03 0.  1.
         11   -1    0    0    0    0 -0.00000000000E+00 -0.00000000000E+00 -0.45593999997E+02  0.45594000000E+02  0.51100000000E-03 0. -1.
    9900012    2    1    2    0    0 -0.10162977058E+02  0.89934340089E+01  0.42952829640E+02  0.46142317276E+02  0.99999955779E+01 0.  0.
         12    1    1    2    0    0  0.10162977058E+02 -0.89934340089E+01 -0.42952829640E+02  0.45045682724E+02  0.00000000000E+00 0. -1.
         11    1    3    3    0    0 -0.23753532638E+01  0.36680009328E+01  0.48807203031E+01  0.65511804211E+01  0.51100000000E-03 0. -1.
        -11    1    3    3    0    0 -0.62389182589E+01  0.60146359729E+01  0.26135984796E+02  0.27535243751E+02  0.51100000000E-03 0.  1.
        -12    1    3    3    0    0 -0.15487055354E+01 -0.68920289692E+00  0.11936124541E+02  0.12055893104E+02  0.00000000000E+00 0.  1.
</event>
<event>
 7    1  0.2250716E-008  0.4614232E+02  0.7816164E-02  0.1320468E+00
        -11   -1    0    0    0    0  0.00000000000E+00  0.00000000000E+00  0.45593999997E+02  0.45594000000E+02  0.51100000000E-03 0.  1.
         11   -1    0    0    0    0 -0.00000000000E+00 -0.00000000000E+00 -0.45593999997E+02  0.45594000000E+02  0.51100000000E-03 0. -1.
    9900012    2    1    2    0    0  0.28853593574E+02  0.56450449043E+01  0.34127949562E+02  0.46142319459E+02  0.10000015481E+02 0.  0.
         12    1    1    2    0    0 -0.28853593574E+02 -0.56450449043E+01 -0.34127949562E+02  0.45045680541E+02  0.00000000000E+00 0. -1.
         11    1    3    3    0    0  0.10092652647E+02  0.16153191158E+01  0.17872248060E+02  0.20588544005E+02  0.51100000000E-03 0. -1.
        -11    1    3    3    0    0  0.68490067719E+01  0.21802507109E+01  0.88694095458E+01  0.11416164543E+02  0.51100000000E-03 0.  1.
         12    1    3    3    0    0  0.11911934155E+02  0.18494750777E+01  0.73862919567E+01  0.14137610910E+02  0.00000000000E+00 0. -1.
</event>
<event>
 7    1  0.2250716E-008  0.4614232E+02  0.7816164E-02  0.1320468E+00
        -11   -1    0    0    0    0  0.00000000000E+00  0.00000000000E+00  0.45593999997E+02  0.45594000000E+02  0.51100000000E-03 0. -1.
         11   -1    0    0    0    0 -0.00000000000E+00 -0.00000000000E+00 -0.45593999997E+02  0.45594000000E+02  0.51100000000E-03 0.  1.
    9900012    2    1    2    0    0  0.26385590510E+01 -0.36489913064E+02 -0.26279988109E+02  0.46142317363E+02  0.99999963655E+01 0.  0.
         12    1    1    2    0    0 -0.26385590510E+01  0.36489913064E+02  0.26279988109E+02  0.45045682637E+02  0.00000000000E+00 0. -1.
         11    1    3    3    0    0  0.32962357499E+00 -0.22845851895E+02 -0.17335490374E+02  0.28680321255E+02  0.51100000000E-03 0. -1.
        -11    1    3    3    0    0  0.36200403455E+01 -0.11923464964E+02 -0.88737818996E+01  0.15297637540E+02  0.51100000000E-03 0.  1.
         12    1    3    3    0    0 -0.13111048695E+01 -0.17205962045E+01 -0.70715835098E-01  0.21643585671E+01  0.00000000000E+00 0. -1.
</event>
<event>
 7    1  0.2250716E-008  0.4614232E+02  0.7816164E-02  0.1320468E+00
        -11   -1    0    0    0    0  0.00000000000E+00  0.00000000000E+00  0.45593999997E+02  0.45594000000E+02  0.51100000000E-03 0.  1.
         11   -1    0    0    0    0 -0.00000000000E+00 -0.00000000000E+00 -0.45593999997E+02  0.45594000000E+02  0.51100000000E-03 0. -1.
    9900012    2    1    2    0    0 -0.16817815823E+02 -0.25213601698E+02  0.33324898907E+02  0.46142317334E+02  0.99999961085E+01 0.  0.
         12    1    1    2    0    0  0.16817815823E+02  0.25213601698E+02 -0.33324898907E+02  0.45045682666E+02  0.00000000000E+00 0. -1.
         11    1    3    3    0    0  0.71320438213E-02 -0.36339591196E+01  0.38050972392E+01  0.52616038439E+01  0.51100000000E-03 0. -1.
        -11    1    3    3    0    0 -0.65169288974E+01 -0.14020231207E+02  0.15110203713E+02  0.21618406552E+02  0.51100000000E-03 0.  1.
        -12    1    3    3    0    0 -0.10308018970E+02 -0.75594113716E+01  0.14409597955E+02  0.19262306939E+02  0.00000000000E+00 0.  1.
</event>
<event>
 7    1  0.2250716E-008  0.4614232E+02  0.7816164E-02  0.1320468E+00
        -11   -1    0    0    0    0  0.00000000000E+00  0.00000000000E+00  0.45593999997E+02  0.45594000000E+02  0.51100000000E-03 0.  1.
         11   -1    0    0    0    0 -0.00000000000E+00 -0.00000000000E+00 -0.45593999997E+02  0.45594000000E+02  0.51100000000E-03 0. -1.
    9900012    2    1    2    0    0 -0.90054419868E+01 -0.20133116878E+02  0.39276877139E+02  0.46142318094E+02  0.10000003033E+02 0.  0.
         12    1    1    2    0    0  0.90054419868E+01  0.20133116878E+02 -0.39276877139E+02  0.45045681906E+02  0.00000000000E+00 0. -1.
         11    1    3    3    0    0 -0.80896131887E+00 -0.24414396700E+01  0.81375344918E+01  0.85343139117E+01  0.51100000000E-03 0. -1.
        -11    1    3    3    0    0 -0.94820259675E+01 -0.12267361667E+02  0.23374196405E+02  0.28049064807E+02  0.51100000000E-03 0.  1.
        -12    1    3    3    0    0  0.12855452996E+01 -0.54243155416E+01  0.77651462418E+01  0.95589393747E+01  0.00000000000E+00 0.  1.
</event>
<event>
 7    1  0.2250716E-008  0.4614232E+02  0.7816164E-02  0.1320468E+00
        -11   -1    0    0    0    0  0.00000000000E+00  0.00000000000E+00  0.45593999997E+02  0.45594000000E+02  0.51100000000E-03 0.  1.
         11   -1    0    0    0    0 -0.00000000000E+00 -0.00000000000E+00 -0.45593999997E+02  0.45594000000E+02  0.51100000000E-03 0. -1.
    9900012    2    1    2    0    0  0.27079149549E+02  0.32104568429E+02  0.16282804190E+02  0.46142319113E+02  0.10000012324E+02 0.  0.
         12    1    1    2    0    0 -0.27079149549E+02 -0.32104568429E+02 -0.16282804190E+02  0.45045680887E+02  0.00000000000E+00 0. -1.
         11    1    3    3    0    0  0.30959566361E+01  0.97219092810E+01  0.24953237267E+01  0.10503671183E+02  0.51100000000E-03 0. -1.
        -11    1    3    3    0    0  0.17334091817E+02  0.17138298426E+02  0.10761334040E+02  0.26645793714E+02  0.51100000000E-03 0.  1.
         12    1    3    3    0    0  0.66491010963E+01  0.52443607217E+01  0.30261464225E+01  0.89928542154E+01  0.00000000000E+00 0. -1.
</event>
<event>
 7    1  0.2250716E-008  0.4614232E+02  0.7816164E-02  0.1320468E+00
        -11   -1    0    0    0    0  0.00000000000E+00  0.00000000000E+00  0.45593999997E+02  0.45594000000E+02  0.51100000000E-03 0.  1.
         11   -1    0    0    0    0 -0.00000000000E+00 -0.00000000000E+00 -0.45593999997E+02  0.45594000000E+02  0.51100000000E-03 0. -1.
    9900012    2    1    2    0    0  0.18685345270E+02 -0.31671972056E+02  0.26016476167E+02  0.46142323471E+02  0.10000052071E+02 0.  0.
         12    1    1    2    0    0 -0.18685345270E+02  0.31671972056E+02 -0.26016476167E+02  0.45045676529E+02  0.00000000000E+00 0. -1.
         11    1    3    3    0    0  0.51974579575E+01 -0.12532808198E+02  0.11640887730E+02  0.17877223441E+02  0.51100000000E-03 0. -1.
        -11    1    3    3    0    0  0.11877874086E+02 -0.13878665881E+02  0.13453599468E+02  0.22687013870E+02  0.51100000000E-03 0.  1.
         12    1    3    3    0    0  0.16100132262E+01 -0.52604979769E+01  0.92198896886E+00  0.55780861603E+01  0.00000000000E+00 0. -1.
</event>
<event>
 7    1  0.2250716E-008  0.4614232E+02  0.7816164E-02  0.1320468E+00
        -11   -1    0    0    0    0  0.00000000000E+00  0.00000000000E+00  0.45593999997E+02  0.45594000000E+02  0.51100000000E-03 0. -1.
         11   -1    0    0    0    0 -0.00000000000E+00 -0.00000000000E+00 -0.45593999997E+02  0.45594000000E+02  0.51100000000E-03 0.  1.
    9900012    2    1    2    0    0 -0.48286064046E+01 -0.42522236330E+02 -0.14059069782E+02  0.46142318015E+02  0.10000002317E+02 0.  0.
         12    1    1    2    0    0  0.48286064046E+01  0.42522236330E+02  0.14059069782E+02  0.45045681985E+02  0.00000000000E+00 0. -1.
         11    1    3    3    0    0 -0.48550277834E+01 -0.12292718869E+02 -0.23956069196E+01  0.13432094578E+02  0.51100000000E-03 0. -1.
        -11    1    3    3    0    0 -0.85566604797E+00 -0.11761997179E+01 -0.92287375170E+00  0.17225871197E+01  0.51100000000E-03 0.  1.
         12    1    3    3    0    0  0.88208742675E+00 -0.29053317743E+02 -0.10740589110E+02  0.30987636318E+02  0.00000000000E+00 0. -1.
</event>
<event>
 7    1  0.2250716E-008  0.4614231E+02  0.7816164E-02  0.1320468E+00
        -11   -1    0    0    0    0  0.00000000000E+00  0.00000000000E+00  0.45593999997E+02  0.45594000000E+02  0.51100000000E-03 0.  1.
         11   -1    0    0    0    0 -0.00000000000E+00 -0.00000000000E+00 -0.45593999997E+02  0.45594000000E+02  0.51100000000E-03 0. -1.
    9900012    2    1    2    0    0 -0.23295725536E+02 -0.29211817302E+02  0.25161332418E+02  0.46142314886E+02  0.99999737810E+01 0.  0.
         12    1    1    2    0    0  0.23295725536E+02  0.29211817302E+02 -0.25161332418E+02  0.45045685114E+02  0.00000000000E+00 0. -1.
         11    1    3    3    0    0  0.26746265208E+00 -0.19608420582E+01  0.12524640706E+01  0.23420299649E+01  0.51100000000E-03 0. -1.
        -11    1    3    3    0    0 -0.17298849146E+02 -0.21477601968E+02  0.14683937727E+02  0.31243488850E+02  0.51100000000E-03 0.  1.
         12    1    3    3    0    0 -0.62643390422E+01 -0.57733732756E+01  0.92249306202E+01  0.12556796071E+02  0.00000000000E+00 0. -1.
</event>
<event>
 7    1  0.2250716E-008  0.4614232E+02  0.7816164E-02  0.1320468E+00
        -11   -1    0    0    0    0  0.00000000000E+00  0.00000000000E+00  0.45593999997E+02  0.45594000000E+02  0.51100000000E-03 0.  1.
         11   -1    0    0    0    0 -0.00000000000E+00 -0.00000000000E+00 -0.45593999997E+02  0.45594000000E+02  0.51100000000E-03 0. -1.
    9900012    2    1    2    0    0 -0.24447808045E+02 -0.28011043546E+02  0.25432255398E+02  0.46142317706E+02  0.99999994943E+01 0.  0.
         12    1    1    2    0    0  0.24447808045E+02  0.28011043546E+02 -0.25432255398E+02  0.45045682294E+02  0.00000000000E+00 0. -1.
         11    1    3    3    0    0 -0.26149037026E-01 -0.15492574211E+01  0.10266944002E+01  0.18587587206E+01  0.51100000000E-03 0. -1.
        -11    1    3    3    0    0 -0.19986510253E+02 -0.25272132491E+02  0.22567456093E+02  0.39337403924E+02  0.51100000000E-03 0.  1.
         12    1    3    3    0    0 -0.44351487546E+01 -0.11896536341E+01  0.18381049054E+01  0.49461550611E+01  0.00000000000E+00 0. -1.
</event>
<event>
 7    1  0.3016821E-008  0.4614232E+02  0.7816164E-02  0.1320468E+00
        -11   -1    0    0    0    0  0.00000000000E+00  0.00000000000E+00  0.45593999997E+02  0.45594000000E+02  0.51100000000E-03 0. -1.
         11   -1    0    0    0    0 -0.00000000000E+00 -0.00000000000E+00 -0.45593999997E+02  0.45594000000E+02  0.51100000000E-03 0.  1.
    9900012    2    1    2    0    0 -0.32937642393E+02 -0.29543787225E+02  0.84492467204E+01  0.46142318519E+02  0.10000006908E+02 0.  0.
         12    1    1    2    0    0  0.32937642393E+02  0.29543787225E+02 -0.84492467204E+01  0.45045681481E+02  0.00000000000E+00 0. -1.
         11    1    3    3    0    0 -0.49559184332E+01 -0.49848280305E+01 -0.14528933562E+01  0.71777808114E+01  0.51100000000E-03 0. -1.
        -11    1    3    3    0    0 -0.16704015296E+01 -0.31138362765E+01 -0.22933245287E+00  0.35410183933E+01  0.51100000000E-03 0.  1.
        -12    1    3    3    0    0 -0.26311322430E+02 -0.21445122918E+02  0.10131472530E+02  0.35423519314E+02  0.00000000000E+00 0.  1.
</event>
<event>
 7    1  0.2250716E-008  0.4614232E+02  0.7816164E-02  0.1320468E+00
        -11   -1    0    0    0    0  0.00000000000E+00  0.00000000000E+00  0.45593999997E+02  0.45594000000E+02  0.51100000000E-03 0.  1.
         11   -1    0    0    0    0 -0.00000000000E+00 -0.00000000000E+00 -0.45593999997E+02  0.45594000000E+02  0.51100000000E-03 0. -1.
    9900012    2    1    2    0    0 -0.14782347751E+01  0.74768742645E+01  0.44396223296E+02  0.46142317968E+02  0.10000001885E+02 0.  0.
         12    1    1    2    0    0  0.14782347751E+01 -0.74768742645E+01 -0.44396223296E+02  0.45045682032E+02  0.00000000000E+00 0. -1.
         11    1    3    3    0    0  0.66209251871E+00  0.30752059648E+01  0.88614287305E+01  0.94032003933E+01  0.51100000000E-03 0. -1.
        -11    1    3    3    0    0 -0.47145777989E+01  0.26413938396E+01  0.28989001261E+02  0.29488411277E+02  0.51100000000E-03 0.  1.
         12    1    3    3    0    0  0.25742505051E+01  0.17602744600E+01  0.65457933042E+01  0.72507062979E+01  0.00000000000E+00 0. -1.
</event>
<event>
 7    1  0.2250716E-008  0.4614232E+02  0.7816164E-02  0.1320468E+00
        -11   -1    0    0    0    0  0.00000000000E+00  0.00000000000E+00  0.45593999997E+02  0.45594000000E+02  0.51100000000E-03 0.  1.
         11   -1    0    0    0    0 -0.00000000000E+00 -0.00000000000E+00 -0.45593999997E+02  0.45594000000E+02  0.51100000000E-03 0. -1.
    9900012    2    1    2    0    0  0.59669268889E+01 -0.88035163866E+01  0.43772220408E+02  0.46142318779E+02  0.10000009280E+02 0.  0.
         12    1    1    2    0    0 -0.59669268889E+01  0.88035163866E+01 -0.43772220408E+02  0.45045681221E+02  0.00000000000E+00 0. -1.
         11    1    3    3    0    0  0.21774053166E+01 -0.38868277338E+00  0.18861286482E+02  0.18990531752E+02  0.51100000000E-03 0. -1.
        -11    1    3    3    0    0 -0.12769692098E+01 -0.78650185243E+00  0.21850322085E+01  0.26502078296E+01  0.51100000000E-03 0.  1.
        -12    1    3    3    0    0  0.50664907821E+01 -0.76283317608E+01  0.22725901717E+02  0.24501579197E+02  0.00000000000E+00 0.  1.
</event>
<event>
 7    1  0.2250716E-008  0.4614232E+02  0.7816164E-02  0.1320468E+00
        -11   -1    0    0    0    0  0.00000000000E+00  0.00000000000E+00  0.45593999997E+02  0.45594000000E+02  0.51100000000E-03 0.  1.
         11   -1    0    0    0    0 -0.00000000000E+00 -0.00000000000E+00 -0.45593999997E+02  0.45594000000E+02  0.51100000000E-03 0. -1.
    9900012    2    1    2    0    0  0.26186006031E+02  0.15983059426E+01  0.36617645443E+02  0.46142318170E+02  0.10000003729E+02 0.  0.
         12    1    1    2    0    0 -0.26186006031E+02 -0.15983059426E+01 -0.36617645443E+02  0.45045681830E+02  0.00000000000E+00 0. -1.
         11    1    3    3    0    0  0.17166769711E+01 -0.19503664078E+01  0.47286272126E+01  0.53954447940E+01  0.51100000000E-03 0. -1.
        -11    1    3    3    0    0  0.16996335463E+02  0.29664107990E+01  0.26049626170E+02  0.31245128197E+02  0.51100000000E-03 0.  1.
         12    1    3    3    0    0  0.74729935970E+01  0.58226155143E+00  0.58393920606E+01  0.95017451793E+01  0.00000000000E+00 0. -1.
</event>
<event>
 7    1  0.2250716E-008  0.4614232E+02  0.7816164E-02  0.1320468E+00
        -11   -1    0    0    0    0  0.00000000000E+00  0.00000000000E+00  0.45593999997E+02  0.45594000000E+02  0.51100000000E-03 0. -1.
         11   -1    0    0    0    0 -0.00000000000E+00 -0.00000000000E+00 -0.45593999997E+02  0.45594000000E+02  0.51100000000E-03 0.  1.
    9900012    2    1    2    0    0 -0.87803357682E+01  0.43921642607E+02 -0.47862865899E+01  0.46142317356E+02  0.99999963060E+01 0.  0.
         12    1    1    2    0    0  0.87803357682E+01 -0.43921642607E+02  0.47862865899E+01  0.45045682644E+02  0.00000000000E+00 0. -1.
         11    1    3    3    0    0 -0.14963739311E+01  0.21875209392E+01  0.35047281599E+00  0.26734274362E+01  0.51100000000E-03 0. -1.
        -11    1    3    3    0    0 -0.27861308954E+01  0.68453100863E+01 -0.36925737127E+01  0.82617126813E+01  0.51100000000E-03 0.  1.
         12    1    3    3    0    0 -0.44978309417E+01  0.34888811582E+02 -0.14441856932E+01  0.35207177239E+02  0.00000000000E+00 0. -1.
</event>
<event>
 7    1  0.2250716E-008  0.4614232E+02  0.7816164E-02  0.1320468E+00
        -11   -1    0    0    0    0  0.00000000000E+00  0.00000000000E+00  0.45593999997E+02  0.45594000000E+02  0.51100000000E-03 0. -1.
         11   -1    0    0    0    0 -0.00000000000E+00 -0.00000000000E+00 -0.45593999997E+02  0.45594000000E+02  0.51100000000E-03 0.  1.
    9900012    2    1    2    0    0 -0.31832775905E+02 -0.14750582346E+02 -0.28252578486E+02  0.46142317716E+02  0.99999995845E+01 0.  0.
         12    1    1    2    0    0  0.31832775905E+02  0.14750582346E+02  0.28252578486E+02  0.45045682284E+02  0.00000000000E+00 0. -1.
         11    1    3    3    0    0 -0.10936580156E+02 -0.62858813533E+01 -0.12605619167E+02  0.17833191659E+02  0.51100000000E-03 0. -1.
        -11    1    3    3    0    0 -0.80847064302E+01 -0.48138908541E+01 -0.10310234897E+02  0.13958401309E+02  0.51100000000E-03 0.  1.
         12    1    3    3    0    0 -0.12811489318E+02 -0.36508101389E+01 -0.53367244228E+01  0.14350724748E+02  0.00000000000E+00 0. -1.
</event>
<event>
 7    1  0.2250716E-008  0.4614232E+02  0.7816164E-02  0.1320468E+00
        -11   -1    0    0    0    0  0.00000000000E+00  0.00000000000E+00  0.45593999997E+02  0.45594000000E+02  0.51100000000E-03 0.  1.
         11   -1    0    0    0    0 -0.00000000000E+00 -0.00000000000E+00 -0.45593999997E+02  0.45594000000E+02  0.51100000000E-03 0. -1.
    9900012    2    1    2    0    0 -0.29890630423E+02 -0.13408197077E+02  0.30917372426E+02  0.46142318146E+02  0.10000003511E+02 0.  0.
         12    1    1    2    0    0  0.29890630423E+02  0.13408197077E+02 -0.30917372426E+02  0.45045681854E+02  0.00000000000E+00 0. -1.
         11    1    3    3    0    0 -0.15694360422E+02 -0.58862270302E+01  0.13071853496E+02  0.21256386612E+02  0.51100000000E-03 0. -1.
        -11    1    3    3    0    0 -0.11905819497E+02 -0.80088775545E+01  0.12423344510E+02  0.18979729889E+02  0.51100000000E-03 0.  1.
         12    1    3    3    0    0 -0.22904505042E+01  0.48690750779E+00  0.54221744207E+01  0.59062016459E+01  0.00000000000E+00 0. -1.
</event>
<event>
 7    1  0.2250716E-008  0.4614232E+02  0.7816164E-02  0.1320468E+00
        -11   -1    0    0    0    0  0.00000000000E+00  0.00000000000E+00  0.45593999997E+02  0.45594000000E+02  0.51100000000E-03 0.  1.
         11   -1    0    0    0    0 -0.00000000000E+00 -0.00000000000E+00 -0.45593999997E+02  0.45594000000E+02  0.51100000000E-03 0. -1.
    9900012    2    1    2    0    0 -0.28275841061E+02  0.59917428086E+01  0.34549806357E+02  0.46142319975E+02  0.10000020190E+02 0.  0.
         12    1    1    2    0    0  0.28275841061E+02 -0.59917428086E+01 -0.34549806357E+02  0.45045680025E+02  0.00000000000E+00 0. -1.
         11    1    3    3    0    0 -0.64786231237E+00  0.48170558543E+00 -0.17945318547E+00  0.82702451821E+00  0.51100000000E-03 0. -1.
        -11    1    3    3    0    0 -0.94573892238E+01  0.42104261579E+01  0.16942770645E+02  0.19855159953E+02  0.51100000000E-03 0.  1.
        -12    1    3    3    0    0 -0.18170589525E+02  0.12996110654E+01  0.17786488898E+02  0.25460135504E+02  0.00000000000E+00 0.  1.
</event>
<event>
 7    1  0.2250716E-008  0.4614232E+02  0.7816164E-02  0.1320468E+00
        -11   -1    0    0    0    0  0.00000000000E+00  0.00000000000E+00  0.45593999997E+02  0.45594000000E+02  0.51100000000E-03 0.  1.
         11   -1    0    0    0    0 -0.00000000000E+00 -0.00000000000E+00 -0.45593999997E+02  0.45594000000E+02  0.51100000000E-03 0. -1.
    9900012    2    1    2    0    0 -0.22564146872E+02 -0.38648652756E+02 -0.51239077621E+01  0.46142317469E+02  0.99999973353E+01 0.  0.
         12    1    1    2    0    0  0.22564146872E+02  0.38648652756E+02  0.51239077621E+01  0.45045682531E+02  0.00000000000E+00 0. -1.
         11    1    3    3    0    0 -0.77827721202E+00 -0.15375006812E+01  0.18094047133E+00  0.17327329508E+01  0.51100000000E-03 0. -1.
        -11    1    3    3    0    0 -0.62322988813E+01 -0.13645925882E+02  0.24701047024E+01  0.15203758089E+02  0.51100000000E-03 0.  1.
         12    1    3    3    0    0 -0.15553570778E+02 -0.23465226193E+02 -0.77749529359E+01  0.29205826429E+02  0.00000000000E+00 0. -1.
</event>
<event>
 7    1  0.2250716E-008  0.4614232E+02  0.7816164E-02  0.1320468E+00
        -11   -1    0    0    0    0  0.00000000000E+00  0.00000000000E+00  0.45593999997E+02  0.45594000000E+02  0.51100000000E-03 0.  1.
         11   -1    0    0    0    0 -0.00000000000E+00 -0.00000000000E+00 -0.45593999997E+02  0.45594000000E+02  0.51100000000E-03 0. -1.
    9900012    2    1    2    0    0  0.34895557366E+02 -0.25924636113E+02  0.11803684864E+02  0.46142315880E+02  0.99999828454E+01 0.  0.
         12    1    1    2    0    0 -0.34895557366E+02  0.25924636113E+02 -0.11803684864E+02  0.45045684120E+02  0.00000000000E+00 0. -1.
         11    1    3    3    0    0  0.44786348328E+01 -0.69047188675E+00  0.25339659699E+01  0.51919076638E+01  0.51100000000E-03 0. -1.
        -11    1    3    3    0    0  0.19606520965E+01 -0.27630977480E+00 -0.58495646633E-02  0.19800349021E+01  0.51100000000E-03 0.  1.
        -12    1    3    3    0    0  0.28456270437E+02 -0.24957854452E+02  0.92755684588E+01  0.38970373314E+02  0.00000000000E+00 0.  1.
</event>
<event>
 7    1  0.2250716E-008  0.4614232E+02  0.7816164E-02  0.1320468E+00
        -11   -1    0    0    0    0  0.00000000000E+00  0.00000000000E+00  0.45593999997E+02  0.45594000000E+02  0.51100000000E-03 0.  1.
         11   -1    0    0    0    0 -0.00000000000E+00 -0.00000000000E+00 -0.45593999997E+02  0.45594000000E+02  0.51100000000E-03 0. -1.
    9900012    2    1    2    0    0 -0.16683809515E+01 -0.43275688873E+02 -0.12391304028E+02  0.46142321429E+02  0.10000033445E+02 0.  0.
         12    1    1    2    0    0  0.16683809515E+01  0.43275688873E+02  0.12391304028E+02  0.45045678571E+02  0.00000000000E+00 0. -1.
         11    1    3    3    0    0  0.12768094022E+01 -0.88540484662E+01 -0.45125675360E+01  0.10019365375E+02  0.51100000000E-03 0. -1.
        -11    1    3    3    0    0  0.17737834673E+01 -0.74894921243E+01 -0.10686577467E+00  0.76974164902E+01  0.51100000000E-03 0.  1.
         12    1    3    3    0    0 -0.47189738210E+01 -0.26932148282E+02 -0.77718707170E+01  0.28425539563E+02  0.00000000000E+00 0. -1.
</event>
<event>
 7    1  0.2250716E-008  0.4614232E+02  0.7816164E-02  0.1320468E+00
        -11   -1    0    0    0    0  0.00000000000E+00  0.00000000000E+00  0.45593999997E+02  0.45594000000E+02  0.51100000000E-03 0.  1.
         11   -1    0    0    0    0 -0.00000000000E+00 -0.00000000000E+00 -0.45593999997E+02  0.45594000000E+02  0.51100000000E-03 0. -1.
    9900012    2    1    2    0    0 -0.28118838186E+02  0.90730878035E+01  0.34001816721E+02  0.46142317371E+02  0.99999964440E+01 0.  0.
         12    1    1    2    0    0  0.28118838186E+02 -0.90730878035E+01 -0.34001816721E+02  0.45045682629E+02  0.00000000000E+00 0. -1.
         11    1    3    3    0    0 -0.21862746592E+02  0.84737011010E+01  0.20102429043E+02  0.30885125102E+02  0.51100000000E-03 0.  1.
        -11    1    3    3    0    0 -0.11187536650E+01  0.20165489334E+00  0.26805981345E+01  0.29116801127E+01  0.51100000000E-03 0. -1.
        -12    1    3    3    0    0 -0.51373379286E+01  0.39773180912E+00  0.11218789543E+02  0.12345512156E+02  0.00000000000E+00 0.  1.
</event>
<event>
 7    1  0.2250716E-008  0.4614232E+02  0.7816164E-02  0.1320468E+00
        -11   -1    0    0    0    0  0.00000000000E+00  0.00000000000E+00  0.45593999997E+02  0.45594000000E+02  0.51100000000E-03 0. -1.
         11   -1    0    0    0    0 -0.00000000000E+00 -0.00000000000E+00 -0.45593999997E+02  0.45594000000E+02  0.51100000000E-03 0.  1.
    9900012    2    1    2    0    0  0.44559535355E+02  0.65512209910E+01  0.80168217511E+00  0.46142318943E+02  0.10000010779E+02 0.  0.
         12    1    1    2    0    0 -0.44559535355E+02 -0.65512209910E+01 -0.80168217511E+00  0.45045681057E+02  0.00000000000E+00 0. -1.
         11    1    3    3    0    0  0.75300048996E+01 -0.33538446836E+00 -0.70516475255E+00  0.75703840139E+01  0.51100000000E-03 0. -1.
        -11    1    3    3    0    0  0.74600020315E+01 -0.12165589747E+01 -0.16925666585E+01  0.77457361305E+01  0.51100000000E-03 0.  1.
        -12    1    3    3    0    0  0.29569528424E+02  0.81031644341E+01  0.31994135862E+01  0.30826198799E+02  0.00000000000E+00 0.  1.
</event>
<event>
 7    1  0.2250716E-008  0.4614232E+02  0.7816164E-02  0.1320468E+00
        -11   -1    0    0    0    0  0.00000000000E+00  0.00000000000E+00  0.45593999997E+02  0.45594000000E+02  0.51100000000E-03 0.  1.
         11   -1    0    0    0    0 -0.00000000000E+00 -0.00000000000E+00 -0.45593999997E+02  0.45594000000E+02  0.51100000000E-03 0. -1.
    9900012    2    1    2    0    0  0.39348107164E+02 -0.92969534067E+01  0.19859672897E+02  0.46142317770E+02  0.10000000078E+02 0.  0.
         12    1    1    2    0    0 -0.39348107164E+02  0.92969534067E+01 -0.19859672897E+02  0.45045682230E+02  0.00000000000E+00 0. -1.
         11    1    3    3    0    0  0.71896336278E+01 -0.29105769997E+01  0.52789639571E+01  0.93824171137E+01  0.51100000000E-03 0. -1.
        -11    1    3    3    0    0  0.22745005256E+02 -0.73046999192E+00  0.10155139204E+02  0.24919785372E+02  0.51100000000E-03 0.  1.
        -12    1    3    3    0    0  0.94134682800E+01 -0.56559064150E+01  0.44255697365E+01  0.11840115283E+02  0.00000000000E+00 0.  1.
</event>
<event>
 7    1  0.2250716E-008  0.4614232E+02  0.7816164E-02  0.1320468E+00
        -11   -1    0    0    0    0  0.00000000000E+00  0.00000000000E+00  0.45593999997E+02  0.45594000000E+02  0.51100000000E-03 0. -1.
         11   -1    0    0    0    0 -0.00000000000E+00 -0.00000000000E+00 -0.45593999997E+02  0.45594000000E+02  0.51100000000E-03 0.  1.
    9900012    2    1    2    0    0 -0.17585546133E+02  0.41382261465E+02 -0.27148744985E+01  0.46142317185E+02  0.99999947457E+01 0.  0.
         12    1    1    2    0    0  0.17585546133E+02 -0.41382261465E+02  0.27148744985E+01  0.45045682815E+02  0.00000000000E+00 0. -1.
         11    1    3    3    0    0 -0.30679740595E+01  0.20416007756E+01  0.55126027423E+00  0.37261893011E+01  0.51100000000E-03 0. -1.
        -11    1    3    3    0    0 -0.11375479122E+02  0.30022209933E+02 -0.16727261496E+00  0.32105491662E+02  0.51100000000E-03 0.  1.
        -12    1    3    3    0    0 -0.31420929519E+01  0.93184507564E+01 -0.30988621578E+01  0.10310636221E+02  0.00000000000E+00 0.  1.
</event>
<event>
 7    1  0.2250716E-008  0.4614231E+02  0.7816164E-02  0.1320468E+00
        -11   -1    0    0    0    0  0.00000000000E+00  0.00000000000E+00  0.45593999997E+02  0.45594000000E+02  0.51100000000E-03 0. -1.
         11   -1    0    0    0    0 -0.00000000000E+00 -0.00000000000E+00 -0.45593999997E+02  0.45594000000E+02  0.51100000000E-03 0.  1.
    9900012    2    1    2    0    0  0.71743230033E+01  0.41381934869E+02 -0.16284299520E+02  0.46142313692E+02  0.99999628955E+01 0.  0.
         12    1    1    2    0    0 -0.71743230033E+01 -0.41381934869E+02  0.16284299520E+02  0.45045686308E+02  0.00000000000E+00 0. -1.
         11    1    3    3    0    0  0.62101398832E+00  0.21787367307E+02 -0.56429785982E+01  0.22514844887E+02  0.51100000000E-03 0. -1.
        -11    1    3    3    0    0  0.81929886958E+00  0.86949623489E+01 -0.36493855714E+01  0.94652858486E+01  0.51100000000E-03 0.  1.
         12    1    3    3    0    0  0.57340101454E+01  0.10899605213E+02 -0.69919353508E+01  0.14162182957E+02  0.00000000000E+00 0. -1.
</event>
<event>
 7    1  0.2250716E-008  0.4614232E+02  0.7816164E-02  0.1320468E+00
        -11   -1    0    0    0    0  0.00000000000E+00  0.00000000000E+00  0.45593999997E+02  0.45594000000E+02  0.51100000000E-03 0.  1.
         11   -1    0    0    0    0 -0.00000000000E+00 -0.00000000000E+00 -0.45593999997E+02  0.45594000000E+02  0.51100000000E-03 0. -1.
    9900012    2    1    2    0    0 -0.32187081892E+02  0.21991204805E+02  0.22571932835E+02  0.46142317838E+02  0.10000000702E+02 0.  0.
         12    1    1    2    0    0  0.32187081892E+02 -0.21991204805E+02 -0.22571932835E+02  0.45045682162E+02  0.00000000000E+00 0. -1.
         11    1    3    3    0    0 -0.36323909844E+01  0.16865816864E+01  0.41474012657E+01  0.57653932709E+01  0.51100000000E-03 0. -1.
        -11    1    3    3    0    0 -0.19979780308E+01 -0.20561312286E+00  0.25789600147E+01  0.32688266987E+01  0.51100000000E-03 0.  1.
         12    1    3    3    0    0 -0.26556712877E+02  0.20510236241E+02  0.15845571555E+02  0.37108097869E+02  0.00000000000E+00 0. -1.
</event>
<event>
 7    1  0.2250716E-008  0.4614232E+02  0.7816164E-02  0.1320468E+00
        -11   -1    0    0    0    0  0.00000000000E+00  0.00000000000E+00  0.45593999997E+02  0.45594000000E+02  0.51100000000E-03 0.  1.
         11   -1    0    0    0    0 -0.00000000000E+00 -0.00000000000E+00 -0.45593999997E+02  0.45594000000E+02  0.51100000000E-03 0. -1.
    9900012    2    1    2    0    0 -0.75747893430E+01  0.40946148262E+02  0.17179902245E+02  0.46142317275E+02  0.99999955659E+01 0.  0.
         12    1    1    2    0    0  0.75747893430E+01 -0.40946148262E+02 -0.17179902245E+02  0.45045682725E+02  0.00000000000E+00 0. -1.
         11    1    3    3    0    0 -0.23205161342E+01  0.11119975830E+02  0.90215486681E+01  0.14506102103E+02  0.51100000000E-03 0. -1.
        -11    1    3    3    0    0 -0.45704607369E+01  0.28357247974E+02  0.85510151578E+01  0.29969025418E+02  0.51100000000E-03 0.  1.
        -12    1    3    3    0    0 -0.68381247194E+00  0.14689244569E+01 -0.39266158139E+00  0.16671897535E+01  0.00000000000E+00 0.  1.
</event>
<event>
 7    1  0.2250716E-008  0.4614232E+02  0.7816164E-02  0.1320468E+00
        -11   -1    0    0    0    0  0.00000000000E+00  0.00000000000E+00  0.45593999997E+02  0.45594000000E+02  0.51100000000E-03 0. -1.
         11   -1    0    0    0    0 -0.00000000000E+00 -0.00000000000E+00 -0.45593999997E+02  0.45594000000E+02  0.51100000000E-03 0.  1.
    9900012    2    1    2    0    0 -0.27894719759E+02  0.17239147039E+02 -0.30883812910E+02  0.46142317844E+02  0.10000000756E+02 0.  0.
         12    1    1    2    0    0  0.27894719759E+02 -0.17239147039E+02  0.30883812910E+02  0.45045682156E+02  0.00000000000E+00 0. -1.
         11    1    3    3    0    0 -0.19605817354E+01  0.32741122780E+01 -0.39105484337E+01  0.54640718574E+01  0.51100000000E-03 0. -1.
        -11    1    3    3    0    0 -0.12152620437E+02  0.62047857138E+01 -0.17682622725E+02  0.22335189633E+02  0.51100000000E-03 0.  1.
         12    1    3    3    0    0 -0.13781517586E+02  0.77602490470E+01 -0.92906417514E+01  0.18343056354E+02  0.00000000000E+00 0. -1.
</event>
<event>
 7    1  0.2250716E-008  0.4614232E+02  0.7816164E-02  0.1320468E+00
        -11   -1    0    0    0    0  0.00000000000E+00  0.00000000000E+00  0.45593999997E+02  0.45594000000E+02  0.51100000000E-03 0.  1.
         11   -1    0    0    0    0 -0.00000000000E+00 -0.00000000000E+00 -0.45593999997E+02  0.45594000000E+02  0.51100000000E-03 0. -1.
    9900012    2    1    2    0    0 -0.30434206906E+02  0.20329607194E+02  0.26259847000E+02  0.46142318263E+02  0.10000004576E+02 0.  0.
         12    1    1    2    0    0  0.30434206906E+02 -0.20329607194E+02 -0.26259847000E+02  0.45045681737E+02  0.00000000000E+00 0. -1.
         11    1    3    3    0    0 -0.15468155043E+02  0.11459841893E+02  0.80418515318E+01  0.20862961750E+02  0.51100000000E-03 0. -1.
        -11    1    3    3    0    0 -0.12614248652E+02  0.65259325032E+01  0.14579802959E+02  0.20353813369E+02  0.51100000000E-03 0.  1.
         12    1    3    3    0    0 -0.23518032119E+01  0.23438327983E+01  0.36381925088E+01  0.49255431441E+01  0.00000000000E+00 0. -1.
</event>
<event>
 7    1  0.2250716E-008  0.4614232E+02  0.7816164E-02  0.1320468E+00
        -11   -1    0    0    0    0  0.00000000000E+00  0.00000000000E+00  0.45593999997E+02  0.45594000000E+02  0.51100000000E-03 0.  1.
         11   -1    0    0    0    0 -0.00000000000E+00 -0.00000000000E+00 -0.45593999997E+02  0.45594000000E+02  0.51100000000E-03 0. -1.
    9900012    2    1    2    0    0  0.41711720879E+02 -0.21440827973E+01  0.16871535172E+02  0.46142318200E+02  0.10000004006E+02 0.  0.
         12    1    1    2    0    0 -0.41711720879E+02  0.21440827973E+01 -0.16871535172E+02  0.45045681800E+02  0.00000000000E+00 0. -1.
         11    1    3    3    0    0  0.12919571609E+02 -0.12357221482E+01  0.33677012724E+01  0.13408346353E+02  0.51100000000E-03 0. -1.
        -11    1    3    3    0    0  0.20954734430E+01  0.19578063469E+01  0.21395129582E+01  0.35779226657E+01  0.51100000000E-03 0.  1.
        -12    1    3    3    0    0  0.26696675827E+02 -0.28661669960E+01  0.11364320942E+02  0.29156049182E+02  0.00000000000E+00 0.  1.
</event>
<event>
 7    1  0.2250716E-008  0.4614232E+02  0.7816164E-02  0.1320468E+00
        -11   -1    0    0    0    0  0.00000000000E+00  0.00000000000E+00  0.45593999997E+02  0.45594000000E+02  0.51100000000E-03 0.  1.
         11   -1    0    0    0    0 -0.00000000000E+00 -0.00000000000E+00 -0.45593999997E+02  0.45594000000E+02  0.51100000000E-03 0. -1.
    9900012    2    1    2    0    0  0.10130901474E+02 -0.16711293040E+01  0.43859840806E+02  0.46142317928E+02  0.10000001520E+02 0.  0.
         12    1    1    2    0    0 -0.10130901474E+02  0.16711293040E+01 -0.43859840806E+02  0.45045682072E+02  0.00000000000E+00 0. -1.
         11    1    3    3    0    0  0.39966251357E+01  0.10614021696E+01  0.10017094516E+02  0.10837055404E+02  0.51100000000E-03 0. -1.
        -11    1    3    3    0    0  0.58160554736E+01 -0.29229724975E+01  0.34185849920E+02  0.34800037421E+02  0.51100000000E-03 0.  1.
        -12    1    3    3    0    0  0.31822086500E+00  0.19044102387E+00 -0.34310363019E+00  0.50522510186E+00  0.00000000000E+00 0.  1.
</event>
<event>
 7    1  0.2250716E-008  0.4614232E+02  0.7816164E-02  0.1320468E+00
        -11   -1    0    0    0    0  0.00000000000E+00  0.00000000000E+00  0.45593999997E+02  0.45594000000E+02  0.51100000000E-03 0. -1.
         11   -1    0    0    0    0 -0.00000000000E+00 -0.00000000000E+00 -0.45593999997E+02  0.45594000000E+02  0.51100000000E-03 0.  1.
    9900012    2    1    2    0    0 -0.37512235620E+02  0.22198908635E+02 -0.11364599112E+02  0.46142317867E+02  0.10000000968E+02 0.  0.
         12    1    1    2    0    0  0.37512235620E+02 -0.22198908635E+02  0.11364599112E+02  0.45045682133E+02  0.00000000000E+00 0. -1.
         11    1    3    3    0    0 -0.12146333847E+02  0.90343224905E+01  0.17392246658E+00  0.15138779940E+02  0.51100000000E-03 0. -1.
        -11    1    3    3    0    0 -0.53527563692E+01  0.26076503320E+01 -0.97940069864E+00  0.60341583499E+01  0.51100000000E-03 0.  1.
        -12    1    3    3    0    0 -0.20013145404E+02  0.10556935812E+02 -0.10559120880E+02  0.24969379578E+02  0.00000000000E+00 0.  1.
</event>
<event>
 7    1  0.2250716E-008  0.4614232E+02  0.7816164E-02  0.1320468E+00
        -11   -1    0    0    0    0  0.00000000000E+00  0.00000000000E+00  0.45593999997E+02  0.45594000000E+02  0.51100000000E-03 0.  1.
         11   -1    0    0    0    0 -0.00000000000E+00 -0.00000000000E+00 -0.45593999997E+02  0.45594000000E+02  0.51100000000E-03 0. -1.
    9900012    2    1    2    0    0 -0.44722230406E+02  0.34725275728E+01 -0.41202767239E+01  0.46142322954E+02  0.10000047354E+02 0.  0.
         12    1    1    2    0    0  0.44722230406E+02 -0.34725275728E+01  0.41202767239E+01  0.45045677046E+02  0.00000000000E+00 0. -1.
         11    1    3    3    0    0 -0.14634743145E+02 -0.29159012309E+01 -0.85368714805E+00  0.14946804639E+02  0.51100000000E-03 0. -1.
        -11    1    3    3    0    0 -0.24158261196E+02  0.35231465904E+01 -0.30830348653E+01  0.24607707129E+02  0.51100000000E-03 0.  1.
        -12    1    3    3    0    0 -0.59292260654E+01  0.28652822132E+01 -0.18355471058E+00  0.65878111864E+01  0.00000000000E+00 0.  1.
</event>
<event>
 7    1  0.2250716E-008  0.4614232E+02  0.7816164E-02  0.1320468E+00
        -11   -1    0    0    0    0  0.00000000000E+00  0.00000000000E+00  0.45593999997E+02  0.45594000000E+02  0.51100000000E-03 0. -1.
         11   -1    0    0    0    0 -0.00000000000E+00 -0.00000000000E+00 -0.45593999997E+02  0.45594000000E+02  0.51100000000E-03 0.  1.
    9900012    2    1    2    0    0 -0.36851457234E+02 -0.10163569747E+02 -0.23828237860E+02  0.46142323517E+02  0.10000052485E+02 0.  0.
         12    1    1    2    0    0  0.36851457234E+02  0.10163569747E+02  0.23828237860E+02  0.45045676483E+02  0.00000000000E+00 0. -1.
         11    1    3    3    0    0 -0.14705632025E+02 -0.29959539963E+01 -0.68634840013E+01  0.16502689675E+02  0.51100000000E-03 0. -1.
        -11    1    3    3    0    0 -0.18314238780E+02 -0.43617102152E+01 -0.16184427234E+02  0.24826831116E+02  0.51100000000E-03 0.  1.
         12    1    3    3    0    0 -0.38315864286E+01 -0.28059055358E+01 -0.78032662473E+00  0.48128027257E+01  0.00000000000E+00 0. -1.
</event>
<event>
 7    1  0.2250716E-008  0.4614232E+02  0.7816164E-02  0.1320468E+00
        -11   -1    0    0    0    0  0.00000000000E+00  0.00000000000E+00  0.45593999997E+02  0.45594000000E+02  0.51100000000E-03 0.  1.
         11   -1    0    0    0    0 -0.00000000000E+00 -0.00000000000E+00 -0.45593999997E+02  0.45594000000E+02  0.51100000000E-03 0. -1.
    9900012    2    1    2    0    0 -0.26881031761E+02 -0.27772795067E+02 -0.23134297279E+02  0.46142315135E+02  0.99999760535E+01 0.  0.
         12    1    1    2    0    0  0.26881031761E+02  0.27772795067E+02  0.23134297279E+02  0.45045684865E+02  0.00000000000E+00 0. -1.
         11    1    3    3    0    0 -0.68279606536E+01 -0.83682018278E+01 -0.35935008757E+01  0.11382490822E+02  0.51100000000E-03 0.  1.
        -11    1    3    3    0    0 -0.32237982678E+01 -0.73894151031E+01 -0.51397546291E+01  0.95610359662E+01  0.51100000000E-03 0. -1.
        -12    1    3    3    0    0 -0.16829272840E+02 -0.12015178136E+02 -0.14401041774E+02  0.25198788346E+02  0.00000000000E+00 0.  1.
</event>
<event>
 7    1  0.2250716E-008  0.4614232E+02  0.7816164E-02  0.1320468E+00
        -11   -1    0    0    0    0  0.00000000000E+00  0.00000000000E+00  0.45593999997E+02  0.45594000000E+02  0.51100000000E-03 0.  1.
         11   -1    0    0    0    0 -0.00000000000E+00 -0.00000000000E+00 -0.45593999997E+02  0.45594000000E+02  0.51100000000E-03 0. -1.
    9900012    2    1    2    0    0  0.25440022870E+02 -0.23580601569E+02  0.28738021736E+02  0.46142318439E+02  0.10000006184E+02 0.  0.
         12    1    1    2    0    0 -0.25440022870E+02  0.23580601569E+02 -0.28738021736E+02  0.45045681561E+02  0.00000000000E+00 0. -1.
         11    1    3    3    0    0  0.73655888254E+01 -0.10324385246E+02  0.63660692153E+01  0.14190548508E+02  0.51100000000E-03 0. -1.
        -11    1    3    3    0    0  0.70439460543E+01 -0.68944070667E+01  0.11996870657E+02  0.15526587862E+02  0.51100000000E-03 0.  1.
         12    1    3    3    0    0  0.11030487991E+02 -0.63618092568E+01  0.10375081863E+02  0.16425182069E+02  0.00000000000E+00 0. -1.
</event>
<event>
 7    1  0.2250716E-008  0.4614232E+02  0.7816164E-02  0.1320468E+00
        -11   -1    0    0    0    0  0.00000000000E+00  0.00000000000E+00  0.45593999997E+02  0.45594000000E+02  0.51100000000E-03 0. -1.
         11   -1    0    0    0    0 -0.00000000000E+00 -0.00000000000E+00 -0.45593999997E+02  0.45594000000E+02  0.51100000000E-03 0.  1.
    9900012    2    1    2    0    0  0.33600421964E+02  0.24932746122E+02 -0.16687821573E+02  0.46142316808E+02  0.99999913109E+01 0.  0.
         12    1    1    2    0    0 -0.33600421964E+02 -0.24932746122E+02  0.16687821573E+02  0.45045683192E+02  0.00000000000E+00 0. -1.
         11    1    3    3    0    0  0.22521557779E+02  0.16471749783E+02 -0.14090986279E+02  0.31258518843E+02  0.51100000000E-03 0. -1.
        -11    1    3    3    0    0  0.93397916886E+01  0.83637307174E+01 -0.33636700148E+01  0.12980677044E+02  0.51100000000E-03 0.  1.
         12    1    3    3    0    0  0.17390724965E+01  0.97265621931E-01  0.76683472080E+00  0.19031209206E+01  0.00000000000E+00 0. -1.
</event>
<event>
 7    1  0.2250716E-008  0.4614231E+02  0.7816164E-02  0.1320468E+00
        -11   -1    0    0    0    0  0.00000000000E+00  0.00000000000E+00  0.45593999997E+02  0.45594000000E+02  0.51100000000E-03 0.  1.
         11   -1    0    0    0    0 -0.00000000000E+00 -0.00000000000E+00 -0.45593999997E+02  0.45594000000E+02  0.51100000000E-03 0. -1.
    9900012    2    1    2    0    0  0.92640632262E+01  0.15712103912E+02  0.41187627517E+02  0.46142314998E+02  0.99999748052E+01 0.  0.
         12    1    1    2    0    0 -0.92640632262E+01 -0.15712103912E+02 -0.41187627517E+02  0.45045685002E+02  0.00000000000E+00 0. -1.
         11    1    3    3    0    0  0.24961220205E+01  0.29272000415E+01  0.26622435117E+01  0.46783187152E+01  0.51100000000E-03 0. -1.
        -11    1    3    3    0    0  0.48092937100E+01  0.47233137360E+01  0.21370216035E+02  0.22408148792E+02  0.51100000000E-03 0.  1.
         12    1    3    3    0    0  0.19586474957E+01  0.80615901349E+01  0.17155167970E+02  0.19055847491E+02  0.00000000000E+00 0. -1.
</event>
<event>
 7    1  0.2250716E-008  0.4614232E+02  0.7816164E-02  0.1320468E+00
        -11   -1    0    0    0    0  0.00000000000E+00  0.00000000000E+00  0.45593999997E+02  0.45594000000E+02  0.51100000000E-03 0. -1.
         11   -1    0    0    0    0 -0.00000000000E+00 -0.00000000000E+00 -0.45593999997E+02  0.45594000000E+02  0.51100000000E-03 0.  1.
    9900012    2    1    2    0    0 -0.15862079353E+02 -0.16975962020E+02 -0.38591768757E+02  0.46142318035E+02  0.10000002495E+02 0.  0.
         12    1    1    2    0    0  0.15862079353E+02  0.16975962020E+02  0.38591768757E+02  0.45045681965E+02  0.00000000000E+00 0. -1.
         11    1    3    3    0    0 -0.15215683213E+01  0.13057083396E+00 -0.20203573259E+01  0.25326000246E+01  0.51100000000E-03 0. -1.
        -11    1    3    3    0    0 -0.12988743865E+02 -0.97417207381E+01 -0.26061688439E+02  0.30705377293E+02  0.51100000000E-03 0.  1.
        -12    1    3    3    0    0 -0.13517671663E+01 -0.73648121158E+01 -0.10509722992E+02  0.12904340717E+02  0.00000000000E+00 0.  1.
</event>
<event>
 7    1  0.2250716E-008  0.4614232E+02  0.7816164E-02  0.1320468E+00
        -11   -1    0    0    0    0  0.00000000000E+00  0.00000000000E+00  0.45593999997E+02  0.45594000000E+02  0.51100000000E-03 0.  1.
         11   -1    0    0    0    0 -0.00000000000E+00 -0.00000000000E+00 -0.45593999997E+02  0.45594000000E+02  0.51100000000E-03 0. -1.
    9900012    2    1    2    0    0 -0.93108092815E+01 -0.20805891939E+02  0.38852763111E+02  0.46142317519E+02  0.99999977933E+01 0.  0.
         12    1    1    2    0    0  0.93108092815E+01  0.20805891939E+02 -0.38852763111E+02  0.45045682481E+02  0.00000000000E+00 0. -1.
         11    1    3    3    0    0 -0.78210027082E+01 -0.11447166411E+02  0.17604067073E+02  0.22407786147E+02  0.51100000000E-03 0. -1.
        -11    1    3    3    0    0 -0.16481496007E+01 -0.66931065169E+01  0.19104156183E+02  0.20309673944E+02  0.51100000000E-03 0.  1.
         12    1    3    3    0    0  0.15834302749E+00 -0.26656190106E+01  0.21445398540E+01  0.34248574291E+01  0.00000000000E+00 0. -1.
</event>
<event>
 7    1  0.2250716E-008  0.4614232E+02  0.7816164E-02  0.1320468E+00
        -11   -1    0    0    0    0  0.00000000000E+00  0.00000000000E+00  0.45593999997E+02  0.45594000000E+02  0.51100000000E-03 0. -1.
         11   -1    0    0    0    0 -0.00000000000E+00 -0.00000000000E+00 -0.45593999997E+02  0.45594000000E+02  0.51100000000E-03 0.  1.
    9900012    2    1    2    0    0 -0.27689887474E+02  0.35464784049E+02 -0.21524005593E+01  0.46142316476E+02  0.99999882843E+01 0.  0.
         12    1    1    2    0    0  0.27689887474E+02 -0.35464784049E+02  0.21524005593E+01  0.45045683524E+02  0.00000000000E+00 0. -1.
         11    1    3    3    0    0 -0.15061600423E+02  0.26493397356E+02 -0.13766078404E+00  0.30475742182E+02  0.51100000000E-03 0. -1.
        -11    1    3    3    0    0 -0.46142723267E+01  0.36623902739E+01 -0.27551058030E+00  0.58975009931E+01  0.51100000000E-03 0.  1.
         12    1    3    3    0    0 -0.80140147245E+01  0.53089964187E+01 -0.17392291950E+01  0.97690733015E+01  0.00000000000E+00 0. -1.
</event>
<event>
 7    1  0.2250716E-008  0.4614232E+02  0.7816164E-02  0.1320468E+00
        -11   -1    0    0    0    0  0.00000000000E+00  0.00000000000E+00  0.45593999997E+02  0.45594000000E+02  0.51100000000E-03 0.  1.
         11   -1    0    0    0    0 -0.00000000000E+00 -0.00000000000E+00 -0.45593999997E+02  0.45594000000E+02  0.51100000000E-03 0. -1.
    9900012    2    1    2    0    0 -0.37583538595E+01 -0.22378892035E+02  0.38912381003E+02  0.46142318434E+02  0.10000006133E+02 0.  0.
         12    1    1    2    0    0  0.37583538595E+01  0.22378892035E+02 -0.38912381003E+02  0.45045681566E+02  0.00000000000E+00 0. -1.
         11    1    3    3    0    0 -0.66213004779E+00 -0.33842572344E+01  0.11387206449E+02  0.11897902513E+02  0.51100000000E-03 0. -1.
        -11    1    3    3    0    0 -0.14405675368E+01 -0.18343573760E+02  0.26245607038E+02  0.32052984606E+02  0.51100000000E-03 0.  1.
        -12    1    3    3    0    0 -0.16556562749E+01 -0.65106104077E+00  0.12795675158E+01  0.21914313147E+01  0.00000000000E+00 0.  1.
</event>
<event>
 7    1  0.2250716E-008  0.4614232E+02  0.7816164E-02  0.1320468E+00
        -11   -1    0    0    0    0  0.00000000000E+00  0.00000000000E+00  0.45593999997E+02  0.45594000000E+02  0.51100000000E-03 0. -1.
         11   -1    0    0    0    0 -0.00000000000E+00 -0.00000000000E+00 -0.45593999997E+02  0.45594000000E+02  0.51100000000E-03 0.  1.
    9900012    2    1    2    0    0  0.54978507771E+01  0.36133451086E+02 -0.26329847872E+02  0.46142317193E+02  0.99999948186E+01 0.  0.
         12    1    1    2    0    0 -0.54978507771E+01 -0.36133451086E+02  0.26329847872E+02  0.45045682807E+02  0.00000000000E+00 0. -1.
         11    1    3    3    0    0 -0.95473133315E+00  0.81627238393E+01 -0.37261798807E+01  0.90236350302E+01  0.51100000000E-03 0. -1.
        -11    1    3    3    0    0  0.26263408539E+01  0.10412788910E+02 -0.12586763654E+02  0.16545405970E+02  0.51100000000E-03 0.  1.
         12    1    3    3    0    0  0.38262412564E+01  0.17557938337E+02 -0.10016904338E+02  0.20573276193E+02  0.00000000000E+00 0. -1.
</event>
<event>
 7    1  0.2250716E-008  0.4614232E+02  0.7816164E-02  0.1320468E+00
        -11   -1    0    0    0    0  0.00000000000E+00  0.00000000000E+00  0.45593999997E+02  0.45594000000E+02  0.51100000000E-03 0. -1.
         11   -1    0    0    0    0 -0.00000000000E+00 -0.00000000000E+00 -0.45593999997E+02  0.45594000000E+02  0.51100000000E-03 0.  1.
    9900012    2    1    2    0    0 -0.92605077579E+01  0.39515519994E+02 -0.19541748802E+02  0.46142320179E+02  0.10000022046E+02 0.  0.
         12    1    1    2    0    0  0.92605077579E+01 -0.39515519994E+02  0.19541748802E+02  0.45045679821E+02  0.00000000000E+00 0. -1.
         11    1    3    3    0    0 -0.17472353826E+01  0.29253552137E+01 -0.25983096758E+01  0.42850610312E+01  0.51100000000E-03 0. -1.
        -11    1    3    3    0    0 -0.44194554780E+01  0.13838998575E+02 -0.25261546001E+01  0.14745539177E+02  0.51100000000E-03 0.  1.
        -12    1    3    3    0    0 -0.30938168974E+01  0.22751166205E+02 -0.14417284526E+02  0.27111719971E+02  0.00000000000E+00 0.  1.
</event>
<event>
 7    1  0.2250716E-008  0.4614232E+02  0.7816164E-02  0.1320468E+00
        -11   -1    0    0    0    0  0.00000000000E+00  0.00000000000E+00  0.45593999997E+02  0.45594000000E+02  0.51100000000E-03 0. -1.
         11   -1    0    0    0    0 -0.00000000000E+00 -0.00000000000E+00 -0.45593999997E+02  0.45594000000E+02  0.51100000000E-03 0.  1.
    9900012    2    1    2    0    0 -0.36250984980E+02 -0.96491832845E+01 -0.24937380082E+02  0.46142316795E+02  0.99999911903E+01 0.  0.
         12    1    1    2    0    0  0.36250984980E+02  0.96491832845E+01  0.24937380082E+02  0.45045683205E+02  0.00000000000E+00 0. -1.
         11    1    3    3    0    0 -0.22528728027E+02 -0.70428447419E+01 -0.17456717851E+02  0.29357831101E+02  0.51100000000E-03 0. -1.
        -11    1    3    3    0    0 -0.69293157591E+01 -0.38111280235E+01 -0.54093696676E+01  0.95813044082E+01  0.51100000000E-03 0.  1.
         12    1    3    3    0    0 -0.67929411934E+01  0.12047894808E+01 -0.20712925634E+01  0.72031812856E+01  0.00000000000E+00 0. -1.
</event>
<event>
 7    1  0.2250716E-008  0.4614232E+02  0.7816164E-02  0.1320468E+00
        -11   -1    0    0    0    0  0.00000000000E+00  0.00000000000E+00  0.45593999997E+02  0.45594000000E+02  0.51100000000E-03 0. -1.
         11   -1    0    0    0    0 -0.00000000000E+00 -0.00000000000E+00 -0.45593999997E+02  0.45594000000E+02  0.51100000000E-03 0.  1.
    9900012    2    1    2    0    0 -0.42009686351E+02 -0.15393062596E+02  0.52300342272E+01  0.46142318948E+02  0.10000010824E+02 0.  0.
         12    1    1    2    0    0  0.42009686351E+02  0.15393062596E+02 -0.52300342272E+01  0.45045681052E+02  0.00000000000E+00 0. -1.
         11    1    3    3    0    0 -0.40121119943E+00 -0.10822276895E+01 -0.38097285320E+00  0.12154537319E+01  0.51100000000E-03 0. -1.
        -11    1    3    3    0    0 -0.31605734941E+02 -0.75562319052E+01  0.44893942458E+01  0.32805087757E+02  0.51100000000E-03 0.  1.
        -12    1    3    3    0    0 -0.10002740211E+02 -0.67546030011E+01  0.11216128346E+01  0.12121777459E+02  0.00000000000E+00 0.  1.
</event>
<event>
 7    1  0.2250716E-008  0.4614232E+02  0.7816164E-02  0.1320468E+00
        -11   -1    0    0    0    0  0.00000000000E+00  0.00000000000E+00  0.45593999997E+02  0.45594000000E+02  0.51100000000E-03 0.  1.
         11   -1    0    0    0    0 -0.00000000000E+00 -0.00000000000E+00 -0.45593999997E+02  0.45594000000E+02  0.51100000000E-03 0. -1.
    9900012    2    1    2    0    0  0.36899492846E+02  0.17849652967E+02  0.18679690221E+02  0.46142317519E+02  0.99999977967E+01 0.  0.
         12    1    1    2    0    0 -0.36899492846E+02 -0.17849652967E+02 -0.18679690221E+02  0.45045682481E+02  0.00000000000E+00 0. -1.
         11    1    3    3    0    0  0.10103178199E+02  0.64072038402E+01  0.44109279811E+01  0.12750794355E+02  0.51100000000E-03 0.  1.
        -11    1    3    3    0    0  0.12943072333E+02  0.97372601365E+01  0.84611388695E+01  0.18273703172E+02  0.51100000000E-03 0. -1.
         12    1    3    3    0    0  0.13853242314E+02  0.17051889908E+01  0.58076233705E+01  0.15117819992E+02  0.00000000000E+00 0. -1.
</event>
<event>
 7    1  0.2250716E-008  0.4614232E+02  0.7816164E-02  0.1320468E+00
        -11   -1    0    0    0    0  0.00000000000E+00  0.00000000000E+00  0.45593999997E+02  0.45594000000E+02  0.51100000000E-03 0.  1.
         11   -1    0    0    0    0 -0.00000000000E+00 -0.00000000000E+00 -0.45593999997E+02  0.45594000000E+02  0.51100000000E-03 0. -1.
    9900012    2    1    2    0    0 -0.34153991534E+01 -0.40260274444E+02  0.19913786337E+02  0.46142317233E+02  0.99999951819E+01 0.  0.
         12    1    1    2    0    0  0.34153991534E+01  0.40260274444E+02 -0.19913786337E+02  0.45045682767E+02  0.00000000000E+00 0. -1.
         11    1    3    3    0    0  0.10867943107E+01 -0.39792667322E+00  0.39713112339E+00  0.12235934379E+01  0.51100000000E-03 0. -1.
        -11    1    3    3    0    0 -0.37263914941E+01 -0.27401668427E+02  0.10780489648E+02  0.29680909411E+02  0.51100000000E-03 0.  1.
         12    1    3    3    0    0 -0.77580196996E+00 -0.12460679344E+02  0.87361655654E+01  0.15237814384E+02  0.00000000000E+00 0. -1.
</event>
<event>
 7    1  0.2250716E-008  0.4614231E+02  0.7816164E-02  0.1320468E+00
        -11   -1    0    0    0    0  0.00000000000E+00  0.00000000000E+00  0.45593999997E+02  0.45594000000E+02  0.51100000000E-03 0. -1.
         11   -1    0    0    0    0 -0.00000000000E+00 -0.00000000000E+00 -0.45593999997E+02  0.45594000000E+02  0.51100000000E-03 0.  1.
    9900012    2    1    2    0    0  0.43709866418E+02 -0.52510185414E+00 -0.10875944634E+02  0.46142308465E+02  0.99999152284E+01 0.  0.
         12    1    1    2    0    0 -0.43709866418E+02  0.52510185414E+00  0.10875944634E+02  0.45045691535E+02  0.00000000000E+00 0. -1.
         11    1    3    3    0    0  0.13310074620E+02 -0.34160530747E+01 -0.22604522629E+01  0.13926131900E+02  0.51100000000E-03 0. -1.
        -11    1    3    3    0    0  0.25648517438E+02  0.67522289348E+00 -0.82905262843E+01  0.26963590248E+02  0.51100000000E-03 0.  1.
         12    1    3    3    0    0  0.47512743599E+01  0.22157283271E+01 -0.32496608655E+00  0.52525863172E+01  0.00000000000E+00 0. -1.
</event>
<event>
 7    1  0.2250716E-008  0.4614232E+02  0.7816164E-02  0.1320468E+00
        -11   -1    0    0    0    0  0.00000000000E+00  0.00000000000E+00  0.45593999997E+02  0.45594000000E+02  0.51100000000E-03 0. -1.
         11   -1    0    0    0    0 -0.00000000000E+00 -0.00000000000E+00 -0.45593999997E+02  0.45594000000E+02  0.51100000000E-03 0.  1.
    9900012    2    1    2    0    0  0.18201321216E+02 -0.40540653210E+02  0.73675599859E+01  0.46142316557E+02  0.99999890159E+01 0.  0.
         12    1    1    2    0    0 -0.18201321216E+02  0.40540653210E+02 -0.73675599859E+01  0.45045683443E+02  0.00000000000E+00 0. -1.
         11    1    3    3    0    0  0.51080542099E+01 -0.11554551322E+02 -0.16108625050E+01  0.12735570358E+02  0.51100000000E-03 0.  1.
        -11    1    3    3    0    0  0.54027657809E+01 -0.78825559942E+01  0.11734609933E+01  0.96281658715E+01  0.51100000000E-03 0. -1.
         12    1    3    3    0    0  0.76905012253E+01 -0.21103545894E+02  0.78049614976E+01  0.23778580328E+02  0.00000000000E+00 0. -1.
</event>
<event>
 7    1  0.2250716E-008  0.4614232E+02  0.7816164E-02  0.1320468E+00
        -11   -1    0    0    0    0  0.00000000000E+00  0.00000000000E+00  0.45593999997E+02  0.45594000000E+02  0.51100000000E-03 0.  1.
         11   -1    0    0    0    0 -0.00000000000E+00 -0.00000000000E+00 -0.45593999997E+02  0.45594000000E+02  0.51100000000E-03 0. -1.
    9900012    2    1    2    0    0 -0.21941023151E+02 -0.31680286004E+02  0.23325185835E+02  0.46142319714E+02  0.10000017811E+02 0.  0.
         12    1    1    2    0    0  0.21941023151E+02  0.31680286004E+02 -0.23325185835E+02  0.45045680286E+02  0.00000000000E+00 0. -1.
         11    1    3    3    0    0 -0.22462376623E+01 -0.40709314788E+01  0.35696706630E+00  0.46632062455E+01  0.51100000000E-03 0. -1.
        -11    1    3    3    0    0 -0.47703315249E+01 -0.60728791288E+01  0.21578829158E+01  0.80182530959E+01  0.51100000000E-03 0.  1.
        -12    1    3    3    0    0 -0.14924453964E+02 -0.21536475396E+02  0.20810335853E+02  0.33460860373E+02  0.00000000000E+00 0.  1.
</event>
<event>
 7    1  0.2250716E-008  0.4614232E+02  0.7816164E-02  0.1320468E+00
        -11   -1    0    0    0    0  0.00000000000E+00  0.00000000000E+00  0.45593999997E+02  0.45594000000E+02  0.51100000000E-03 0. -1.
         11   -1    0    0    0    0 -0.00000000000E+00 -0.00000000000E+00 -0.45593999997E+02  0.45594000000E+02  0.51100000000E-03 0.  1.
    9900012    2    1    2    0    0  0.36035598374E+01  0.16660212934E+02 -0.41696104134E+02  0.46142318315E+02  0.10000005050E+02 0.  0.
         12    1    1    2    0    0 -0.36035598374E+01 -0.16660212934E+02  0.41696104134E+02  0.45045681685E+02  0.00000000000E+00 0. -1.
         11    1    3    3    0    0  0.26465404240E+00  0.93940339723E+01 -0.23977085516E+02  0.25753029844E+02  0.51100000000E-03 0. -1.
        -11    1    3    3    0    0  0.35053508431E+01  0.79569872135E+01 -0.17649887103E+02  0.19675356288E+02  0.51100000000E-03 0.  1.
         12    1    3    3    0    0 -0.16644504812E+00 -0.69080825203E+00 -0.69131514904E-01  0.71393218268E+00  0.00000000000E+00 0. -1.
</event>
<event>
 7    1  0.2250716E-008  0.4614232E+02  0.7816164E-02  0.1320468E+00
        -11   -1    0    0    0    0  0.00000000000E+00  0.00000000000E+00  0.45593999997E+02  0.45594000000E+02  0.51100000000E-03 0. -1.
         11   -1    0    0    0    0 -0.00000000000E+00 -0.00000000000E+00 -0.45593999997E+02  0.45594000000E+02  0.51100000000E-03 0.  1.
    9900012    2    1    2    0    0  0.25353032596E+01 -0.34123605130E+02 -0.29296165466E+02  0.46142317624E+02  0.99999987500E+01 0.  0.
         12    1    1    2    0    0 -0.25353032596E+01  0.34123605130E+02  0.29296165466E+02  0.45045682376E+02  0.00000000000E+00 0. -1.
         11    1    3    3    0    0 -0.59944472689E+00 -0.24944214151E+02 -0.17591090205E+02  0.30528996192E+02  0.51100000000E-03 0. -1.
        -11    1    3    3    0    0 -0.92066270492E-01 -0.10186054649E+01 -0.50119960491E-01  0.10239851380E+01  0.51100000000E-03 0.  1.
        -12    1    3    3    0    0  0.32268142570E+01 -0.81607855140E+01 -0.11654955300E+02  0.14589336294E+02  0.00000000000E+00 0.  1.
</event>
<event>
 7    1  0.2250716E-008  0.4614232E+02  0.7816164E-02  0.1320468E+00
        -11   -1    0    0    0    0  0.00000000000E+00  0.00000000000E+00  0.45593999997E+02  0.45594000000E+02  0.51100000000E-03 0.  1.
         11   -1    0    0    0    0 -0.00000000000E+00 -0.00000000000E+00 -0.45593999997E+02  0.45594000000E+02  0.51100000000E-03 0. -1.
    9900012    2    1    2    0    0  0.28734393554E+02 -0.19779112799E+02 -0.28499733811E+02  0.46142317595E+02  0.99999984834E+01 0.  0.
         12    1    1    2    0    0 -0.28734393554E+02  0.19779112799E+02  0.28499733811E+02  0.45045682405E+02  0.00000000000E+00 0. -1.
         11    1    3    3    0    0  0.84541521048E+01 -0.62927612425E+01 -0.13442950972E+02  0.17081699651E+02  0.51100000000E-03 0. -1.
        -11    1    3    3    0    0  0.99410194882E+01 -0.75870962186E+01 -0.10448348930E+02  0.16295885773E+02  0.51100000000E-03 0.  1.
         12    1    3    3    0    0  0.10339221961E+02 -0.58992553378E+01 -0.46084339091E+01  0.12764732171E+02  0.00000000000E+00 0. -1.
</event>
<event>
 7    1  0.2250716E-008  0.4614232E+02  0.7816164E-02  0.1320468E+00
        -11   -1    0    0    0    0  0.00000000000E+00  0.00000000000E+00  0.45593999997E+02  0.45594000000E+02  0.51100000000E-03 0. -1.
         11   -1    0    0    0    0 -0.00000000000E+00 -0.00000000000E+00 -0.45593999997E+02  0.45594000000E+02  0.51100000000E-03 0.  1.
    9900012    2    1    2    0    0 -0.38718060150E+02 -0.22801784664E+02 -0.31786724382E+01  0.46142317364E+02  0.99999963786E+01 0.  0.
         12    1    1    2    0    0  0.38718060150E+02  0.22801784664E+02  0.31786724382E+01  0.45045682636E+02  0.00000000000E+00 0. -1.
         11    1    3    3    0    0 -0.23961726832E+02 -0.13180179982E+02  0.25684599607E+00  0.27348628252E+02  0.51100000000E-03 0. -1.
        -11    1    3    3    0    0 -0.12919764146E+02 -0.61146411228E+01 -0.14561181767E+01  0.14367651933E+02  0.51100000000E-03 0.  1.
         12    1    3    3    0    0 -0.18365691715E+01 -0.35069635596E+01 -0.19794002576E+01  0.44260371790E+01  0.00000000000E+00 0. -1.
</event>
<event>
 7    1  0.2250716E-008  0.4614232E+02  0.7816164E-02  0.1320468E+00
        -11   -1    0    0    0    0  0.00000000000E+00  0.00000000000E+00  0.45593999997E+02  0.45594000000E+02  0.51100000000E-03 0.  1.
         11   -1    0    0    0    0 -0.00000000000E+00 -0.00000000000E+00 -0.45593999997E+02  0.45594000000E+02  0.51100000000E-03 0. -1.
    9900012    2    1    2    0    0  0.43043410479E+02  0.11470205558E+02  0.66942277863E+01  0.46142317778E+02  0.10000000156E+02 0.  0.
         12    1    1    2    0    0 -0.43043410479E+02 -0.11470205558E+02 -0.66942277863E+01  0.45045682222E+02  0.00000000000E+00 0. -1.
         11    1    3    3    0    0  0.72589751052E+01  0.62782217793E+00  0.20972301219E+01  0.75819031061E+01  0.51100000000E-03 0. -1.
        -11    1    3    3    0    0  0.34349602302E+02  0.11867451691E+02  0.51666619632E+01  0.36707301509E+02  0.51100000000E-03 0.  1.
         12    1    3    3    0    0  0.14348330709E+01 -0.10250683104E+01 -0.56966429880E+00  0.18531131632E+01  0.00000000000E+00 0. -1.
</event>
<event>
 7    1  0.2250716E-008  0.4614232E+02  0.7816164E-02  0.1320468E+00
        -11   -1    0    0    0    0  0.00000000000E+00  0.00000000000E+00  0.45593999997E+02  0.45594000000E+02  0.51100000000E-03 0.  1.
         11   -1    0    0    0    0 -0.00000000000E+00 -0.00000000000E+00 -0.45593999997E+02  0.45594000000E+02  0.51100000000E-03 0. -1.
    9900012    2    1    2    0    0  0.15813353411E+02 -0.29084942576E+02  0.30546970200E+02  0.46142318529E+02  0.10000007007E+02 0.  0.
         12    1    1    2    0    0 -0.15813353411E+02  0.29084942576E+02 -0.30546970200E+02  0.45045681471E+02  0.00000000000E+00 0. -1.
         11    1    3    3    0    0  0.21928928560E+01 -0.81228722413E+01  0.85665854006E+01  0.12007340181E+02  0.51100000000E-03 0. -1.
        -11    1    3    3    0    0  0.92598750729E+01 -0.11330328437E+02  0.17052259013E+02  0.22470005932E+02  0.51100000000E-03 0.  1.
        -12    1    3    3    0    0  0.43605854818E+01 -0.96317418976E+01  0.49281257861E+01  0.11664972417E+02  0.00000000000E+00 0.  1.
</event>
<event>
 7    1  0.2250716E-008  0.4614232E+02  0.7816164E-02  0.1320468E+00
        -11   -1    0    0    0    0  0.00000000000E+00  0.00000000000E+00  0.45593999997E+02  0.45594000000E+02  0.51100000000E-03 0. -1.
         11   -1    0    0    0    0 -0.00000000000E+00 -0.00000000000E+00 -0.45593999997E+02  0.45594000000E+02  0.51100000000E-03 0.  1.
    9900012    2    1    2    0    0 -0.19820733417E+02 -0.57475036745E+01 -0.40040207952E+02  0.46142317360E+02  0.99999963434E+01 0.  0.
         12    1    1    2    0    0  0.19820733417E+02  0.57475036745E+01  0.40040207952E+02  0.45045682640E+02  0.00000000000E+00 0. -1.
         11    1    3    3    0    0 -0.17325034340E+00  0.54568298782E+00 -0.35988951000E+01  0.36441503546E+01  0.51100000000E-03 0.  1.
        -11    1    3    3    0    0 -0.20180288418E+01  0.14668744800E+01 -0.29559123006E+01  0.38680200279E+01  0.51100000000E-03 0. -1.
        -12    1    3    3    0    0 -0.17629454232E+02 -0.77600611423E+01 -0.33485400551E+02  0.38630146978E+02  0.00000000000E+00 0.  1.
</event>
<event>
 7    1  0.2250716E-008  0.4614231E+02  0.7816164E-02  0.1320468E+00
        -11   -1    0    0    0    0  0.00000000000E+00  0.00000000000E+00  0.45593999997E+02  0.45594000000E+02  0.51100000000E-03 0. -1.
         11   -1    0    0    0    0 -0.00000000000E+00 -0.00000000000E+00 -0.45593999997E+02  0.45594000000E+02  0.51100000000E-03 0.  1.
    9900012    2    1    2    0    0 -0.30670234564E+02 -0.28845413887E+02 -0.16012269643E+02  0.46142312419E+02  0.99999512887E+01 0.  0.
         12    1    1    2    0    0  0.30670234564E+02  0.28845413887E+02  0.16012269643E+02  0.45045687581E+02  0.00000000000E+00 0. -1.
         11    1    3    3    0    0 -0.11136123460E+02 -0.11939301618E+02 -0.81086930521E+01  0.18229401310E+02  0.51100000000E-03 0. -1.
        -11    1    3    3    0    0 -0.72894243766E+01 -0.10167124598E+02 -0.57610568206E+01  0.13773013697E+02  0.51100000000E-03 0.  1.
        -12    1    3    3    0    0 -0.12244686727E+02 -0.67389876705E+01 -0.21425197701E+01  0.14139897413E+02  0.00000000000E+00 0.  1.
</event>
<event>
 7    1  0.2250716E-008  0.4614232E+02  0.7816164E-02  0.1320468E+00
        -11   -1    0    0    0    0  0.00000000000E+00  0.00000000000E+00  0.45593999997E+02  0.45594000000E+02  0.51100000000E-03 0.  1.
         11   -1    0    0    0    0 -0.00000000000E+00 -0.00000000000E+00 -0.45593999997E+02  0.45594000000E+02  0.51100000000E-03 0. -1.
    9900012    2    1    2    0    0  0.37921877993E+02  0.99716145784E+01 -0.22172316017E+02  0.46142317350E+02  0.99999962542E+01 0.  0.
         12    1    1    2    0    0 -0.37921877993E+02 -0.99716145784E+01  0.22172316017E+02  0.45045682650E+02  0.00000000000E+00 0. -1.
         11    1    3    3    0    0  0.30788710935E+02  0.76937262348E+01 -0.15991404991E+02  0.35536786268E+02  0.51100000000E-03 0.  1.
        -11    1    3    3    0    0  0.99302485606E+00 -0.96882374989E+00 -0.12932723531E+00  0.13933569600E+01  0.51100000000E-03 0. -1.
        -12    1    3    3    0    0  0.61401422013E+01  0.32467120935E+01 -0.60515837913E+01  0.92121741219E+01  0.00000000000E+00 0.  1.
</event>
<event>
 7    1  0.2250716E-008  0.4614232E+02  0.7816164E-02  0.1320468E+00
        -11   -1    0    0    0    0  0.00000000000E+00  0.00000000000E+00  0.45593999997E+02  0.45594000000E+02  0.51100000000E-03 0. -1.
         11   -1    0    0    0    0 -0.00000000000E+00 -0.00000000000E+00 -0.45593999997E+02  0.45594000000E+02  0.51100000000E-03 0.  1.
    9900012    2    1    2    0    0 -0.80776513945E+01  0.16485715602E+02 -0.41134975562E+02  0.46142317794E+02  0.10000000298E+02 0.  0.
         12    1    1    2    0    0  0.80776513945E+01 -0.16485715602E+02  0.41134975562E+02  0.45045682206E+02  0.00000000000E+00 0. -1.
         11    1    3    3    0    0 -0.33742220958E-03  0.29123363585E+01 -0.97342093255E+01  0.10160538107E+02  0.51100000000E-03 0.  1.
        -11    1    3    3    0    0  0.12350873854E+01  0.14702161513E+01 -0.16134160939E+01  0.25080048114E+01  0.51100000000E-03 0. -1.
         12    1    3    3    0    0 -0.93124013577E+01  0.12103163093E+02 -0.29787350142E+02  0.33473774875E+02  0.00000000000E+00 0. -1.
</event>
<event>
 7    1  0.2250716E-008  0.4614232E+02  0.7816164E-02  0.1320468E+00
        -11   -1    0    0    0    0  0.00000000000E+00  0.00000000000E+00  0.45593999997E+02  0.45594000000E+02  0.51100000000E-03 0.  1.
         11   -1    0    0    0    0 -0.00000000000E+00 -0.00000000000E+00 -0.45593999997E+02  0.45594000000E+02  0.51100000000E-03 0. -1.
    9900012    2    1    2    0    0  0.14658050371E+02  0.19761939096E+02  0.37732222585E+02  0.46142319866E+02  0.10000019198E+02 0.  0.
         12    1    1    2    0    0 -0.14658050371E+02 -0.19761939096E+02 -0.37732222585E+02  0.45045680134E+02  0.00000000000E+00 0. -1.
         11    1    3    3    0    0  0.50255421837E+01  0.53231565549E+01  0.95437749022E+01  0.12028121615E+02  0.51100000000E-03 0. -1.
        -11    1    3    3    0    0  0.81506214711E+01  0.13980767870E+02  0.19745534356E+02  0.25529994671E+02  0.51100000000E-03 0.  1.
         12    1    3    3    0    0  0.14818867157E+01  0.45801467133E+00  0.84429133263E+01  0.85842035806E+01  0.00000000000E+00 0. -1.
</event>
<event>
 7    1  0.2250716E-008  0.4614232E+02  0.7816164E-02  0.1320468E+00
        -11   -1    0    0    0    0  0.00000000000E+00  0.00000000000E+00  0.45593999997E+02  0.45594000000E+02  0.51100000000E-03 0.  1.
         11   -1    0    0    0    0 -0.00000000000E+00 -0.00000000000E+00 -0.45593999997E+02  0.45594000000E+02  0.51100000000E-03 0. -1.
    9900012    2    1    2    0    0 -0.24508001117E+02  0.33441244244E+02 -0.17611208071E+02  0.46142316688E+02  0.99999902161E+01 0.  0.
         12    1    1    2    0    0  0.24508001117E+02 -0.33441244244E+02  0.17611208071E+02  0.45045683312E+02  0.00000000000E+00 0. -1.
         11    1    3    3    0    0 -0.18096475646E+02  0.20622675358E+02 -0.13658116966E+02  0.30648349532E+02  0.51100000000E-03 0. -1.
        -11    1    3    3    0    0 -0.65432350189E+01  0.95738740525E+01 -0.39376811017E+01  0.12246563665E+02  0.51100000000E-03 0.  1.
        -12    1    3    3    0    0  0.13170954750E+00  0.32446948333E+01 -0.15410003132E-01  0.32474034912E+01  0.00000000000E+00 0.  1.
</event>
<event>
 7    1  0.2250716E-008  0.4614232E+02  0.7816164E-02  0.1320468E+00
        -11   -1    0    0    0    0  0.00000000000E+00  0.00000000000E+00  0.45593999997E+02  0.45594000000E+02  0.51100000000E-03 0. -1.
         11   -1    0    0    0    0 -0.00000000000E+00 -0.00000000000E+00 -0.45593999997E+02  0.45594000000E+02  0.51100000000E-03 0.  1.
    9900012    2    1    2    0    0 -0.40852754639E+02  0.17782809039E+02 -0.66285581397E+01  0.46142316056E+02  0.99999844523E+01 0.  0.
         12    1    1    2    0    0  0.40852754639E+02 -0.17782809039E+02  0.66285581397E+01  0.45045683944E+02  0.00000000000E+00 0. -1.
         11    1    3    3    0    0 -0.23368079456E+01  0.20110779640E+01  0.41816774559E+00  0.31112650926E+01  0.51100000000E-03 0. -1.
        -11    1    3    3    0    0 -0.37388437779E+02  0.16727822970E+02 -0.66121284339E+01  0.41490186593E+02  0.51100000000E-03 0.  1.
        -12    1    3    3    0    0 -0.11275089150E+01 -0.95609189406E+00 -0.43459745140E+00  0.15408643704E+01  0.00000000000E+00 0.  1.
</event>
<event>
 7    1  0.2250716E-008  0.4614232E+02  0.7816164E-02  0.1320468E+00
        -11   -1    0    0    0    0  0.00000000000E+00  0.00000000000E+00  0.45593999997E+02  0.45594000000E+02  0.51100000000E-03 0.  1.
         11   -1    0    0    0    0 -0.00000000000E+00 -0.00000000000E+00 -0.45593999997E+02  0.45594000000E+02  0.51100000000E-03 0. -1.
    9900012    2    1    2    0    0 -0.30488977309E+02 -0.40355946104E+01  0.32912759395E+02  0.46142317718E+02  0.99999996109E+01 0.  0.
         12    1    1    2    0    0  0.30488977309E+02  0.40355946104E+01 -0.32912759395E+02  0.45045682282E+02  0.00000000000E+00 0. -1.
         11    1    3    3    0    0 -0.51576561984E+01 -0.31544542462E+00  0.10802165518E+02  0.11974460465E+02  0.51100000000E-03 0.  1.
        -11    1    3    3    0    0 -0.33821871163E+01 -0.16776664949E+01  0.17561749216E+01  0.41638810230E+01  0.51100000000E-03 0. -1.
        -12    1    3    3    0    0 -0.21949133994E+02 -0.20424826910E+01  0.20354418955E+02  0.30003976231E+02  0.00000000000E+00 0.  1.
</event>
<event>
 7    1  0.2250716E-008  0.4614232E+02  0.7816164E-02  0.1320468E+00
        -11   -1    0    0    0    0  0.00000000000E+00  0.00000000000E+00  0.45593999997E+02  0.45594000000E+02  0.51100000000E-03 0. -1.
         11   -1    0    0    0    0 -0.00000000000E+00 -0.00000000000E+00 -0.45593999997E+02  0.45594000000E+02  0.51100000000E-03 0.  1.
    9900012    2    1    2    0    0  0.66815708636E+01  0.30376534256E+02 -0.32584295573E+02  0.46142317181E+02  0.99999947115E+01 0.  0.
         12    1    1    2    0    0 -0.66815708636E+01 -0.30376534256E+02  0.32584295573E+02  0.45045682819E+02  0.00000000000E+00 0. -1.
         11    1    3    3    0    0  0.37402678963E+01  0.46908444514E+01 -0.41605456905E+01  0.73009428369E+01  0.51100000000E-03 0. -1.
        -11    1    3    3    0    0  0.41867224675E+01  0.16177496643E+02 -0.20136895774E+02  0.26167434232E+02  0.51100000000E-03 0.  1.
        -12    1    3    3    0    0 -0.12454195002E+01  0.95081931620E+01 -0.82868541091E+01  0.12673940112E+02  0.00000000000E+00 0.  1.
</event>
<event>
 7    1  0.2250716E-008  0.4614232E+02  0.7816164E-02  0.1320468E+00
        -11   -1    0    0    0    0  0.00000000000E+00  0.00000000000E+00  0.45593999997E+02  0.45594000000E+02  0.51100000000E-03 0. -1.
         11   -1    0    0    0    0 -0.00000000000E+00 -0.00000000000E+00 -0.45593999997E+02  0.45594000000E+02  0.51100000000E-03 0.  1.
    9900012    2    1    2    0    0 -0.15986135999E+02  0.24680281166E+02 -0.34123902879E+02  0.46142316852E+02  0.99999917080E+01 0.  0.
         12    1    1    2    0    0  0.15986135999E+02 -0.24680281166E+02  0.34123902879E+02  0.45045683148E+02  0.00000000000E+00 0. -1.
         11    1    3    3    0    0 -0.14050103480E+01  0.43497443664E+01 -0.85923006862E+01  0.97325208181E+01  0.51100000000E-03 0. -1.
        -11    1    3    3    0    0 -0.10335605649E+02  0.18351946729E+02 -0.18954826971E+02  0.28335563496E+02  0.51100000000E-03 0.  1.
         12    1    3    3    0    0 -0.42455200024E+01  0.19785900704E+01 -0.65767752219E+01  0.80742325380E+01  0.00000000000E+00 0. -1.
</event>
<event>
 7    1  0.2250716E-008  0.4614232E+02  0.7816164E-02  0.1320468E+00
        -11   -1    0    0    0    0  0.00000000000E+00  0.00000000000E+00  0.45593999997E+02  0.45594000000E+02  0.51100000000E-03 0.  1.
         11   -1    0    0    0    0 -0.00000000000E+00 -0.00000000000E+00 -0.45593999997E+02  0.45594000000E+02  0.51100000000E-03 0. -1.
    9900012    2    1    2    0    0  0.16162777184E+02  0.75346137862E+01  0.41365537968E+02  0.46142317604E+02  0.99999985655E+01 0.  0.
         12    1    1    2    0    0 -0.16162777184E+02 -0.75346137862E+01 -0.41365537968E+02  0.45045682396E+02  0.00000000000E+00 0. -1.
         11    1    3    3    0    0 -0.94290863727E-01 -0.21680073663E+00 -0.28602891696E+00  0.37108776434E+00  0.51100000000E-03 0. -1.
        -11    1    3    3    0    0  0.44437667071E+01  0.45143337247E+01  0.10060308249E+02  0.11888484927E+02  0.51100000000E-03 0.  1.
        -12    1    3    3    0    0  0.11813301340E+02  0.32370807981E+01  0.31591258636E+02  0.33882744913E+02  0.00000000000E+00 0.  1.
</event>
<event>
 7    1  0.2250716E-008  0.4614232E+02  0.7816164E-02  0.1320468E+00
        -11   -1    0    0    0    0  0.00000000000E+00  0.00000000000E+00  0.45593999997E+02  0.45594000000E+02  0.51100000000E-03 0. -1.
         11   -1    0    0    0    0 -0.00000000000E+00 -0.00000000000E+00 -0.45593999997E+02  0.45594000000E+02  0.51100000000E-03 0.  1.
    9900012    2    1    2    0    0 -0.30715038467E+02 -0.17583750746E+02 -0.27865960902E+02  0.46142315908E+02  0.99999831025E+01 0.  0.
         12    1    1    2    0    0  0.30715038467E+02  0.17583750746E+02  0.27865960902E+02  0.45045684092E+02  0.00000000000E+00 0. -1.
         11    1    3    3    0    0 -0.72238911516E+01 -0.59164445766E+01 -0.10333982378E+02  0.13927674316E+02  0.51100000000E-03 0. -1.
        -11    1    3    3    0    0 -0.53145704820E+00 -0.20050365933E+01 -0.18502035605E+01  0.27795452525E+01  0.51100000000E-03 0.  1.
        -12    1    3    3    0    0 -0.22959690267E+02 -0.96622695757E+01 -0.15681774964E+02  0.29435096340E+02  0.00000000000E+00 0.  1.
</event>
<event>
 7    1  0.2250716E-008  0.4614232E+02  0.7816164E-02  0.1320468E+00
        -11   -1    0    0    0    0  0.00000000000E+00  0.00000000000E+00  0.45593999997E+02  0.45594000000E+02  0.51100000000E-03 0. -1.
         11   -1    0    0    0    0 -0.00000000000E+00 -0.00000000000E+00 -0.45593999997E+02  0.45594000000E+02  0.51100000000E-03 0.  1.
    9900012    2    1    2    0    0  0.26956030488E+02  0.35880748928E+02 -0.38804312419E+01  0.46142317965E+02  0.10000001863E+02 0.  0.
         12    1    1    2    0    0 -0.26956030488E+02 -0.35880748928E+02  0.38804312419E+01  0.45045682035E+02  0.00000000000E+00 0. -1.
         11    1    3    3    0    0  0.26552667292E+01  0.49988778016E+01  0.23745230166E+01  0.61382066189E+01  0.51100000000E-03 0. -1.
        -11    1    3    3    0    0  0.10642516103E+02  0.10413782651E+02 -0.18167908359E+01  0.15000358240E+02  0.51100000000E-03 0.  1.
         12    1    3    3    0    0  0.13658247656E+02  0.20468088475E+02 -0.44381634226E+01  0.25003753107E+02  0.00000000000E+00 0. -1.
</event>
<event>
 7    1  0.2250716E-008  0.4614232E+02  0.7816164E-02  0.1320468E+00
        -11   -1    0    0    0    0  0.00000000000E+00  0.00000000000E+00  0.45593999997E+02  0.45594000000E+02  0.51100000000E-03 0.  1.
         11   -1    0    0    0    0 -0.00000000000E+00 -0.00000000000E+00 -0.45593999997E+02  0.45594000000E+02  0.51100000000E-03 0. -1.
    9900012    2    1    2    0    0  0.20080618475E+02  0.62855886664E+01  0.39829306345E+02  0.46142317552E+02  0.99999980974E+01 0.  0.
         12    1    1    2    0    0 -0.20080618475E+02 -0.62855886664E+01 -0.39829306345E+02  0.45045682448E+02  0.00000000000E+00 0. -1.
         11    1    3    3    0    0  0.84120422908E+01 -0.16138997571E+01  0.15341421157E+02  0.17570609873E+02  0.51100000000E-03 0. -1.
        -11    1    3    3    0    0  0.11830368534E+02  0.74390520906E+01  0.24331541435E+02  0.28059241339E+02  0.51100000000E-03 0.  1.
         12    1    3    3    0    0 -0.16179234972E+00  0.46043633293E+00  0.15634375331E+00  0.51246634066E+00  0.00000000000E+00 0. -1.
</event>
<event>
 7    1  0.2250716E-008  0.4614231E+02  0.7816164E-02  0.1320468E+00
        -11   -1    0    0    0    0  0.00000000000E+00  0.00000000000E+00  0.45593999997E+02  0.45594000000E+02  0.51100000000E-03 0.  1.
         11   -1    0    0    0    0 -0.00000000000E+00 -0.00000000000E+00 -0.45593999997E+02  0.45594000000E+02  0.51100000000E-03 0. -1.
    9900012    2    1    2    0    0 -0.22274699952E+02  0.13848913573E+02  0.36621843174E+02  0.46142311387E+02  0.99999418780E+01 0.  0.
         12    1    1    2    0    0  0.22274699952E+02 -0.13848913573E+02 -0.36621843174E+02  0.45045688613E+02  0.00000000000E+00 0. -1.
         11    1    3    3    0    0 -0.29936975180E+01  0.57454135330E+01  0.87056073598E+01  0.10851709601E+02  0.51100000000E-03 0. -1.
        -11    1    3    3    0    0 -0.18045045030E+01  0.24044419432E+01  0.57964239058E+01  0.65296330614E+01  0.51100000000E-03 0.  1.
         12    1    3    3    0    0 -0.17476497931E+02  0.56990580967E+01  0.22119811909E+02  0.28760968725E+02  0.00000000000E+00 0. -1.
</event>
<event>
 7    1  0.3683670E-008  0.4614232E+02  0.7816164E-02  0.1320468E+00
        -11   -1    0    0    0    0  0.00000000000E+00  0.00000000000E+00  0.45593999997E+02  0.45594000000E+02  0.51100000000E-03 0.  1.
         11   -1    0    0    0    0 -0.00000000000E+00 -0.00000000000E+00 -0.45593999997E+02  0.45594000000E+02  0.51100000000E-03 0. -1.
    9900012    2    1    2    0    0 -0.36566795913E+02  0.23359368525E+02  0.12096373105E+02  0.46142324253E+02  0.10000059199E+02 0.  0.
         12    1    1    2    0    0  0.36566795913E+02 -0.23359368525E+02 -0.12096373105E+02  0.45045675747E+02  0.00000000000E+00 0. -1.
         11    1    3    3    0    0 -0.14966799485E+01  0.62249588239E-01 -0.91375164061E+00  0.17546703968E+01  0.51100000000E-03 0. -1.
        -11    1    3    3    0    0 -0.70945883069E-01  0.39117805218E+00 -0.29385751192E+00  0.49437443832E+00  0.51100000000E-03 0.  1.
        -12    1    3    3    0    0 -0.34999170081E+02  0.22905940885E+02  0.13303982257E+02  0.43893279418E+02  0.00000000000E+00 0.  1.
</event>
<event>
 7    1  0.2250716E-008  0.4614232E+02  0.7816164E-02  0.1320468E+00
        -11   -1    0    0    0    0  0.00000000000E+00  0.00000000000E+00  0.45593999997E+02  0.45594000000E+02  0.51100000000E-03 0.  1.
         11   -1    0    0    0    0 -0.00000000000E+00 -0.00000000000E+00 -0.45593999997E+02  0.45594000000E+02  0.51100000000E-03 0. -1.
    9900012    2    1    2    0    0 -0.82796290927E+01 -0.42170651708E+01  0.44076945493E+02  0.46142322953E+02  0.10000047347E+02 0.  0.
         12    1    1    2    0    0  0.82796290927E+01  0.42170651708E+01 -0.44076945493E+02  0.45045677047E+02  0.00000000000E+00 0. -1.
         11    1    3    3    0    0 -0.23651857083E+01 -0.15079824098E+01  0.19695010519E+01  0.34273968311E+01  0.51100000000E-03 0. -1.
        -11    1    3    3    0    0 -0.17694977564E+01 -0.23555541589E+01  0.14552014559E+02  0.14847251789E+02  0.51100000000E-03 0.  1.
        -12    1    3    3    0    0 -0.41449456281E+01 -0.35352860205E+00  0.27555429882E+02  0.27867674333E+02  0.00000000000E+00 0.  1.
</event>
<event>
 7    1  0.2250716E-008  0.4614232E+02  0.7816164E-02  0.1320468E+00
        -11   -1    0    0    0    0  0.00000000000E+00  0.00000000000E+00  0.45593999997E+02  0.45594000000E+02  0.51100000000E-03 0. -1.
         11   -1    0    0    0    0 -0.00000000000E+00 -0.00000000000E+00 -0.45593999997E+02  0.45594000000E+02  0.51100000000E-03 0.  1.
    9900012    2    1    2    0    0  0.24825093214E+02 -0.31659866612E+02  0.20260331352E+02  0.46142318371E+02  0.10000005560E+02 0.  0.
         12    1    1    2    0    0 -0.24825093214E+02  0.31659866612E+02 -0.20260331352E+02  0.45045681629E+02  0.00000000000E+00 0. -1.
         11    1    3    3    0    0  0.19313152798E+02 -0.22328339715E+02  0.17772100073E+02  0.34458673316E+02  0.51100000000E-03 0. -1.
        -11    1    3    3    0    0  0.10684716732E+01 -0.35161653237E+01  0.23531087780E+01  0.43637336631E+01  0.51100000000E-03 0.  1.
         12    1    3    3    0    0  0.44434687429E+01 -0.58153615725E+01  0.13512250058E+00  0.73199113914E+01  0.00000000000E+00 0. -1.
</event>
<event>
 7    1  0.2250716E-008  0.4614232E+02  0.7816164E-02  0.1320468E+00
        -11   -1    0    0    0    0  0.00000000000E+00  0.00000000000E+00  0.45593999997E+02  0.45594000000E+02  0.51100000000E-03 0.  1.
         11   -1    0    0    0    0 -0.00000000000E+00 -0.00000000000E+00 -0.45593999997E+02  0.45594000000E+02  0.51100000000E-03 0. -1.
    9900012    2    1    2    0    0 -0.44306866640E+02  0.69531383237E+01 -0.42034443943E+01  0.46142317535E+02  0.99999979338E+01 0.  0.
         12    1    1    2    0    0  0.44306866640E+02 -0.69531383237E+01  0.42034443943E+01  0.45045682465E+02  0.00000000000E+00 0. -1.
         11    1    3    3    0    0 -0.30467846844E+01  0.15560827618E+01 -0.20635334803E+01  0.39953048895E+01  0.51100000000E-03 0. -1.
        -11    1    3    3    0    0 -0.26899149599E+02  0.64815344914E+01 -0.76324187408E+00  0.27679542571E+02  0.51100000000E-03 0.  1.
         12    1    3    3    0    0 -0.14360932356E+02 -0.10844789296E+01 -0.13766690399E+01  0.14467470074E+02  0.00000000000E+00 0. -1.
</event>
<event>
 7    1  0.2250716E-008  0.4614232E+02  0.7816164E-02  0.1320468E+00
        -11   -1    0    0    0    0  0.00000000000E+00  0.00000000000E+00  0.45593999997E+02  0.45594000000E+02  0.51100000000E-03 0. -1.
         11   -1    0    0    0    0 -0.00000000000E+00 -0.00000000000E+00 -0.45593999997E+02  0.45594000000E+02  0.51100000000E-03 0.  1.
    9900012    2    1    2    0    0 -0.31708721663E+02  0.14841705711E+02 -0.28344205585E+02  0.46142320427E+02  0.10000024309E+02 0.  0.
         12    1    1    2    0    0  0.31708721663E+02 -0.14841705711E+02  0.28344205585E+02  0.45045679573E+02  0.00000000000E+00 0. -1.
         11    1    3    3    0    0 -0.11682267229E+01  0.18801176383E+01 -0.43284207266E+01  0.48615658236E+01  0.51100000000E-03 0. -1.
        -11    1    3    3    0    0 -0.13456409227E+02  0.46589961194E+01 -0.13229779114E+02  0.19437290187E+02  0.51100000000E-03 0.  1.
         12    1    3    3    0    0 -0.17084085713E+02  0.83025919536E+01 -0.10786005745E+02  0.21843464417E+02  0.00000000000E+00 0. -1.
</event>
<event>
 7    1  0.2250716E-008  0.4614232E+02  0.7816164E-02  0.1320468E+00
        -11   -1    0    0    0    0  0.00000000000E+00  0.00000000000E+00  0.45593999997E+02  0.45594000000E+02  0.51100000000E-03 0. -1.
         11   -1    0    0    0    0 -0.00000000000E+00 -0.00000000000E+00 -0.45593999997E+02  0.45594000000E+02  0.51100000000E-03 0.  1.
    9900012    2    1    2    0    0  0.22360829039E+02  0.38968471228E+02  0.32503992106E+01  0.46142317408E+02  0.99999967755E+01 0.  0.
         12    1    1    2    0    0 -0.22360829039E+02 -0.38968471228E+02 -0.32503992106E+01  0.45045682592E+02  0.00000000000E+00 0. -1.
         11    1    3    3    0    0  0.72912696292E+01  0.11979273154E+02 -0.34007586442E+01  0.14430202969E+02  0.51100000000E-03 0. -1.
        -11    1    3    3    0    0  0.17761556792E+01  0.26364586703E+01  0.14057377914E+01  0.34758800779E+01  0.51100000000E-03 0.  1.
         12    1    3    3    0    0  0.13293403731E+02  0.24352739404E+02  0.52454200635E+01  0.28236234361E+02  0.00000000000E+00 0. -1.
</event>
<event>
 7    1  0.2250716E-008  0.4614232E+02  0.7816164E-02  0.1320468E+00
        -11   -1    0    0    0    0  0.00000000000E+00  0.00000000000E+00  0.45593999997E+02  0.45594000000E+02  0.51100000000E-03 0.  1.
         11   -1    0    0    0    0 -0.00000000000E+00 -0.00000000000E+00 -0.45593999997E+02  0.45594000000E+02  0.51100000000E-03 0. -1.
    9900012    2    1    2    0    0 -0.31270418252E+02 -0.31378306409E+02  0.81655606323E+01  0.46142317064E+02  0.99999936401E+01 0.  0.
         12    1    1    2    0    0  0.31270418252E+02  0.31378306409E+02 -0.81655606323E+01  0.45045682936E+02  0.00000000000E+00 0. -1.
         11    1    3    3    0    0 -0.97935420266E+00 -0.21739494015E+01  0.28527144138E+00  0.24013685079E+01  0.51100000000E-03 0. -1.
        -11    1    3    3    0    0 -0.20600464099E+01 -0.52085645477E+01 -0.87578747948E+00  0.56692098064E+01  0.51100000000E-03 0.  1.
        -12    1    3    3    0    0 -0.28231017640E+02 -0.23995792460E+02  0.87560766704E+01  0.38071738749E+02  0.00000000000E+00 0.  1.
</event>
<event>
 7    1  0.2250716E-008  0.4614232E+02  0.7816164E-02  0.1320468E+00
        -11   -1    0    0    0    0  0.00000000000E+00  0.00000000000E+00  0.45593999997E+02  0.45594000000E+02  0.51100000000E-03 0. -1.
         11   -1    0    0    0    0 -0.00000000000E+00 -0.00000000000E+00 -0.45593999997E+02  0.45594000000E+02  0.51100000000E-03 0.  1.
    9900012    2    1    2    0    0 -0.96813157977E+01 -0.41024850948E+02 -0.15885434892E+02  0.46142319712E+02  0.10000017794E+02 0.  0.
         12    1    1    2    0    0  0.96813157977E+01  0.41024850948E+02  0.15885434892E+02  0.45045680288E+02  0.00000000000E+00 0. -1.
         11    1    3    3    0    0 -0.57554740577E+01 -0.19362057489E+02 -0.90874620096E+01  0.22149418003E+02  0.51100000000E-03 0. -1.
        -11    1    3    3    0    0 -0.25709840526E+01 -0.12891167857E+02 -0.58361916826E+00  0.13157992982E+02  0.51100000000E-03 0.  1.
         12    1    3    3    0    0 -0.13548576875E+01 -0.87716256022E+01 -0.62143537145E+01  0.10834908728E+02  0.00000000000E+00 0. -1.
</event>
<event>
 7    1  0.2250716E-008  0.4614231E+02  0.7816164E-02  0.1320468E+00
        -11   -1    0    0    0    0  0.00000000000E+00  0.00000000000E+00  0.45593999997E+02  0.45594000000E+02  0.51100000000E-03 0.  1.
         11   -1    0    0    0    0 -0.00000000000E+00 -0.00000000000E+00 -0.45593999997E+02  0.45594000000E+02  0.51100000000E-03 0. -1.
    9900012    2    1    2    0    0 -0.22682174027E+02  0.17347082995E+02 -0.34838362679E+02  0.46142314067E+02  0.99999663137E+01 0.  0.
         12    1    1    2    0    0  0.22682174027E+02 -0.17347082995E+02  0.34838362679E+02  0.45045685933E+02  0.00000000000E+00 0. -1.
         11    1    3    3    0    0 -0.18222814610E+02  0.12687111737E+02 -0.21132265572E+02  0.30653000261E+02  0.51100000000E-03 0. -1.
        -11    1    3    3    0    0 -0.45927700228E+01  0.35809060789E+01 -0.12840807394E+02  0.14099743247E+02  0.51100000000E-03 0.  1.
        -12    1    3    3    0    0  0.13341060641E+00  0.10790651794E+01 -0.86528971315E+00  0.13895705592E+01  0.00000000000E+00 0.  1.
</event>
<event>
 7    1  0.2250716E-008  0.4614232E+02  0.7816164E-02  0.1320468E+00
        -11   -1    0    0    0    0  0.00000000000E+00  0.00000000000E+00  0.45593999997E+02  0.45594000000E+02  0.51100000000E-03 0.  1.
         11   -1    0    0    0    0 -0.00000000000E+00 -0.00000000000E+00 -0.45593999997E+02  0.45594000000E+02  0.51100000000E-03 0. -1.
    9900012    2    1    2    0    0  0.14498529334E+01 -0.56334111567E+01  0.44668512354E+02  0.46142318845E+02  0.10000009886E+02 0.  0.
         12    1    1    2    0    0 -0.14498529334E+01  0.56334111567E+01 -0.44668512354E+02  0.45045681155E+02  0.00000000000E+00 0. -1.
         11    1    3    3    0    0  0.53562342272E+01 -0.28335569611E+01  0.22817615706E+02  0.23608512806E+02  0.51100000000E-03 0.  1.
        -11    1    3    3    0    0 -0.10568977480E+01 -0.23264136367E+01  0.11950878302E+02  0.12220995283E+02  0.51100000000E-03 0. -1.
        -12    1    3    3    0    0 -0.28494835458E+01 -0.47344055894E+00  0.99000183462E+01  0.10312810756E+02  0.00000000000E+00 0.  1.
</event>
<event>
 7    1  0.2250716E-008  0.4614232E+02  0.7816164E-02  0.1320468E+00
        -11   -1    0    0    0    0  0.00000000000E+00  0.00000000000E+00  0.45593999997E+02  0.45594000000E+02  0.51100000000E-03 0. -1.
         11   -1    0    0    0    0 -0.00000000000E+00 -0.00000000000E+00 -0.45593999997E+02  0.45594000000E+02  0.51100000000E-03 0.  1.
    9900012    2    1    2    0    0  0.22454001458E+02  0.11994628806E+02 -0.37162618102E+02  0.46142317789E+02  0.10000000255E+02 0.  0.
         12    1    1    2    0    0 -0.22454001458E+02 -0.11994628806E+02  0.37162618102E+02  0.45045682211E+02  0.00000000000E+00 0. -1.
         11    1    3    3    0    0  0.84679982555E+01  0.55103857517E+01 -0.12038335816E+02  0.15716006969E+02  0.51100000000E-03 0. -1.
        -11    1    3    3    0    0  0.13445033065E+02  0.44896319796E+01 -0.24433033168E+02  0.28247102851E+02  0.51100000000E-03 0.  1.
         12    1    3    3    0    0  0.54097013694E+00  0.19946110744E+01 -0.69124911878E+00  0.21792079688E+01  0.00000000000E+00 0. -1.
</event>
<event>
 7    1  0.2250716E-008  0.4614232E+02  0.7816164E-02  0.1320468E+00
        -11   -1    0    0    0    0  0.00000000000E+00  0.00000000000E+00  0.45593999997E+02  0.45594000000E+02  0.51100000000E-03 0.  1.
         11   -1    0    0    0    0 -0.00000000000E+00 -0.00000000000E+00 -0.45593999997E+02  0.45594000000E+02  0.51100000000E-03 0. -1.
    9900012    2    1    2    0    0 -0.23999045463E+02  0.11797425525E+02  0.36248863398E+02  0.46142317301E+02  0.99999958079E+01 0.  0.
         12    1    1    2    0    0  0.23999045463E+02 -0.11797425525E+02 -0.36248863398E+02  0.45045682699E+02  0.00000000000E+00 0. -1.
         11    1    3    3    0    0  0.52317593175E+00  0.16117761253E+01  0.28078031596E+01  0.32795265174E+01  0.51100000000E-03 0. -1.
        -11    1    3    3    0    0 -0.74431882614E+01  0.32924723385E+01  0.76427853600E+01  0.11164837389E+02  0.51100000000E-03 0.  1.
         12    1    3    3    0    0 -0.17079033133E+02  0.68931770607E+01  0.25798274879E+02  0.31697953395E+02  0.00000000000E+00 0. -1.
</event>
<event>
 7    1  0.2250716E-008  0.4614233E+02  0.7816164E-02  0.1320468E+00
        -11   -1    0    0    0    0  0.00000000000E+00  0.00000000000E+00  0.45593999997E+02  0.45594000000E+02  0.51100000000E-03 0.  1.
         11   -1    0    0    0    0 -0.00000000000E+00 -0.00000000000E+00 -0.45593999997E+02  0.45594000000E+02  0.51100000000E-03 0. -1.
    9900012    2    1    2    0    0 -0.75163769286E+01 -0.10480449004E+02  0.43159898346E+02  0.46142328080E+02  0.10000094097E+02 0.  0.
         12    1    1    2    0    0  0.75163769286E+01  0.10480449004E+02 -0.43159898346E+02  0.45045671920E+02  0.00000000000E+00 0. -1.
         11    1    3    3    0    0 -0.20616898698E+01 -0.12157910433E+01  0.27976660570E+01  0.36817996425E+01  0.51100000000E-03 0. -1.
        -11    1    3    3    0    0 -0.61407319751E+01 -0.10180481165E+02  0.38290279186E+02  0.40093593832E+02  0.51100000000E-03 0.  1.
        -12    1    3    3    0    0  0.68604491629E+00  0.91582320372E+00  0.20719531030E+01  0.23669346059E+01  0.00000000000E+00 0.  1.
</event>
<event>
 7    1  0.2250716E-008  0.4614232E+02  0.7816164E-02  0.1320468E+00
        -11   -1    0    0    0    0  0.00000000000E+00  0.00000000000E+00  0.45593999997E+02  0.45594000000E+02  0.51100000000E-03 0. -1.
         11   -1    0    0    0    0 -0.00000000000E+00 -0.00000000000E+00 -0.45593999997E+02  0.45594000000E+02  0.51100000000E-03 0.  1.
    9900012    2    1    2    0    0  0.36644511474E+02 -0.20284029769E+02 -0.16578645725E+02  0.46142316756E+02  0.99999908305E+01 0.  0.
         12    1    1    2    0    0 -0.36644511474E+02  0.20284029769E+02  0.16578645725E+02  0.45045683244E+02  0.00000000000E+00 0. -1.
         11    1    3    3    0    0  0.10595118204E+02 -0.29872771485E+01 -0.44853862650E+01  0.11886927472E+02  0.51100000000E-03 0. -1.
        -11    1    3    3    0    0  0.32508598968E+01 -0.16898266614E+01  0.82522703782E+00  0.37556096895E+01  0.51100000000E-03 0.  1.
        -12    1    3    3    0    0  0.22798533374E+02 -0.15606925959E+02 -0.12918486498E+02  0.30499779594E+02  0.00000000000E+00 0.  1.
</event>
<event>
 7    1  0.2250716E-008  0.4614232E+02  0.7816164E-02  0.1320468E+00
        -11   -1    0    0    0    0  0.00000000000E+00  0.00000000000E+00  0.45593999997E+02  0.45594000000E+02  0.51100000000E-03 0.  1.
         11   -1    0    0    0    0 -0.00000000000E+00 -0.00000000000E+00 -0.45593999997E+02  0.45594000000E+02  0.51100000000E-03 0. -1.
    9900012    2    1    2    0    0 -0.33095397041E+01 -0.32140746489E+02  0.31386825701E+02  0.46142318015E+02  0.10000002319E+02 0.  0.
         12    1    1    2    0    0  0.33095397041E+01  0.32140746489E+02 -0.31386825701E+02  0.45045681985E+02  0.00000000000E+00 0. -1.
         11    1    3    3    0    0 -0.27932169627E+01 -0.24250096515E+02  0.26102000841E+02  0.35737706840E+02  0.51100000000E-03 0. -1.
        -11    1    3    3    0    0  0.25069134087E+00 -0.78396274478E+01  0.55307870422E+01  0.95975106271E+01  0.51100000000E-03 0.  1.
         12    1    3    3    0    0 -0.76701408227E+00 -0.51022525574E-01 -0.24596218256E+00  0.80710054874E+00  0.00000000000E+00 0. -1.
</event>
<event>
 7    1  0.2250716E-008  0.4614232E+02  0.7816164E-02  0.1320468E+00
        -11   -1    0    0    0    0  0.00000000000E+00  0.00000000000E+00  0.45593999997E+02  0.45594000000E+02  0.51100000000E-03 0. -1.
         11   -1    0    0    0    0 -0.00000000000E+00 -0.00000000000E+00 -0.45593999997E+02  0.45594000000E+02  0.51100000000E-03 0.  1.
    9900012    2    1    2    0    0 -0.17359504253E+02 -0.33657082455E+02 -0.24391837352E+02  0.46142319666E+02  0.10000017371E+02 0.  0.
         12    1    1    2    0    0  0.17359504253E+02  0.33657082455E+02  0.24391837352E+02  0.45045680334E+02  0.00000000000E+00 0. -1.
         11    1    3    3    0    0 -0.83349170563E+01 -0.79686551392E+01 -0.79704668988E+01  0.14017797613E+02  0.51100000000E-03 0. -1.
        -11    1    3    3    0    0 -0.40835242238E+01 -0.62223716093E+01 -0.55773982204E+01  0.93005617949E+01  0.51100000000E-03 0.  1.
         12    1    3    3    0    0 -0.49410629732E+01 -0.19466055707E+02 -0.10843972233E+02  0.22823960258E+02  0.00000000000E+00 0. -1.
</event>
<event>
 7    1  0.2250716E-008  0.4614232E+02  0.7816164E-02  0.1320468E+00
        -11   -1    0    0    0    0  0.00000000000E+00  0.00000000000E+00  0.45593999997E+02  0.45594000000E+02  0.51100000000E-03 0.  1.
         11   -1    0    0    0    0 -0.00000000000E+00 -0.00000000000E+00 -0.45593999997E+02  0.45594000000E+02  0.51100000000E-03 0. -1.
    9900012    2    1    2    0    0 -0.25328582247E+02 -0.37126730174E+02 -0.30302454494E+01  0.46142316971E+02  0.99999927977E+01 0.  0.
         12    1    1    2    0    0  0.25328582247E+02  0.37126730174E+02  0.30302454494E+01  0.45045683029E+02  0.00000000000E+00 0. -1.
         11    1    3    3    0    0  0.27412739773E+00 -0.15682113731E+01 -0.41060676263E-01  0.15925196957E+01  0.51100000000E-03 0. -1.
        -11    1    3    3    0    0 -0.20270249323E+02 -0.32476043869E+02 -0.28529630729E+01  0.38389006650E+02  0.51100000000E-03 0.  1.
        -12    1    3    3    0    0 -0.53324603211E+01 -0.30824749319E+01 -0.13622170025E+00  0.61607906257E+01  0.00000000000E+00 0.  1.
</event>
<event>
 7    1  0.2250716E-008  0.4614232E+02  0.7816164E-02  0.1320468E+00
        -11   -1    0    0    0    0  0.00000000000E+00  0.00000000000E+00  0.45593999997E+02  0.45594000000E+02  0.51100000000E-03 0.  1.
         11   -1    0    0    0    0 -0.00000000000E+00 -0.00000000000E+00 -0.45593999997E+02  0.45594000000E+02  0.51100000000E-03 0. -1.
    9900012    2    1    2    0    0  0.51333961440E+01 -0.21876264439E+02  0.39040886432E+02  0.46142317464E+02  0.99999972883E+01 0.  0.
         12    1    1    2    0    0 -0.51333961440E+01  0.21876264439E+02 -0.39040886432E+02  0.45045682536E+02  0.00000000000E+00 0. -1.
         11    1    3    3    0    0  0.58572629430E+00 -0.60499297310E+00  0.15923802760E+01  0.18013236783E+01  0.51100000000E-03 0. -1.
        -11    1    3    3    0    0  0.51077870466E+01 -0.12622882360E+02  0.29873250739E+02  0.32830439497E+02  0.51100000000E-03 0.  1.
         12    1    3    3    0    0 -0.56011719688E+00 -0.86483891054E+01  0.75752554166E+01  0.11510554288E+02  0.00000000000E+00 0. -1.
</event>
<event>
 7    1  0.2250716E-008  0.4614231E+02  0.7816164E-02  0.1320468E+00
        -11   -1    0    0    0    0  0.00000000000E+00  0.00000000000E+00  0.45593999997E+02  0.45594000000E+02  0.51100000000E-03 0.  1.
         11   -1    0    0    0    0 -0.00000000000E+00 -0.00000000000E+00 -0.45593999997E+02  0.45594000000E+02  0.51100000000E-03 0. -1.
    9900012    2    1    2    0    0 -0.90208924565E+01 -0.13363846654E+02  0.42061206270E+02  0.46142312404E+02  0.99999511525E+01 0.  0.
         12    1    1    2    0    0  0.90208924565E+01  0.13363846654E+02 -0.42061206270E+02  0.45045687596E+02  0.00000000000E+00 0. -1.
         11    1    3    3    0    0 -0.15962402876E+01  0.14831128791E+01  0.70486978805E+01  0.73777875369E+01  0.51100000000E-03 0.  1.
        -11    1    3    3    0    0 -0.25244696566E+00 -0.35426783795E+00  0.58911640750E+00  0.73232067715E+00  0.51100000000E-03 0. -1.
        -12    1    3    3    0    0 -0.71722052032E+01 -0.14492691695E+02  0.34423391982E+02  0.38032204190E+02  0.00000000000E+00 0.  1.
</event>
<event>
 7    1  0.2250716E-008  0.4614232E+02  0.7816164E-02  0.1320468E+00
        -11   -1    0    0    0    0  0.00000000000E+00  0.00000000000E+00  0.45593999997E+02  0.45594000000E+02  0.51100000000E-03 0.  1.
         11   -1    0    0    0    0 -0.00000000000E+00 -0.00000000000E+00 -0.45593999997E+02  0.45594000000E+02  0.51100000000E-03 0. -1.
    9900012    2    1    2    0    0 -0.69143809363E+01 -0.23006283793E+02  0.38105324280E+02  0.46142317675E+02  0.99999992109E+01 0.  0.
         12    1    1    2    0    0  0.69143809363E+01  0.23006283793E+02 -0.38105324280E+02  0.45045682325E+02  0.00000000000E+00 0. -1.
         11    1    3    3    0    0 -0.39210339608E+01 -0.25306998918E+01  0.43775137280E+01  0.63985604603E+01  0.51100000000E-03 0.  1.
        -11    1    3    3    0    0 -0.99877336946E+00 -0.64719966636E+01  0.75948144679E+01  0.10028234945E+02  0.51100000000E-03 0. -1.
        -12    1    3    3    0    0 -0.19945736059E+01 -0.14003587238E+02  0.26132996084E+02  0.29715522269E+02  0.00000000000E+00 0.  1.
</event>
<event>
 7    1  0.2250716E-008  0.4614232E+02  0.7816164E-02  0.1320468E+00
        -11   -1    0    0    0    0  0.00000000000E+00  0.00000000000E+00  0.45593999997E+02  0.45594000000E+02  0.51100000000E-03 0.  1.
         11   -1    0    0    0    0 -0.00000000000E+00 -0.00000000000E+00 -0.45593999997E+02  0.45594000000E+02  0.51100000000E-03 0. -1.
    9900012    2    1    2    0    0  0.32522113074E+02 -0.24764511505E+02 -0.18924710990E+02  0.46142317022E+02  0.99999932617E+01 0.  0.
         12    1    1    2    0    0 -0.32522113074E+02  0.24764511505E+02  0.18924710990E+02  0.45045682978E+02  0.00000000000E+00 0. -1.
         11    1    3    3    0    0  0.13287276543E+02 -0.12435207526E+02 -0.10767707824E+02  0.21145440080E+02  0.51100000000E-03 0. -1.
        -11    1    3    3    0    0  0.14774861885E+02 -0.11895795762E+02 -0.77731510095E+01  0.20499472613E+02  0.51100000000E-03 0.  1.
         12    1    3    3    0    0  0.44599746462E+01 -0.43350821704E+00 -0.38385215602E+00  0.44974043288E+01  0.00000000000E+00 0. -1.
</event>
<event>
 7    1  0.2250716E-008  0.4614232E+02  0.7816164E-02  0.1320468E+00
        -11   -1    0    0    0    0  0.00000000000E+00  0.00000000000E+00  0.45593999997E+02  0.45594000000E+02  0.51100000000E-03 0.  1.
         11   -1    0    0    0    0 -0.00000000000E+00 -0.00000000000E+00 -0.45593999997E+02  0.45594000000E+02  0.51100000000E-03 0. -1.
    9900012    2    1    2    0    0  0.77403083145E+01 -0.39753016081E+02  0.19720517647E+02  0.46142317891E+02  0.10000001188E+02 0.  0.
         12    1    1    2    0    0 -0.77403083145E+01  0.39753016081E+02 -0.19720517647E+02  0.45045682109E+02  0.00000000000E+00 0. -1.
         11    1    3    3    0    0 -0.19894463011E+00 -0.69034330177E+00  0.68582515072E+00  0.99323171447E+00  0.51100000000E-03 0. -1.
        -11    1    3    3    0    0  0.76420782353E+01 -0.17737134566E+02  0.63304940592E+01  0.20324430070E+02  0.51100000000E-03 0.  1.
         12    1    3    3    0    0  0.29717470930E+00 -0.21325538214E+02  0.12704198437E+02  0.24824656107E+02  0.00000000000E+00 0. -1.
</event>
<event>
 7    1  0.2250716E-008  0.4614232E+02  0.7816164E-02  0.1320468E+00
        -11   -1    0    0    0    0  0.00000000000E+00  0.00000000000E+00  0.45593999997E+02  0.45594000000E+02  0.51100000000E-03 0.  1.
         11   -1    0    0    0    0 -0.00000000000E+00 -0.00000000000E+00 -0.45593999997E+02  0.45594000000E+02  0.51100000000E-03 0. -1.
    9900012    2    1    2    0    0  0.42171472987E+01 -0.13388962760E+02  0.42802625847E+02  0.46142318359E+02  0.10000005451E+02 0.  0.
         12    1    1    2    0    0 -0.42171472987E+01  0.13388962760E+02 -0.42802625847E+02  0.45045681641E+02  0.00000000000E+00 0. -1.
         11    1    3    3    0    0  0.47144179531E+01 -0.68500895485E+01  0.13557673823E+02  0.15904715754E+02  0.51100000000E-03 0. -1.
        -11    1    3    3    0    0 -0.12300749108E+01 -0.47078463745E+01  0.13134030716E+02  0.14006415133E+02  0.51100000000E-03 0.  1.
        -12    1    3    3    0    0  0.73280425642E+00 -0.18310268366E+01  0.16110921308E+02  0.16231187472E+02  0.00000000000E+00 0.  1.
</event>
<event>
 7    1  0.2250716E-008  0.4614232E+02  0.7816164E-02  0.1320468E+00
        -11   -1    0    0    0    0  0.00000000000E+00  0.00000000000E+00  0.45593999997E+02  0.45594000000E+02  0.51100000000E-03 0. -1.
         11   -1    0    0    0    0 -0.00000000000E+00 -0.00000000000E+00 -0.45593999997E+02  0.45594000000E+02  0.51100000000E-03 0.  1.
    9900012    2    1    2    0    0 -0.22006460949E+02 -0.27892031345E+01 -0.39205222823E+02  0.46142317918E+02  0.10000001432E+02 0.  0.
         12    1    1    2    0    0  0.22006460949E+02  0.27892031345E+01  0.39205222823E+02  0.45045682082E+02  0.00000000000E+00 0. -1.
         11    1    3    3    0    0 -0.17587957699E+02 -0.32590093157E+01 -0.30584707045E+02  0.35431366090E+02  0.51100000000E-03 0. -1.
        -11    1    3    3    0    0 -0.31253998589E+01 -0.36247967301E+00 -0.16111371190E+01  0.35348661741E+01  0.51100000000E-03 0.  1.
         12    1    3    3    0    0 -0.12931033907E+01  0.83228585425E+00 -0.70093786593E+01  0.71760856539E+01  0.00000000000E+00 0. -1.
</event>
<event>
 7    1  0.2250716E-008  0.4614232E+02  0.7816164E-02  0.1320468E+00
        -11   -1    0    0    0    0  0.00000000000E+00  0.00000000000E+00  0.45593999997E+02  0.45594000000E+02  0.51100000000E-03 0.  1.
         11   -1    0    0    0    0 -0.00000000000E+00 -0.00000000000E+00 -0.45593999997E+02  0.45594000000E+02  0.51100000000E-03 0. -1.
    9900012    2    1    2    0    0 -0.32442013497E+02  0.54517418610E+01  0.30771866458E+02  0.46142317694E+02  0.99999993921E+01 0.  0.
         12    1    1    2    0    0  0.32442013497E+02 -0.54517418610E+01 -0.30771866458E+02  0.45045682306E+02  0.00000000000E+00 0. -1.
         11    1    3    3    0    0 -0.15334019320E+02  0.47451998345E+01  0.11776828570E+02  0.19908359084E+02  0.51100000000E-03 0. -1.
        -11    1    3    3    0    0 -0.83693467501E+01 -0.24017674361E+01  0.77428821346E+01  0.11651895805E+02  0.51100000000E-03 0.  1.
        -12    1    3    3    0    0 -0.87386474267E+01  0.31083094626E+01  0.11252155754E+02  0.14582062806E+02  0.00000000000E+00 0.  1.
</event>
<event>
 7    1  0.2250716E-008  0.4614232E+02  0.7816164E-02  0.1320468E+00
        -11   -1    0    0    0    0  0.00000000000E+00  0.00000000000E+00  0.45593999997E+02  0.45594000000E+02  0.51100000000E-03 0. -1.
         11   -1    0    0    0    0 -0.00000000000E+00 -0.00000000000E+00 -0.45593999997E+02  0.45594000000E+02  0.51100000000E-03 0.  1.
    9900012    2    1    2    0    0  0.29220175677E+02 -0.30878935257E+02  0.14892485945E+02  0.46142318222E+02  0.10000004202E+02 0.  0.
         12    1    1    2    0    0 -0.29220175677E+02  0.30878935257E+02 -0.14892485945E+02  0.45045681778E+02  0.00000000000E+00 0. -1.
         11    1    3    3    0    0  0.48825101606E+01 -0.84344003231E+01  0.29961560337E+00  0.97502709731E+01  0.51100000000E-03 0. -1.
        -11    1    3    3    0    0  0.78686917206E+01 -0.87193410889E+01  0.35094229218E+01  0.12258028713E+02  0.51100000000E-03 0.  1.
        -12    1    3    3    0    0  0.16468973796E+02 -0.13725193846E+02  0.11083447420E+02  0.24134018536E+02  0.00000000000E+00 0.  1.
</event>
<event>
 7    1  0.2250716E-008  0.4614232E+02  0.7816164E-02  0.1320468E+00
        -11   -1    0    0    0    0  0.00000000000E+00  0.00000000000E+00  0.45593999997E+02  0.45594000000E+02  0.51100000000E-03 0. -1.
         11   -1    0    0    0    0 -0.00000000000E+00 -0.00000000000E+00 -0.45593999997E+02  0.45594000000E+02  0.51100000000E-03 0.  1.
    9900012    2    1    2    0    0  0.25925801240E+01  0.41307734093E+02 -0.17778167041E+02  0.46142316623E+02  0.99999896183E+01 0.  0.
         12    1    1    2    0    0 -0.25925801240E+01 -0.41307734093E+02  0.17778167041E+02  0.45045683377E+02  0.00000000000E+00 0. -1.
         11    1    3    3    0    0 -0.10789132384E+00  0.15922668963E+02 -0.33469206672E+01  0.16270983549E+02  0.51100000000E-03 0. -1.
        -11    1    3    3    0    0  0.22291538432E+00  0.16713103550E+02 -0.11854166828E+02  0.20491432185E+02  0.51100000000E-03 0.  1.
         12    1    3    3    0    0  0.24775560635E+01  0.86719615804E+01 -0.25770795456E+01  0.93799008888E+01  0.00000000000E+00 0. -1.
</event>
<event>
 7    1  0.2250716E-008  0.4614232E+02  0.7816164E-02  0.1320468E+00
        -11   -1    0    0    0    0  0.00000000000E+00  0.00000000000E+00  0.45593999997E+02  0.45594000000E+02  0.51100000000E-03 0.  1.
         11   -1    0    0    0    0 -0.00000000000E+00 -0.00000000000E+00 -0.45593999997E+02  0.45594000000E+02  0.51100000000E-03 0. -1.
    9900012    2    1    2    0    0  0.42133660453E+02  0.22858112785E+01  0.15768422499E+02  0.46142318470E+02  0.10000006464E+02 0.  0.
         12    1    1    2    0    0 -0.42133660453E+02 -0.22858112785E+01 -0.15768422499E+02  0.45045681530E+02  0.00000000000E+00 0. -1.
         11    1    3    3    0    0  0.72344090440E+01  0.26547953130E+01  0.38065683931E+01  0.85950320280E+01  0.51100000000E-03 0. -1.
        -11    1    3    3    0    0  0.31201735036E+02  0.25467530324E+00  0.12764344139E+02  0.33712632801E+02  0.51100000000E-03 0.  1.
         12    1    3    3    0    0  0.36975163729E+01 -0.62365933776E+00 -0.80249003275E+00  0.38346536414E+01  0.00000000000E+00 0. -1.
</event>
<event>
 7    1  0.2250716E-008  0.4614231E+02  0.7816164E-02  0.1320468E+00
        -11   -1    0    0    0    0  0.00000000000E+00  0.00000000000E+00  0.45593999997E+02  0.45594000000E+02  0.51100000000E-03 0.  1.
         11   -1    0    0    0    0 -0.00000000000E+00 -0.00000000000E+00 -0.45593999997E+02  0.45594000000E+02  0.51100000000E-03 0. -1.
    9900012    2    1    2    0    0  0.46210361491E+01 -0.14141849149E+02  0.42517855568E+02  0.46142313031E+02  0.99999568643E+01 0.  0.
         12    1    1    2    0    0 -0.46210361491E+01  0.14141849149E+02 -0.42517855568E+02  0.45045686969E+02  0.00000000000E+00 0. -1.
         11    1    3    3    0    0  0.17250151418E+01 -0.67194254389E+01  0.19851953243E+02  0.21029179806E+02  0.51100000000E-03 0. -1.
        -11    1    3    3    0    0  0.43251937309E+01 -0.70836940528E+01  0.21974692154E+02  0.23489851378E+02  0.51100000000E-03 0.  1.
        -12    1    3    3    0    0 -0.14291727236E+01 -0.33872965713E+00  0.69121017090E+00  0.16232818470E+01  0.00000000000E+00 0.  1.
</event>
<event>
 7    1  0.2250716E-008  0.4614232E+02  0.7816164E-02  0.1320468E+00
        -11   -1    0    0    0    0  0.00000000000E+00  0.00000000000E+00  0.45593999997E+02  0.45594000000E+02  0.51100000000E-03 0. -1.
         11   -1    0    0    0    0 -0.00000000000E+00 -0.00000000000E+00 -0.45593999997E+02  0.45594000000E+02  0.51100000000E-03 0.  1.
    9900012    2    1    2    0    0  0.12092644650E+02 -0.25640039372E+02 -0.35006711455E+02  0.46142317404E+02  0.99999967442E+01 0.  0.
         12    1    1    2    0    0 -0.12092644650E+02  0.25640039372E+02  0.35006711455E+02  0.45045682596E+02  0.00000000000E+00 0. -1.
         11    1    3    3    0    0  0.16792934963E+01 -0.63588472379E+01 -0.42218638404E+01  0.78153118550E+01  0.51100000000E-03 0. -1.
        -11    1    3    3    0    0  0.86065245987E+01 -0.97379344770E+01 -0.15636135323E+02  0.20331954202E+02  0.51100000000E-03 0.  1.
        -12    1    3    3    0    0  0.18068265548E+01 -0.95432576570E+01 -0.15148712291E+02  0.17995051347E+02  0.00000000000E+00 0.  1.
</event>
<event>
 7    1  0.2250716E-008  0.4614232E+02  0.7816164E-02  0.1320468E+00
        -11   -1    0    0    0    0  0.00000000000E+00  0.00000000000E+00  0.45593999997E+02  0.45594000000E+02  0.51100000000E-03 0.  1.
         11   -1    0    0    0    0 -0.00000000000E+00 -0.00000000000E+00 -0.45593999997E+02  0.45594000000E+02  0.51100000000E-03 0. -1.
    9900012    2    1    2    0    0 -0.35062511864E+02  0.21555469682E+02  0.18305617228E+02  0.46142316150E+02  0.99999853075E+01 0.  0.
         12    1    1    2    0    0  0.35062511864E+02 -0.21555469682E+02 -0.18305617228E+02  0.45045683850E+02  0.00000000000E+00 0. -1.
         11    1    3    3    0    0 -0.21013493024E+02  0.15685185156E+02  0.12762083473E+02  0.29162693588E+02  0.51100000000E-03 0. -1.
        -11    1    3    3    0    0 -0.11624957997E+02  0.67806786703E+01  0.47431680197E+01  0.14269369109E+02  0.51100000000E-03 0.  1.
         12    1    3    3    0    0 -0.24240608427E+01 -0.91039414424E+00  0.80036573588E+00  0.27102534528E+01  0.00000000000E+00 0. -1.
</event>
<event>
 7    1  0.2250716E-008  0.4614232E+02  0.7816164E-02  0.1320468E+00
        -11   -1    0    0    0    0  0.00000000000E+00  0.00000000000E+00  0.45593999997E+02  0.45594000000E+02  0.51100000000E-03 0.  1.
         11   -1    0    0    0    0 -0.00000000000E+00 -0.00000000000E+00 -0.45593999997E+02  0.45594000000E+02  0.51100000000E-03 0. -1.
    9900012    2    1    2    0    0  0.90161456426E+01 -0.36352637812E+02  0.25026154528E+02  0.46142316871E+02  0.99999918810E+01 0.  0.
         12    1    1    2    0    0 -0.90161456426E+01  0.36352637812E+02 -0.25026154528E+02  0.45045683129E+02  0.00000000000E+00 0. -1.
         11    1    3    3    0    0  0.33495872049E+01 -0.13056728429E+02  0.96405168898E+01  0.16572189290E+02  0.51100000000E-03 0. -1.
        -11    1    3    3    0    0  0.59043152721E+01 -0.20218297964E+02  0.98949267149E+01  0.23271228724E+02  0.51100000000E-03 0.  1.
         12    1    3    3    0    0 -0.23775683436E+00 -0.30776114192E+01  0.54907109230E+01  0.62988988561E+01  0.00000000000E+00 0. -1.
</event>
<event>
 7    1  0.2250716E-008  0.4614232E+02  0.7816164E-02  0.1320468E+00
        -11   -1    0    0    0    0  0.00000000000E+00  0.00000000000E+00  0.45593999997E+02  0.45594000000E+02  0.51100000000E-03 0.  1.
         11   -1    0    0    0    0 -0.00000000000E+00 -0.00000000000E+00 -0.45593999997E+02  0.45594000000E+02  0.51100000000E-03 0. -1.
    9900012    2    1    2    0    0 -0.24553783996E+01  0.19096180140E+02  0.40723709592E+02  0.46142317610E+02  0.99999986250E+01 0.  0.
         12    1    1    2    0    0  0.24553783996E+01 -0.19096180140E+02 -0.40723709592E+02  0.45045682390E+02  0.00000000000E+00 0. -1.
         11    1    3    3    0    0 -0.34164264303E+01  0.30992865222E+01  0.71172510228E+01  0.84813211755E+01  0.51100000000E-03 0. -1.
        -11    1    3    3    0    0 -0.86115254866E+00  0.76781265461E+01  0.10508449176E+02  0.13043109879E+02  0.51100000000E-03 0.  1.
        -12    1    3    3    0    0  0.18222005793E+01  0.83187670715E+01  0.23098009394E+02  0.24617886556E+02  0.00000000000E+00 0.  1.
</event>
<event>
 7    1  0.2668307E-008  0.4614232E+02  0.7816164E-02  0.1320468E+00
        -11   -1    0    0    0    0  0.00000000000E+00  0.00000000000E+00  0.45593999997E+02  0.45594000000E+02  0.51100000000E-03 0.  1.
         11   -1    0    0    0    0 -0.00000000000E+00 -0.00000000000E+00 -0.45593999997E+02  0.45594000000E+02  0.51100000000E-03 0. -1.
    9900012    2    1    2    0    0 -0.24747266139E+02  0.24144885856E+02  0.28874049888E+02  0.46142318173E+02  0.10000003755E+02 0.  0.
         12    1    1    2    0    0  0.24747266139E+02 -0.24144885856E+02 -0.28874049888E+02  0.45045681827E+02  0.00000000000E+00 0. -1.
         11    1    3    3    0    0 -0.59611180668E+01  0.80338450413E+01  0.64214118422E+01  0.11887477658E+02  0.51100000000E-03 0. -1.
        -11    1    3    3    0    0 -0.13973764868E+02  0.15648182018E+02  0.17333712056E+02  0.27213770025E+02  0.51100000000E-03 0.  1.
         12    1    3    3    0    0 -0.48123832044E+01  0.46285879709E+00  0.51189259890E+01  0.70410704906E+01  0.00000000000E+00 0. -1.
</event>
<event>
 7    1  0.2250716E-008  0.4614232E+02  0.7816164E-02  0.1320468E+00
        -11   -1    0    0    0    0  0.00000000000E+00  0.00000000000E+00  0.45593999997E+02  0.45594000000E+02  0.51100000000E-03 0.  1.
         11   -1    0    0    0    0 -0.00000000000E+00 -0.00000000000E+00 -0.45593999997E+02  0.45594000000E+02  0.51100000000E-03 0. -1.
    9900012    2    1    2    0    0  0.12424371982E+02 -0.94385168933E+01  0.42257104878E+02  0.46142317266E+02  0.99999954858E+01 0.  0.
         12    1    1    2    0    0 -0.12424371982E+02  0.94385168933E+01 -0.42257104878E+02  0.45045682734E+02  0.00000000000E+00 0. -1.
         11    1    3    3    0    0  0.40396423601E+01 -0.57159729155E+01  0.17333713048E+02  0.18693546080E+02  0.51100000000E-03 0. -1.
        -11    1    3    3    0    0  0.66266547313E+01 -0.16949726107E+01  0.23364701821E+02  0.24345323504E+02  0.51100000000E-03 0.  1.
         12    1    3    3    0    0  0.17580748902E+01 -0.20275713671E+01  0.15586900097E+01  0.31034476820E+01  0.00000000000E+00 0. -1.
</event>
<event>
 7    1  0.2250716E-008  0.4614232E+02  0.7816164E-02  0.1320468E+00
        -11   -1    0    0    0    0  0.00000000000E+00  0.00000000000E+00  0.45593999997E+02  0.45594000000E+02  0.51100000000E-03 0.  1.
         11   -1    0    0    0    0 -0.00000000000E+00 -0.00000000000E+00 -0.45593999997E+02  0.45594000000E+02  0.51100000000E-03 0. -1.
    9900012    2    1    2    0    0 -0.38157843839E+02  0.19058187137E+01  0.23863364429E+02  0.46142319261E+02  0.10000013677E+02 0.  0.
         12    1    1    2    0    0  0.38157843839E+02 -0.19058187137E+01 -0.23863364429E+02  0.45045680739E+02  0.00000000000E+00 0. -1.
         11    1    3    3    0    0 -0.13976229173E+02 -0.26200331557E+01  0.57274864195E+01  0.15329828980E+02  0.51100000000E-03 0. -1.
        -11    1    3    3    0    0 -0.20193163786E+02  0.22541628470E+01  0.14911270470E+02  0.25202997860E+02  0.51100000000E-03 0.  1.
         12    1    3    3    0    0 -0.39884508803E+01  0.22716890224E+01  0.32246075391E+01  0.56094924209E+01  0.00000000000E+00 0. -1.
</event>
<event>
 7    1  0.2250716E-008  0.4614232E+02  0.7816164E-02  0.1320468E+00
        -11   -1    0    0    0    0  0.00000000000E+00  0.00000000000E+00  0.45593999997E+02  0.45594000000E+02  0.51100000000E-03 0. -1.
         11   -1    0    0    0    0 -0.00000000000E+00 -0.00000000000E+00 -0.45593999997E+02  0.45594000000E+02  0.51100000000E-03 0.  1.
    9900012    2    1    2    0    0  0.18858203943E+02 -0.27527861251E+02  0.30260510233E+02  0.46142317848E+02  0.10000000789E+02 0.  0.
         12    1    1    2    0    0 -0.18858203943E+02  0.27527861251E+02 -0.30260510233E+02  0.45045682152E+02  0.00000000000E+00 0. -1.
         11    1    3    3    0    0 -0.82697522575E-01 -0.63997436056E+00 -0.46797347181E+00  0.79712326140E+00  0.51100000000E-03 0. -1.
        -11    1    3    3    0    0  0.16001113325E+02 -0.22249769709E+02  0.22532115777E+02  0.35479347816E+02  0.51100000000E-03 0.  1.
         12    1    3    3    0    0  0.29397881401E+01 -0.46381171810E+01  0.81963679274E+01  0.98658467703E+01  0.00000000000E+00 0. -1.
</event>
<event>
 7    1  0.2250716E-008  0.4614232E+02  0.7816164E-02  0.1320468E+00
        -11   -1    0    0    0    0  0.00000000000E+00  0.00000000000E+00  0.45593999997E+02  0.45594000000E+02  0.51100000000E-03 0. -1.
         11   -1    0    0    0    0 -0.00000000000E+00 -0.00000000000E+00 -0.45593999997E+02  0.45594000000E+02  0.51100000000E-03 0.  1.
    9900012    2    1    2    0    0  0.98526201032E+01 -0.19708638336E+02 -0.39288787106E+02  0.46142319405E+02  0.10000014992E+02 0.  0.
         12    1    1    2    0    0 -0.98526201032E+01  0.19708638336E+02  0.39288787106E+02  0.45045680595E+02  0.00000000000E+00 0. -1.
         11    1    3    3    0    0  0.60887718482E+00 -0.28174059215E+01 -0.75176990870E+00  0.29788698879E+01  0.51100000000E-03 0. -1.
        -11    1    3    3    0    0  0.33959533456E+01 -0.81816014417E+01 -0.15561102634E+02  0.17905837504E+02  0.51100000000E-03 0.  1.
         12    1    3    3    0    0  0.58477895728E+01 -0.87096309730E+01 -0.22975914564E+02  0.25257612014E+02  0.00000000000E+00 0. -1.
</event>
<event>
 7    1  0.2250716E-008  0.4614231E+02  0.7816164E-02  0.1320468E+00
        -11   -1    0    0    0    0  0.00000000000E+00  0.00000000000E+00  0.45593999997E+02  0.45594000000E+02  0.51100000000E-03 0.  1.
         11   -1    0    0    0    0 -0.00000000000E+00 -0.00000000000E+00 -0.45593999997E+02  0.45594000000E+02  0.51100000000E-03 0. -1.
    9900012    2    1    2    0    0  0.11439754389E+02  0.23542963978E+01  0.43505209891E+02  0.46142312308E+02  0.99999502695E+01 0.  0.
         12    1    1    2    0    0 -0.11439754389E+02 -0.23542963978E+01 -0.43505209891E+02  0.45045687692E+02  0.00000000000E+00 0. -1.
         11    1    3    3    0    0  0.14920338963E+01  0.16364095775E+01  0.14540491514E+01  0.26492000017E+01  0.51100000000E-03 0. -1.
        -11    1    3    3    0    0 -0.41421727177E+00  0.58201143419E+00  0.35876163837E+01  0.36580465874E+01  0.51100000000E-03 0.  1.
        -12    1    3    3    0    0  0.10361937764E+02  0.13587538610E+00  0.38463544356E+02  0.39835065718E+02  0.00000000000E+00 0.  1.
</event>
<event>
 7    1  0.2250716E-008  0.4614232E+02  0.7816164E-02  0.1320468E+00
        -11   -1    0    0    0    0  0.00000000000E+00  0.00000000000E+00  0.45593999997E+02  0.45594000000E+02  0.51100000000E-03 0.  1.
         11   -1    0    0    0    0 -0.00000000000E+00 -0.00000000000E+00 -0.45593999997E+02  0.45594000000E+02  0.51100000000E-03 0. -1.
    9900012    2    1    2    0    0 -0.21200176750E+01 -0.39258335582E+02  0.21986405100E+02  0.46142318778E+02  0.10000009270E+02 0.  0.
         12    1    1    2    0    0  0.21200176750E+01  0.39258335582E+02 -0.21986405100E+02  0.45045681222E+02  0.00000000000E+00 0. -1.
         11    1    3    3    0    0  0.14751833171E+01 -0.84353892503E+01  0.39238058766E+01  0.94195653000E+01  0.51100000000E-03 0. -1.
        -11    1    3    3    0    0 -0.47062485889E+01 -0.14598910240E+02  0.11567726264E+02  0.19211695582E+02  0.51100000000E-03 0.  1.
        -12    1    3    3    0    0  0.11110475968E+01 -0.16224036092E+02  0.64948729591E+01  0.17511057895E+02  0.00000000000E+00 0.  1.
</event>
<event>
 7    1  0.2250716E-008  0.4614232E+02  0.7816164E-02  0.1320468E+00
        -11   -1    0    0    0    0  0.00000000000E+00  0.00000000000E+00  0.45593999997E+02  0.45594000000E+02  0.51100000000E-03 0.  1.
         11   -1    0    0    0    0 -0.00000000000E+00 -0.00000000000E+00 -0.45593999997E+02  0.45594000000E+02  0.51100000000E-03 0. -1.
    9900012    2    1    2    0    0  0.33310293881E+02 -0.43447518097E+01  0.30011013918E+02  0.46142317597E+02  0.99999985046E+01 0.  0.
         12    1    1    2    0    0 -0.33310293881E+02  0.43447518097E+01 -0.30011013918E+02  0.45045682403E+02  0.00000000000E+00 0. -1.
         11    1    3    3    0    0  0.56263661217E+01 -0.43906035395E+01  0.53701120466E+01  0.89314891720E+01  0.51100000000E-03 0. -1.
        -11    1    3    3    0    0  0.20754652239E+02 -0.14102488156E+01  0.18350884635E+02  0.27739851450E+02  0.51100000000E-03 0.  1.
        -12    1    3    3    0    0  0.69292755208E+01  0.14561005454E+01  0.62900172361E+01  0.94709769755E+01  0.00000000000E+00 0.  1.
</event>
<event>
 7    1  0.2250716E-008  0.4614232E+02  0.7816164E-02  0.1320468E+00
        -11   -1    0    0    0    0  0.00000000000E+00  0.00000000000E+00  0.45593999997E+02  0.45594000000E+02  0.51100000000E-03 0.  1.
         11   -1    0    0    0    0 -0.00000000000E+00 -0.00000000000E+00 -0.45593999997E+02  0.45594000000E+02  0.51100000000E-03 0. -1.
    9900012    2    1    2    0    0  0.71620609616E+01  0.16354438233E+02  0.41356388645E+02  0.46142315979E+02  0.99999837495E+01 0.  0.
         12    1    1    2    0    0 -0.71620609616E+01 -0.16354438233E+02 -0.41356388645E+02  0.45045684021E+02  0.00000000000E+00 0. -1.
         11    1    3    3    0    0  0.10002305335E+01  0.43427873119E+00  0.99239403376E+00  0.14744169410E+01  0.51100000000E-03 0. -1.
        -11    1    3    3    0    0  0.25400432574E+01  0.59532057181E+01  0.64619882065E+01  0.91460248148E+01  0.51100000000E-03 0.  1.
        -12    1    3    3    0    0  0.36217871707E+01  0.99669537833E+01  0.33902006405E+02  0.35521874223E+02  0.00000000000E+00 0.  1.
</event>
<event>
 7    1  0.2677566E-008  0.4614232E+02  0.7816164E-02  0.1320468E+00
        -11   -1    0    0    0    0  0.00000000000E+00  0.00000000000E+00  0.45593999997E+02  0.45594000000E+02  0.51100000000E-03 0. -1.
         11   -1    0    0    0    0 -0.00000000000E+00 -0.00000000000E+00 -0.45593999997E+02  0.45594000000E+02  0.51100000000E-03 0.  1.
    9900012    2    1    2    0    0  0.44839103265E+02  0.90219386180E+00  0.42135917510E+01  0.46142317734E+02  0.99999997558E+01 0.  0.
         12    1    1    2    0    0 -0.44839103265E+02 -0.90219386180E+00 -0.42135917510E+01  0.45045682266E+02  0.00000000000E+00 0. -1.
         11    1    3    3    0    0 -0.10787779855E+00 -0.30749789806E+00 -0.53272253465E+00  0.62448870028E+00  0.51100000000E-03 0. -1.
        -11    1    3    3    0    0  0.70843398339E+00  0.74223291625E+00  0.34872619956E-01  0.10266473453E+01  0.51100000000E-03 0.  1.
        -12    1    3    3    0    0  0.44238547080E+02  0.46745884360E+00  0.47114416657E+01  0.44491181689E+02  0.00000000000E+00 0.  1.
</event>
<event>
 7    1  0.2250716E-008  0.4614232E+02  0.7816164E-02  0.1320468E+00
        -11   -1    0    0    0    0  0.00000000000E+00  0.00000000000E+00  0.45593999997E+02  0.45594000000E+02  0.51100000000E-03 0.  1.
         11   -1    0    0    0    0 -0.00000000000E+00 -0.00000000000E+00 -0.45593999997E+02  0.45594000000E+02  0.51100000000E-03 0. -1.
    9900012    2    1    2    0    0  0.27244847669E+02 -0.22324282479E+02  0.28079495859E+02  0.46142318737E+02  0.10000008902E+02 0.  0.
         12    1    1    2    0    0 -0.27244847669E+02  0.22324282479E+02 -0.28079495859E+02  0.45045681263E+02  0.00000000000E+00 0. -1.
         11    1    3    3    0    0  0.17034345035E+02 -0.15281872574E+02  0.13833575714E+02  0.26740836888E+02  0.51100000000E-03 0. -1.
        -11    1    3    3    0    0  0.30105900722E+01 -0.38511532451E+00  0.17027577156E+01  0.34801365627E+01  0.51100000000E-03 0.  1.
         12    1    3    3    0    0  0.71999125621E+01 -0.66572945806E+01  0.12543162429E+02  0.15921345287E+02  0.00000000000E+00 0. -1.
</event>
<event>
 7    1  0.2250716E-008  0.4614232E+02  0.7816164E-02  0.1320468E+00
        -11   -1    0    0    0    0  0.00000000000E+00  0.00000000000E+00  0.45593999997E+02  0.45594000000E+02  0.51100000000E-03 0.  1.
         11   -1    0    0    0    0 -0.00000000000E+00 -0.00000000000E+00 -0.45593999997E+02  0.45594000000E+02  0.51100000000E-03 0. -1.
    9900012    2    1    2    0    0  0.24541180898E+02 -0.21313297625E+02  0.31186331620E+02  0.46142317683E+02  0.99999992892E+01 0.  0.
         12    1    1    2    0    0 -0.24541180898E+02  0.21313297625E+02 -0.31186331620E+02  0.45045682317E+02  0.00000000000E+00 0. -1.
         11    1    3    3    0    0  0.90488078043E+01 -0.57598634752E+01  0.68827628429E+01  0.12744778325E+02  0.51100000000E-03 0. -1.
        -11    1    3    3    0    0  0.12329625361E+02 -0.14764900208E+02  0.18216600739E+02  0.26492762831E+02  0.51100000000E-03 0.  1.
        -12    1    3    3    0    0  0.31627477329E+01 -0.78853394158E+00  0.60869680382E+01  0.69047765277E+01  0.00000000000E+00 0.  1.
</event>
<event>
 7    1  0.2250716E-008  0.4614232E+02  0.7816164E-02  0.1320468E+00
        -11   -1    0    0    0    0  0.00000000000E+00  0.00000000000E+00  0.45593999997E+02  0.45594000000E+02  0.51100000000E-03 0. -1.
         11   -1    0    0    0    0 -0.00000000000E+00 -0.00000000000E+00 -0.45593999997E+02  0.45594000000E+02  0.51100000000E-03 0.  1.
    9900012    2    1    2    0    0  0.30797697537E+02  0.10223536568E+01 -0.32856809162E+02  0.46142319975E+02  0.10000020189E+02 0.  0.
         12    1    1    2    0    0 -0.30797697537E+02 -0.10223536568E+01  0.32856809162E+02  0.45045680025E+02  0.00000000000E+00 0. -1.
         11    1    3    3    0    0  0.15425545258E+02 -0.50862976351E+00 -0.14168162551E+02  0.20950966113E+02  0.51100000000E-03 0.  1.
        -11    1    3    3    0    0  0.31245808079E+01 -0.24755226071E+01 -0.39143416523E+01  0.55868853788E+01  0.51100000000E-03 0. -1.
        -12    1    3    3    0    0  0.12247571471E+02  0.40065060274E+01 -0.14774304959E+02  0.19604468483E+02  0.00000000000E+00 0.  1.
</event>
<event>
 7    1  0.2250716E-008  0.4614232E+02  0.7816164E-02  0.1320468E+00
        -11   -1    0    0    0    0  0.00000000000E+00  0.00000000000E+00  0.45593999997E+02  0.45594000000E+02  0.51100000000E-03 0. -1.
         11   -1    0    0    0    0 -0.00000000000E+00 -0.00000000000E+00 -0.45593999997E+02  0.45594000000E+02  0.51100000000E-03 0.  1.
    9900012    2    1    2    0    0  0.18598844228E+02 -0.24364819420E+02 -0.33008363248E+02  0.46142317895E+02  0.10000001221E+02 0.  0.
         12    1    1    2    0    0 -0.18598844228E+02  0.24364819420E+02  0.33008363248E+02  0.45045682105E+02  0.00000000000E+00 0. -1.
         11    1    3    3    0    0  0.23236640179E+01 -0.14403660136E+01 -0.62320627284E+01  0.68053416396E+01  0.51100000000E-03 0. -1.
        -11    1    3    3    0    0  0.16827128909E+02 -0.22598816061E+02 -0.26137157871E+02  0.38431884895E+02  0.51100000000E-03 0.  1.
        -12    1    3    3    0    0 -0.55194869873E+00 -0.32563734460E+00 -0.63914264831E+00  0.90509136064E+00  0.00000000000E+00 0.  1.
</event>
<event>
 7    1  0.2250716E-008  0.4614232E+02  0.7816164E-02  0.1320468E+00
        -11   -1    0    0    0    0  0.00000000000E+00  0.00000000000E+00  0.45593999997E+02  0.45594000000E+02  0.51100000000E-03 0.  1.
         11   -1    0    0    0    0 -0.00000000000E+00 -0.00000000000E+00 -0.45593999997E+02  0.45594000000E+02  0.51100000000E-03 0. -1.
    9900012    2    1    2    0    0  0.37973685672E+02 -0.17864630287E+02  0.16369711035E+02  0.46142320316E+02  0.10000023298E+02 0.  0.
         12    1    1    2    0    0 -0.37973685672E+02  0.17864630287E+02 -0.16369711035E+02  0.45045679684E+02  0.00000000000E+00 0. -1.
         11    1    3    3    0    0  0.32727442507E+01  0.37295996815E+00 -0.23725338551E+00  0.33024602190E+01  0.51100000000E-03 0. -1.
        -11    1    3    3    0    0  0.25904853647E+02 -0.13762078312E+02  0.10122465356E+02  0.31030961105E+02  0.51100000000E-03 0.  1.
         12    1    3    3    0    0  0.87960877739E+01 -0.44755119432E+01  0.64844990647E+01  0.11808898992E+02  0.00000000000E+00 0. -1.
</event>
<event>
 7    1  0.2250716E-008  0.4614232E+02  0.7816164E-02  0.1320468E+00
        -11   -1    0    0    0    0  0.00000000000E+00  0.00000000000E+00  0.45593999997E+02  0.45594000000E+02  0.51100000000E-03 0. -1.
         11   -1    0    0    0    0 -0.00000000000E+00 -0.00000000000E+00 -0.45593999997E+02  0.45594000000E+02  0.51100000000E-03 0.  1.
    9900012    2    1    2    0    0 -0.38270567195E+02  0.23754159285E+02  0.46589520292E+00  0.46142318130E+02  0.10000003364E+02 0.  0.
         12    1    1    2    0    0  0.38270567195E+02 -0.23754159285E+02 -0.46589520292E+00  0.45045681870E+02  0.00000000000E+00 0. -1.
         11    1    3    3    0    0 -0.45347099407E+01  0.27698462781E+00 -0.18819923531E+01  0.49175410734E+01  0.51100000000E-03 0. -1.
        -11    1    3    3    0    0 -0.62013993666E+01  0.33277220188E+01  0.47281281226E+00  0.70536969140E+01  0.51100000000E-03 0.  1.
        -12    1    3    3    0    0 -0.27534457888E+02  0.20149452638E+02  0.18750747438E+01  0.34171080143E+02  0.00000000000E+00 0.  1.
</event>
<event>
 7    1  0.2250716E-008  0.4614232E+02  0.7816164E-02  0.1320468E+00
        -11   -1    0    0    0    0  0.00000000000E+00  0.00000000000E+00  0.45593999997E+02  0.45594000000E+02  0.51100000000E-03 0.  1.
         11   -1    0    0    0    0 -0.00000000000E+00 -0.00000000000E+00 -0.45593999997E+02  0.45594000000E+02  0.51100000000E-03 0. -1.
    9900012    2    1    2    0    0 -0.68207285379E+01  0.41234144408E+02  0.16802872925E+02  0.46142317173E+02  0.99999946358E+01 0.  0.
         12    1    1    2    0    0  0.68207285379E+01 -0.41234144408E+02 -0.16802872925E+02  0.45045682827E+02  0.00000000000E+00 0. -1.
         11    1    3    3    0    0 -0.82040097837E+00  0.13918360365E+02  0.88258170931E+01  0.16501177553E+02  0.51100000000E-03 0. -1.
        -11    1    3    3    0    0 -0.69933296183E+00  0.10921821171E+02  0.54533128352E+01  0.12227586247E+02  0.51100000000E-03 0.  1.
         12    1    3    3    0    0 -0.53009945977E+01  0.16393962871E+02  0.25237429971E+01  0.17413553373E+02  0.00000000000E+00 0. -1.
</event>
<event>
 7    1  0.2250716E-008  0.4614232E+02  0.7816164E-02  0.1320468E+00
        -11   -1    0    0    0    0  0.00000000000E+00  0.00000000000E+00  0.45593999997E+02  0.45594000000E+02  0.51100000000E-03 0.  1.
         11   -1    0    0    0    0 -0.00000000000E+00 -0.00000000000E+00 -0.45593999997E+02  0.45594000000E+02  0.51100000000E-03 0. -1.
    9900012    2    1    2    0    0  0.27757556497E+02  0.28614546666E+02  0.20972343406E+02  0.46142318614E+02  0.10000007778E+02 0.  0.
         12    1    1    2    0    0 -0.27757556497E+02 -0.28614546666E+02 -0.20972343406E+02  0.45045681386E+02  0.00000000000E+00 0. -1.
         11    1    3    3    0    0  0.16716373703E+02  0.14604996083E+02  0.81420007473E+01  0.23643926002E+02  0.51100000000E-03 0. -1.
        -11    1    3    3    0    0  0.60291790325E+01  0.54627447798E+01  0.33927030782E+01  0.88149313539E+01  0.51100000000E-03 0.  1.
        -12    1    3    3    0    0  0.50120037610E+01  0.85468058032E+01  0.94376395808E+01  0.13683461258E+02  0.00000000000E+00 0.  1.
</event>
<event>
 7    1  0.2250716E-008  0.4614231E+02  0.7816164E-02  0.1320468E+00
        -11   -1    0    0    0    0  0.00000000000E+00  0.00000000000E+00  0.45593999997E+02  0.45594000000E+02  0.51100000000E-03 0. -1.
         11   -1    0    0    0    0 -0.00000000000E+00 -0.00000000000E+00 -0.45593999997E+02  0.45594000000E+02  0.51100000000E-03 0.  1.
    9900012    2    1    2    0    0 -0.26197375916E+02 -0.26607716938E+02 -0.25196044844E+02  0.46142314510E+02  0.99999703506E+01 0.  0.
         12    1    1    2    0    0  0.26197375916E+02  0.26607716938E+02  0.25196044844E+02  0.45045685490E+02  0.00000000000E+00 0. -1.
         11    1    3    3    0    0 -0.57687355110E+01 -0.23457445382E+01 -0.36484769151E+01  0.72174933942E+01  0.51100000000E-03 0. -1.
        -11    1    3    3    0    0 -0.80551404013E+01 -0.12991956440E+02 -0.13318140825E+02  0.20274345719E+02  0.51100000000E-03 0.  1.
        -12    1    3    3    0    0 -0.12373500003E+02 -0.11270015960E+02 -0.82294271033E+01  0.18650475397E+02  0.00000000000E+00 0.  1.
</event>
<event>
 7    1  0.2250716E-008  0.4614232E+02  0.7816164E-02  0.1320468E+00
        -11   -1    0    0    0    0  0.00000000000E+00  0.00000000000E+00  0.45593999997E+02  0.45594000000E+02  0.51100000000E-03 0.  1.
         11   -1    0    0    0    0 -0.00000000000E+00 -0.00000000000E+00 -0.45593999997E+02  0.45594000000E+02  0.51100000000E-03 0. -1.
    9900012    2    1    2    0    0  0.20402435309E+02  0.10068917789E+02  0.38877641393E+02  0.46142317940E+02  0.10000001634E+02 0.  0.
         12    1    1    2    0    0 -0.20402435309E+02 -0.10068917789E+02 -0.38877641393E+02  0.45045682060E+02  0.00000000000E+00 0. -1.
         11    1    3    3    0    0  0.60303676543E+00  0.55534221720E+00  0.79300891092E+01  0.79723504601E+01  0.51100000000E-03 0. -1.
        -11    1    3    3    0    0  0.18382319533E+02  0.89524295851E+01  0.30204872459E+02  0.36474511476E+02  0.51100000000E-03 0.  1.
        -12    1    3    3    0    0  0.14170790100E+01  0.56114598697E+00  0.74267982413E+00  0.16954560037E+01  0.00000000000E+00 0.  1.
</event>
<event>
 7    1  0.2250716E-008  0.4614233E+02  0.7816164E-02  0.1320468E+00
        -11   -1    0    0    0    0  0.00000000000E+00  0.00000000000E+00  0.45593999997E+02  0.45594000000E+02  0.51100000000E-03 0. -1.
         11   -1    0    0    0    0 -0.00000000000E+00 -0.00000000000E+00 -0.45593999997E+02  0.45594000000E+02  0.51100000000E-03 0.  1.
    9900012    2    1    2    0    0 -0.27037919024E+02 -0.35802765429E+02  0.40280528837E+01  0.46142331090E+02  0.10000121541E+02 0.  0.
         12    1    1    2    0    0  0.27037919024E+02  0.35802765429E+02 -0.40280528837E+01  0.45045668910E+02  0.00000000000E+00 0. -1.
         11    1    3    3    0    0 -0.79523681086E+01 -0.90768666574E+01  0.46109676246E+01  0.12918617943E+02  0.51100000000E-03 0. -1.
        -11    1    3    3    0    0 -0.78112137830E+01 -0.71978753968E+01  0.64430238732E+00  0.10641409532E+02  0.51100000000E-03 0.  1.
        -12    1    3    3    0    0 -0.11274337133E+02 -0.19528023375E+02 -0.12272171282E+01  0.22582303616E+02  0.00000000000E+00 0.  1.
</event>
<event>
 7    1  0.2250716E-008  0.4614232E+02  0.7816164E-02  0.1320468E+00
        -11   -1    0    0    0    0  0.00000000000E+00  0.00000000000E+00  0.45593999997E+02  0.45594000000E+02  0.51100000000E-03 0.  1.
         11   -1    0    0    0    0 -0.00000000000E+00 -0.00000000000E+00 -0.45593999997E+02  0.45594000000E+02  0.51100000000E-03 0. -1.
    9900012    2    1    2    0    0 -0.33321339457E+02 -0.49149153261E+01  0.29910623353E+02  0.46142318239E+02  0.10000004361E+02 0.  0.
         12    1    1    2    0    0  0.33321339457E+02  0.49149153261E+01 -0.29910623353E+02  0.45045681761E+02  0.00000000000E+00 0. -1.
         11    1    3    3    0    0 -0.18784405810E+01  0.39139791793E+00  0.98734826600E+00  0.21579129283E+01  0.51100000000E-03 0. -1.
        -11    1    3    3    0    0 -0.26096013673E+02 -0.88386341655E+00  0.24108364075E+02  0.35538660115E+02  0.51100000000E-03 0.  1.
         12    1    3    3    0    0 -0.53468852036E+01 -0.44224498274E+01  0.48149110119E+01  0.84457451957E+01  0.00000000000E+00 0. -1.
</event>
<event>
 7    1  0.2250716E-008  0.4614232E+02  0.7816164E-02  0.1320468E+00
        -11   -1    0    0    0    0  0.00000000000E+00  0.00000000000E+00  0.45593999997E+02  0.45594000000E+02  0.51100000000E-03 0.  1.
         11   -1    0    0    0    0 -0.00000000000E+00 -0.00000000000E+00 -0.45593999997E+02  0.45594000000E+02  0.51100000000E-03 0. -1.
    9900012    2    1    2    0    0  0.41080620526E+02 -0.12338798233E+02  0.13756820348E+02  0.46142318401E+02  0.10000005838E+02 0.  0.
         12    1    1    2    0    0 -0.41080620526E+02  0.12338798233E+02 -0.13756820348E+02  0.45045681599E+02  0.00000000000E+00 0. -1.
         11    1    3    3    0    0  0.75497332535E+01 -0.47064337199E+01  0.40732854543E+01  0.97847148764E+01  0.51100000000E-03 0. -1.
        -11    1    3    3    0    0  0.28986159862E+02 -0.47117787976E+01  0.97864470960E+01  0.30954367543E+02  0.51100000000E-03 0.  1.
        -12    1    3    3    0    0  0.45447274105E+01 -0.29205857152E+01 -0.10291220248E+00  0.54032359820E+01  0.00000000000E+00 0.  1.
</event>
<event>
 7    1  0.2250716E-008  0.4614232E+02  0.7816164E-02  0.1320468E+00
        -11   -1    0    0    0    0  0.00000000000E+00  0.00000000000E+00  0.45593999997E+02  0.45594000000E+02  0.51100000000E-03 0. -1.
         11   -1    0    0    0    0 -0.00000000000E+00 -0.00000000000E+00 -0.45593999997E+02  0.45594000000E+02  0.51100000000E-03 0.  1.
    9900012    2    1    2    0    0 -0.77575333842E+01  0.41250149563E+02 -0.16351126042E+02  0.46142317787E+02  0.10000000237E+02 0.  0.
         12    1    1    2    0    0  0.77575333842E+01 -0.41250149563E+02  0.16351126042E+02  0.45045682213E+02  0.00000000000E+00 0. -1.
         11    1    3    3    0    0 -0.40253244271E+01  0.15838490405E+02 -0.11254239238E+02  0.19842351577E+02  0.51100000000E-03 0.  1.
        -11    1    3    3    0    0  0.19536903086E+00  0.47313627551E+01 -0.12968342372E+01  0.49097598596E+01  0.51100000000E-03 0. -1.
        -12    1    3    3    0    0 -0.39275779879E+01  0.20680296404E+02 -0.38000525666E+01  0.21390206350E+02  0.00000000000E+00 0.  1.
</event>
<event>
 7    1  0.2250716E-008  0.4614232E+02  0.7816164E-02  0.1320468E+00
        -11   -1    0    0    0    0  0.00000000000E+00  0.00000000000E+00  0.45593999997E+02  0.45594000000E+02  0.51100000000E-03 0.  1.
         11   -1    0    0    0    0 -0.00000000000E+00 -0.00000000000E+00 -0.45593999997E+02  0.45594000000E+02  0.51100000000E-03 0. -1.
    9900012    2    1    2    0    0 -0.24347570993E+02  0.34255084939E+02  0.16214145204E+02  0.46142316942E+02  0.99999925313E+01 0.  0.
         12    1    1    2    0    0  0.24347570993E+02 -0.34255084939E+02 -0.16214145204E+02  0.45045683058E+02  0.00000000000E+00 0. -1.
         11    1    3    3    0    0  0.29576170015E+00  0.14661677593E+01  0.17716585969E+00  0.15061576560E+01  0.51100000000E-03 0. -1.
        -11    1    3    3    0    0 -0.35319827317E+00  0.20585510082E+01  0.23470527014E+01  0.31418207966E+01  0.51100000000E-03 0.  1.
        -12    1    3    3    0    0 -0.24290134420E+02  0.30730366172E+02  0.13689926643E+02  0.41494338489E+02  0.00000000000E+00 0.  1.
</event>
<event>
 7    1  0.2250716E-008  0.4614232E+02  0.7816164E-02  0.1320468E+00
        -11   -1    0    0    0    0  0.00000000000E+00  0.00000000000E+00  0.45593999997E+02  0.45594000000E+02  0.51100000000E-03 0.  1.
         11   -1    0    0    0    0 -0.00000000000E+00 -0.00000000000E+00 -0.45593999997E+02  0.45594000000E+02  0.51100000000E-03 0. -1.
    9900012    2    1    2    0    0 -0.35653530280E+01 -0.15491709170E+01  0.44877632000E+02  0.46142317336E+02  0.99999961237E+01 0.  0.
         12    1    1    2    0    0  0.35653530280E+01  0.15491709170E+01 -0.44877632000E+02  0.45045682664E+02  0.00000000000E+00 0. -1.
         11    1    3    3    0    0 -0.21698887180E+01 -0.75341340601E+00  0.10658182290E+02  0.10902884884E+02  0.51100000000E-03 0. -1.
        -11    1    3    3    0    0 -0.26931128705E+01  0.12091316469E+01  0.31425642375E+02  0.31563996186E+02  0.51100000000E-03 0.  1.
         12    1    3    3    0    0  0.12976485605E+01 -0.20048891579E+01  0.27938073351E+01  0.36754362663E+01  0.00000000000E+00 0. -1.
</event>
<event>
 7    1  0.2250716E-008  0.4614232E+02  0.7816164E-02  0.1320468E+00
        -11   -1    0    0    0    0  0.00000000000E+00  0.00000000000E+00  0.45593999997E+02  0.45594000000E+02  0.51100000000E-03 0.  1.
         11   -1    0    0    0    0 -0.00000000000E+00 -0.00000000000E+00 -0.45593999997E+02  0.45594000000E+02  0.51100000000E-03 0. -1.
    9900012    2    1    2    0    0 -0.41417605925E+02  0.17516673135E+02  0.26194829920E+01  0.46142316418E+02  0.99999877479E+01 0.  0.
         12    1    1    2    0    0  0.41417605925E+02 -0.17516673135E+02 -0.26194829920E+01  0.45045683582E+02  0.00000000000E+00 0. -1.
         11    1    3    3    0    0 -0.93946833710E+01  0.18066318887E+01  0.30133831008E+01  0.10030178084E+02  0.51100000000E-03 0. -1.
        -11    1    3    3    0    0 -0.32188992275E+02  0.15414932230E+02 -0.14173486011E+00  0.35689934833E+02  0.51100000000E-03 0.  1.
         12    1    3    3    0    0  0.16606972082E+00  0.29510901615E+00 -0.25216524870E+00  0.42220350098E+00  0.00000000000E+00 0. -1.
</event>
<event>
 7    1  0.2250716E-008  0.4614232E+02  0.7816164E-02  0.1320468E+00
        -11   -1    0    0    0    0  0.00000000000E+00  0.00000000000E+00  0.45593999997E+02  0.45594000000E+02  0.51100000000E-03 0.  1.
         11   -1    0    0    0    0 -0.00000000000E+00 -0.00000000000E+00 -0.45593999997E+02  0.45594000000E+02  0.51100000000E-03 0. -1.
    9900012    2    1    2    0    0 -0.40065775383E+02  0.13064691556E+02  0.15911034969E+02  0.46142317007E+02  0.99999931227E+01 0.  0.
         12    1    1    2    0    0  0.40065775383E+02 -0.13064691556E+02 -0.15911034969E+02  0.45045682993E+02  0.00000000000E+00 0. -1.
         11    1    3    3    0    0 -0.16905096663E+02  0.36775589527E+01  0.56135833993E+01  0.18188431814E+02  0.51100000000E-03 0. -1.
        -11    1    3    3    0    0 -0.17304974335E+02  0.72645308161E+01  0.10887752181E+02  0.21697435160E+02  0.51100000000E-03 0.  1.
         12    1    3    3    0    0 -0.58557043859E+01  0.21226017870E+01 -0.59030061059E+00  0.62564500328E+01  0.00000000000E+00 0. -1.
</event>
<event>
 7    1  0.2250716E-008  0.4614232E+02  0.7816164E-02  0.1320468E+00
        -11   -1    0    0    0    0  0.00000000000E+00  0.00000000000E+00  0.45593999997E+02  0.45594000000E+02  0.51100000000E-03 0.  1.
         11   -1    0    0    0    0 -0.00000000000E+00 -0.00000000000E+00 -0.45593999997E+02  0.45594000000E+02  0.51100000000E-03 0. -1.
    9900012    2    1    2    0    0  0.44478711950E+01 -0.44022647090E+02  0.84460751032E+01  0.46142320966E+02  0.10000029221E+02 0.  0.
         12    1    1    2    0    0 -0.44478711950E+01  0.44022647090E+02 -0.84460751032E+01  0.45045679034E+02  0.00000000000E+00 0. -1.
         11    1    3    3    0    0  0.88502671555E+00 -0.20962008521E+01 -0.12472617015E+01  0.25948010160E+01  0.51100000000E-03 0. -1.
        -11    1    3    3    0    0  0.12507168342E+01 -0.30985309822E+02  0.49619283706E+01  0.31405006779E+02  0.51100000000E-03 0.  1.
         12    1    3    3    0    0  0.23121276452E+01 -0.10941136416E+02  0.47314084341E+01  0.12142513170E+02  0.00000000000E+00 0. -1.
</event>
<event>
 7    1  0.2250716E-008  0.4614232E+02  0.7816164E-02  0.1320468E+00
        -11   -1    0    0    0    0  0.00000000000E+00  0.00000000000E+00  0.45593999997E+02  0.45594000000E+02  0.51100000000E-03 0.  1.
         11   -1    0    0    0    0 -0.00000000000E+00 -0.00000000000E+00 -0.45593999997E+02  0.45594000000E+02  0.51100000000E-03 0. -1.
    9900012    2    1    2    0    0 -0.20163808037E+02 -0.39339330090E+02  0.86574523831E+01  0.46142317318E+02  0.99999959611E+01 0.  0.
         12    1    1    2    0    0  0.20163808037E+02  0.39339330090E+02 -0.86574523831E+01  0.45045682682E+02  0.00000000000E+00 0. -1.
         11    1    3    3    0    0 -0.67876197983E+01 -0.14709589134E+02  0.75174275423E+01  0.17859325635E+02  0.51100000000E-03 0.  1.
        -11    1    3    3    0    0 -0.19286297328E+01 -0.68162194915E+01  0.16017518859E+00  0.70856275060E+01  0.51100000000E-03 0. -1.
         12    1    3    3    0    0 -0.11447558506E+02 -0.17813521464E+02  0.97984965222E+00  0.21197364177E+02  0.00000000000E+00 0. -1.
</event>
<event>
 7    1  0.2250716E-008  0.4614232E+02  0.7816164E-02  0.1320468E+00
        -11   -1    0    0    0    0  0.00000000000E+00  0.00000000000E+00  0.45593999997E+02  0.45594000000E+02  0.51100000000E-03 0.  1.
         11   -1    0    0    0    0 -0.00000000000E+00 -0.00000000000E+00 -0.45593999997E+02  0.45594000000E+02  0.51100000000E-03 0. -1.
    9900012    2    1    2    0    0 -0.31407644672E+02 -0.31759102409E+02  0.58337564378E+01  0.46142318255E+02  0.10000004504E+02 0.  0.
         12    1    1    2    0    0  0.31407644672E+02  0.31759102409E+02 -0.58337564378E+01  0.45045681745E+02  0.00000000000E+00 0. -1.
         11    1    3    3    0    0  0.14735720786E+00 -0.10251316304E+01  0.15642419546E+01  0.18760229636E+01  0.51100000000E-03 0. -1.
        -11    1    3    3    0    0 -0.14288942945E+02 -0.13847586196E+02  0.14360526769E+01  0.19949731364E+02  0.51100000000E-03 0.  1.
         12    1    3    3    0    0 -0.17266058935E+02 -0.16886384583E+02  0.28334618063E+01  0.24316563927E+02  0.00000000000E+00 0. -1.
</event>
<event>
 7    1  0.2250716E-008  0.4614232E+02  0.7816164E-02  0.1320468E+00
        -11   -1    0    0    0    0  0.00000000000E+00  0.00000000000E+00  0.45593999997E+02  0.45594000000E+02  0.51100000000E-03 0.  1.
         11   -1    0    0    0    0 -0.00000000000E+00 -0.00000000000E+00 -0.45593999997E+02  0.45594000000E+02  0.51100000000E-03 0. -1.
    9900012    2    1    2    0    0 -0.27851370449E+02 -0.31135860766E+02  0.16851497025E+02  0.46142316372E+02  0.99999873354E+01 0.  0.
         12    1    1    2    0    0  0.27851370449E+02  0.31135860766E+02 -0.16851497025E+02  0.45045683628E+02  0.00000000000E+00 0. -1.
         11    1    3    3    0    0 -0.38461419286E+01 -0.29137075107E+01  0.11603203287E+01  0.49627454820E+01  0.51100000000E-03 0. -1.
        -11    1    3    3    0    0 -0.20890713829E+02 -0.19553034657E+02  0.13834760060E+02  0.31782757507E+02  0.51100000000E-03 0.  1.
         12    1    3    3    0    0 -0.31145146914E+01 -0.86691185981E+01  0.18564166364E+01  0.93968133832E+01  0.00000000000E+00 0. -1.
</event>
<event>
 7    1  0.2250716E-008  0.4614232E+02  0.7816164E-02  0.1320468E+00
        -11   -1    0    0    0    0  0.00000000000E+00  0.00000000000E+00  0.45593999997E+02  0.45594000000E+02  0.51100000000E-03 0. -1.
         11   -1    0    0    0    0 -0.00000000000E+00 -0.00000000000E+00 -0.45593999997E+02  0.45594000000E+02  0.51100000000E-03 0.  1.
    9900012    2    1    2    0    0  0.90810175074E+01  0.38472424691E+02 -0.21599102695E+02  0.46142316769E+02  0.99999909487E+01 0.  0.
         12    1    1    2    0    0 -0.90810175074E+01 -0.38472424691E+02  0.21599102695E+02  0.45045683231E+02  0.00000000000E+00 0. -1.
         11    1    3    3    0    0 -0.84619100683E+00  0.25505013803E+01 -0.20999159157E+00  0.26954022409E+01  0.51100000000E-03 0. -1.
        -11    1    3    3    0    0  0.40723355533E+01  0.25566908371E+02 -0.13813645854E+02  0.29343952231E+02  0.51100000000E-03 0.  1.
        -12    1    3    3    0    0  0.58548729609E+01  0.10355014940E+02 -0.75754652491E+01  0.14102962296E+02  0.00000000000E+00 0.  1.
</event>
<event>
 7    1  0.2250716E-008  0.4614232E+02  0.7816164E-02  0.1320468E+00
        -11   -1    0    0    0    0  0.00000000000E+00  0.00000000000E+00  0.45593999997E+02  0.45594000000E+02  0.51100000000E-03 0.  1.
         11   -1    0    0    0    0 -0.00000000000E+00 -0.00000000000E+00 -0.45593999997E+02  0.45594000000E+02  0.51100000000E-03 0. -1.
    9900012    2    1    2    0    0  0.29491766640E+02  0.18810127010E+02  0.28381831333E+02  0.46142317327E+02  0.99999960417E+01 0.  0.
         12    1    1    2    0    0 -0.29491766640E+02 -0.18810127010E+02 -0.28381831333E+02  0.45045682673E+02  0.00000000000E+00 0. -1.
         11    1    3    3    0    0  0.10712668945E+02  0.97518082671E+01  0.17064747995E+02  0.22384473744E+02  0.51100000000E-03 0. -1.
        -11    1    3    3    0    0  0.49668430305E+01  0.30344022371E+01  0.31842959500E+01  0.66345209009E+01  0.51100000000E-03 0.  1.
         12    1    3    3    0    0  0.13812254665E+02  0.60239165060E+01  0.81327873881E+01  0.17123322683E+02  0.00000000000E+00 0. -1.
</event>
<event>
 7    1  0.2250716E-008  0.4614232E+02  0.7816164E-02  0.1320468E+00
        -11   -1    0    0    0    0  0.00000000000E+00  0.00000000000E+00  0.45593999997E+02  0.45594000000E+02  0.51100000000E-03 0.  1.
         11   -1    0    0    0    0 -0.00000000000E+00 -0.00000000000E+00 -0.45593999997E+02  0.45594000000E+02  0.51100000000E-03 0. -1.
    9900012    2    1    2    0    0  0.17065281145E+02  0.21728812345E+02  0.35577357492E+02  0.46142317936E+02  0.10000001597E+02 0.  0.
         12    1    1    2    0    0 -0.17065281145E+02 -0.21728812345E+02 -0.35577357492E+02  0.45045682064E+02  0.00000000000E+00 0. -1.
         11    1    3    3    0    0  0.61467339407E+00 -0.41323437911E+00  0.24818199898E+00  0.78114057582E+00  0.51100000000E-03 0. -1.
        -11    1    3    3    0    0  0.67190220013E+01  0.46869959521E+01  0.13274829491E+02  0.15599175811E+02  0.51100000000E-03 0.  1.
         12    1    3    3    0    0  0.97315857492E+01  0.17455050772E+02  0.22054346002E+02  0.29762001549E+02  0.00000000000E+00 0. -1.
</event>
<event>
 7    1  0.2250716E-008  0.4614232E+02  0.7816164E-02  0.1320468E+00
        -11   -1    0    0    0    0  0.00000000000E+00  0.00000000000E+00  0.45593999997E+02  0.45594000000E+02  0.51100000000E-03 0.  1.
         11   -1    0    0    0    0 -0.00000000000E+00 -0.00000000000E+00 -0.45593999997E+02  0.45594000000E+02  0.51100000000E-03 0. -1.
    9900012    2    1    2    0    0 -0.45944083318E+01  0.43466640943E+02  0.10892931467E+02  0.46142318534E+02  0.10000007048E+02 0.  0.
         12    1    1    2    0    0  0.45944083318E+01 -0.43466640943E+02 -0.10892931467E+02  0.45045681466E+02  0.00000000000E+00 0. -1.
         11    1    3    3    0    0  0.22381671345E+00  0.20569658422E+00  0.22086572341E+00  0.37574849950E+00  0.51100000000E-03 0. -1.
        -11    1    3    3    0    0  0.25847692021E-01  0.23116468894E+02  0.16700772351E+01  0.23176733171E+02  0.51100000000E-03 0.  1.
        -12    1    3    3    0    0 -0.48440727373E+01  0.20144475465E+02  0.90019885080E+01  0.22589836864E+02  0.00000000000E+00 0.  1.
</event>
<event>
 7    1  0.2250716E-008  0.4614232E+02  0.7816164E-02  0.1320468E+00
        -11   -1    0    0    0    0  0.00000000000E+00  0.00000000000E+00  0.45593999997E+02  0.45594000000E+02  0.51100000000E-03 0.  1.
         11   -1    0    0    0    0 -0.00000000000E+00 -0.00000000000E+00 -0.45593999997E+02  0.45594000000E+02  0.51100000000E-03 0. -1.
    9900012    2    1    2    0    0  0.38228945315E+02 -0.21561931771E+02  0.10136282642E+02  0.46142318882E+02  0.10000010217E+02 0.  0.
         12    1    1    2    0    0 -0.38228945315E+02  0.21561931771E+02 -0.10136282642E+02  0.45045681118E+02  0.00000000000E+00 0. -1.
         11    1    3    3    0    0  0.63150606071E+01 -0.16518693308E+01 -0.51236877060E+00  0.65476090885E+01  0.51100000000E-03 0. -1.
        -11    1    3    3    0    0  0.22777937854E+01  0.21889067936E+00  0.32442445568E+00  0.23111705144E+01  0.51100000000E-03 0.  1.
         12    1    3    3    0    0  0.29636090923E+02 -0.20128953120E+02  0.10324226957E+02  0.37283539279E+02  0.00000000000E+00 0. -1.
</event>
<event>
 7    1  0.2250716E-008  0.4614232E+02  0.7816164E-02  0.1320468E+00
        -11   -1    0    0    0    0  0.00000000000E+00  0.00000000000E+00  0.45593999997E+02  0.45594000000E+02  0.51100000000E-03 0.  1.
         11   -1    0    0    0    0 -0.00000000000E+00 -0.00000000000E+00 -0.45593999997E+02  0.45594000000E+02  0.51100000000E-03 0. -1.
    9900012    2    1    2    0    0 -0.75369467568E+01  0.44149586205E+02  0.48085234461E+01  0.46142318451E+02  0.10000006286E+02 0.  0.
         12    1    1    2    0    0  0.75369467568E+01 -0.44149586205E+02 -0.48085234461E+01  0.45045681549E+02  0.00000000000E+00 0. -1.
         11    1    3    3    0    0 -0.54868220092E+01  0.27517971603E+02  0.40531473614E+01  0.28350872662E+02  0.51100000000E-03 0.  1.
        -11    1    3    3    0    0 -0.22861206443E+01  0.35487220221E+01  0.19539729901E+01  0.46516433976E+01  0.51100000000E-03 0. -1.
        -12    1    3    3    0    0  0.23599589667E+00  0.13082892581E+02 -0.11985969054E+01  0.13139802391E+02  0.00000000000E+00 0.  1.
</event>
<event>
 7    1  0.2250716E-008  0.4614231E+02  0.7816164E-02  0.1320468E+00
        -11   -1    0    0    0    0  0.00000000000E+00  0.00000000000E+00  0.45593999997E+02  0.45594000000E+02  0.51100000000E-03 0.  1.
         11   -1    0    0    0    0 -0.00000000000E+00 -0.00000000000E+00 -0.45593999997E+02  0.45594000000E+02  0.51100000000E-03 0. -1.
    9900012    2    1    2    0    0 -0.17770229432E+02 -0.44444423799E+00  0.41390045863E+02  0.46142306740E+02  0.99998994979E+01 0.  0.
         12    1    1    2    0    0  0.17770229432E+02  0.44444423799E+00 -0.41390045863E+02  0.45045693260E+02  0.00000000000E+00 0. -1.
         11    1    3    3    0    0 -0.86426827258E+01  0.26680005519E+01  0.16663018933E+02  0.18959704424E+02  0.51100000000E-03 0. -1.
        -11    1    3    3    0    0 -0.42732542509E+01 -0.44659030756E+01  0.12105628809E+02  0.13592322881E+02  0.51100000000E-03 0.  1.
        -12    1    3    3    0    0 -0.48542924551E+01  0.13534582857E+01  0.12621398121E+02  0.13590279435E+02  0.00000000000E+00 0.  1.
</event>
<event>
 7    1  0.2250716E-008  0.4614232E+02  0.7816164E-02  0.1320468E+00
        -11   -1    0    0    0    0  0.00000000000E+00  0.00000000000E+00  0.45593999997E+02  0.45594000000E+02  0.51100000000E-03 0.  1.
         11   -1    0    0    0    0 -0.00000000000E+00 -0.00000000000E+00 -0.45593999997E+02  0.45594000000E+02  0.51100000000E-03 0. -1.
    9900012    2    1    2    0    0  0.37384669986E+02 -0.23494952152E+02  0.89155576238E+01  0.46142317695E+02  0.99999993946E+01 0.  0.
         12    1    1    2    0    0 -0.37384669986E+02  0.23494952152E+02 -0.89155576238E+01  0.45045682305E+02  0.00000000000E+00 0. -1.
         11    1    3    3    0    0  0.60568100177E+01 -0.51926934299E+01  0.26646740371E+01  0.84112722363E+01  0.51100000000E-03 0. -1.
        -11    1    3    3    0    0  0.31571975134E+02 -0.18204584345E+02  0.54022944067E+01  0.36842655851E+02  0.51100000000E-03 0.  1.
        -12    1    3    3    0    0 -0.24411516544E+00 -0.97674376814E-01  0.84858918010E+00  0.88838960736E+00  0.00000000000E+00 0.  1.
</event>
<event>
 7    1  0.2250716E-008  0.4614232E+02  0.7816164E-02  0.1320468E+00
        -11   -1    0    0    0    0  0.00000000000E+00  0.00000000000E+00  0.45593999997E+02  0.45594000000E+02  0.51100000000E-03 0. -1.
         11   -1    0    0    0    0 -0.00000000000E+00 -0.00000000000E+00 -0.45593999997E+02  0.45594000000E+02  0.51100000000E-03 0.  1.
    9900012    2    1    2    0    0  0.17997312135E+02 -0.55567005374E+00 -0.41290452903E+02  0.46142317474E+02  0.99999973795E+01 0.  0.
         12    1    1    2    0    0 -0.17997312135E+02  0.55567005374E+00  0.41290452903E+02  0.45045682526E+02  0.00000000000E+00 0. -1.
         11    1    3    3    0    0  0.65877415811E+01 -0.18279783655E+01 -0.68754724214E+01  0.96959767596E+01  0.51100000000E-03 0. -1.
        -11    1    3    3    0    0  0.92639514767E+01 -0.28418909978E+00 -0.24898615388E+02  0.26567698601E+02  0.51100000000E-03 0.  1.
         12    1    3    3    0    0  0.21456190775E+01  0.15564974115E+01 -0.95163650933E+01  0.98786421135E+01  0.00000000000E+00 0. -1.
</event>
<event>
 7    1  0.2250716E-008  0.4614232E+02  0.7816164E-02  0.1320468E+00
        -11   -1    0    0    0    0  0.00000000000E+00  0.00000000000E+00  0.45593999997E+02  0.45594000000E+02  0.51100000000E-03 0. -1.
         11   -1    0    0    0    0 -0.00000000000E+00 -0.00000000000E+00 -0.45593999997E+02  0.45594000000E+02  0.51100000000E-03 0.  1.
    9900012    2    1    2    0    0 -0.11511559082E+02 -0.38828982817E+02 -0.19720741473E+02  0.46142317151E+02  0.99999944366E+01 0.  0.
         12    1    1    2    0    0  0.11511559082E+02  0.38828982817E+02  0.19720741473E+02  0.45045682849E+02  0.00000000000E+00 0. -1.
         11    1    3    3    0    0 -0.55925000437E+01 -0.24988044967E+02 -0.10908414911E+02  0.27832929492E+02  0.51100000000E-03 0.  1.
        -11    1    3    3    0    0 -0.38725988713E+01 -0.13408594368E+02 -0.77299403978E+01  0.15954291077E+02  0.51100000000E-03 0. -1.
         12    1    3    3    0    0 -0.20464601665E+01 -0.43234348164E+00 -0.10823861648E+01  0.23550965817E+01  0.00000000000E+00 0. -1.
</event>
<event>
 7    1  0.2250716E-008  0.4614232E+02  0.7816164E-02  0.1320468E+00
        -11   -1    0    0    0    0  0.00000000000E+00  0.00000000000E+00  0.45593999997E+02  0.45594000000E+02  0.51100000000E-03 0.  1.
         11   -1    0    0    0    0 -0.00000000000E+00 -0.00000000000E+00 -0.45593999997E+02  0.45594000000E+02  0.51100000000E-03 0. -1.
    9900012    2    1    2    0    0 -0.84926148675E+01 -0.38408884389E+02  0.21948727325E+02  0.46142317205E+02  0.99999949265E+01 0.  0.
         12    1    1    2    0    0  0.84926148675E+01  0.38408884389E+02 -0.21948727325E+02  0.45045682795E+02  0.00000000000E+00 0. -1.
         11    1    3    3    0    0 -0.18820220943E+01 -0.90830855086E+01  0.63169358953E+01  0.11222661399E+02  0.51100000000E-03 0. -1.
        -11    1    3    3    0    0 -0.56088397605E+01 -0.27765804613E+02  0.16595695729E+02  0.32830109751E+02  0.51100000000E-03 0.  1.
        -12    1    3    3    0    0 -0.10017530128E+01 -0.15599942677E+01 -0.96390429980E+00  0.20895460543E+01  0.00000000000E+00 0.  1.
</event>
<event>
 7    1  0.2250716E-008  0.4614232E+02  0.7816164E-02  0.1320468E+00
        -11   -1    0    0    0    0  0.00000000000E+00  0.00000000000E+00  0.45593999997E+02  0.45594000000E+02  0.51100000000E-03 0.  1.
         11   -1    0    0    0    0 -0.00000000000E+00 -0.00000000000E+00 -0.45593999997E+02  0.45594000000E+02  0.51100000000E-03 0. -1.
    9900012    2    1    2    0    0  0.86709578246E+01  0.21292545304E+02  0.38737003059E+02  0.46142318730E+02  0.10000008836E+02 0.  0.
         12    1    1    2    0    0 -0.86709578246E+01 -0.21292545304E+02 -0.38737003059E+02  0.45045681270E+02  0.00000000000E+00 0. -1.
         11    1    3    3    0    0 -0.66768032306E+00  0.15719429513E+01  0.26097085887E+01  0.31188749310E+01  0.51100000000E-03 0. -1.
        -11    1    3    3    0    0  0.61722715107E+01  0.16214628288E+02  0.21356965845E+02  0.27516015273E+02  0.51100000000E-03 0.  1.
        -12    1    3    3    0    0  0.31663666370E+01  0.35059740645E+01  0.14770328625E+02  0.15507428526E+02  0.00000000000E+00 0.  1.
</event>
<event>
 7    1  0.2250716E-008  0.4614232E+02  0.7816164E-02  0.1320468E+00
        -11   -1    0    0    0    0  0.00000000000E+00  0.00000000000E+00  0.45593999997E+02  0.45594000000E+02  0.51100000000E-03 0.  1.
         11   -1    0    0    0    0 -0.00000000000E+00 -0.00000000000E+00 -0.45593999997E+02  0.45594000000E+02  0.51100000000E-03 0. -1.
    9900012    2    1    2    0    0  0.36039255358E+02 -0.26943128647E+02 -0.20864529098E+01  0.46142318811E+02  0.10000009574E+02 0.  0.
         12    1    1    2    0    0 -0.36039255358E+02  0.26943128647E+02  0.20864529098E+01  0.45045681189E+02  0.00000000000E+00 0. -1.
         11    1    3    3    0    0  0.12124265610E+02 -0.71420545858E+01 -0.32141598515E+01  0.14433903980E+02  0.51100000000E-03 0. -1.
        -11    1    3    3    0    0  0.21660896631E+02 -0.16407210437E+02  0.27731135158E+01  0.27314486194E+02  0.51100000000E-03 0.  1.
        -12    1    3    3    0    0  0.22540931166E+01 -0.33938636240E+01 -0.16454065741E+01  0.43939286374E+01  0.00000000000E+00 0.  1.
</event>
<event>
 7    1  0.2250716E-008  0.4614232E+02  0.7816164E-02  0.1320468E+00
        -11   -1    0    0    0    0  0.00000000000E+00  0.00000000000E+00  0.45593999997E+02  0.45594000000E+02  0.51100000000E-03 0.  1.
         11   -1    0    0    0    0 -0.00000000000E+00 -0.00000000000E+00 -0.45593999997E+02  0.45594000000E+02  0.51100000000E-03 0. -1.
    9900012    2    1    2    0    0 -0.41152700335E+02 -0.15817557447E+02  0.92397917096E+01  0.46142316308E+02  0.99999867507E+01 0.  0.
         12    1    1    2    0    0  0.41152700335E+02  0.15817557447E+02 -0.92397917096E+01  0.45045683692E+02  0.00000000000E+00 0. -1.
         11    1    3    3    0    0 -0.40806871549E+01 -0.13046312394E+01 -0.15108558839E+01  0.45427696497E+01  0.51100000000E-03 0. -1.
        -11    1    3    3    0    0 -0.34131763208E+02 -0.12156814320E+02  0.85179322371E+01  0.37219894733E+02  0.51100000000E-03 0.  1.
         12    1    3    3    0    0 -0.29402499722E+01 -0.23561118875E+01  0.22327153565E+01  0.43796519255E+01  0.00000000000E+00 0. -1.
</event>
<event>
 7    1  0.2250716E-008  0.4614232E+02  0.7816164E-02  0.1320468E+00
        -11   -1    0    0    0    0  0.00000000000E+00  0.00000000000E+00  0.45593999997E+02  0.45594000000E+02  0.51100000000E-03 0.  1.
         11   -1    0    0    0    0 -0.00000000000E+00 -0.00000000000E+00 -0.45593999997E+02  0.45594000000E+02  0.51100000000E-03 0. -1.
    9900012    2    1    2    0    0 -0.94264144459E+01 -0.42264961694E+02  0.12406821140E+02  0.46142317776E+02  0.10000000132E+02 0.  0.
         12    1    1    2    0    0  0.94264144459E+01  0.42264961694E+02 -0.12406821140E+02  0.45045682224E+02  0.00000000000E+00 0. -1.
         11    1    3    3    0    0 -0.15155102398E+01 -0.11234526761E+01  0.15872676537E+01  0.24654281713E+01  0.51100000000E-03 0. -1.
        -11    1    3    3    0    0 -0.13687758751E+01 -0.19866793714E+02  0.69072965133E+01  0.21077803142E+02  0.51100000000E-03 0.  1.
        -12    1    3    3    0    0 -0.65421283310E+01 -0.21274715303E+02  0.39122569728E+01  0.22599086463E+02  0.00000000000E+00 0.  1.
</event>
<event>
 7    1  0.2250716E-008  0.4614232E+02  0.7816164E-02  0.1320468E+00
        -11   -1    0    0    0    0  0.00000000000E+00  0.00000000000E+00  0.45593999997E+02  0.45594000000E+02  0.51100000000E-03 0. -1.
         11   -1    0    0    0    0 -0.00000000000E+00 -0.00000000000E+00 -0.45593999997E+02  0.45594000000E+02  0.51100000000E-03 0.  1.
    9900012    2    1    2    0    0  0.16608180418E+01  0.41390204416E+01 -0.44824364567E+02  0.46142318014E+02  0.10000002306E+02 0.  0.
         12    1    1    2    0    0 -0.16608180418E+01 -0.41390204416E+01  0.44824364567E+02  0.45045681986E+02  0.00000000000E+00 0. -1.
         11    1    3    3    0    0  0.19209873794E+01  0.20259789908E+01 -0.31311763757E+01  0.41951220650E+01  0.51100000000E-03 0. -1.
        -11    1    3    3    0    0 -0.94335914063E+00  0.12448358832E+01 -0.50199876708E+01  0.52573585877E+01  0.51100000000E-03 0.  1.
        -12    1    3    3    0    0  0.68318980302E+00  0.86820556757E+00 -0.36673200520E+02  0.36689837361E+02  0.00000000000E+00 0.  1.
</event>
<event>
 7    1  0.2250716E-008  0.4614232E+02  0.7816164E-02  0.1320468E+00
        -11   -1    0    0    0    0  0.00000000000E+00  0.00000000000E+00  0.45593999997E+02  0.45594000000E+02  0.51100000000E-03 0.  1.
         11   -1    0    0    0    0 -0.00000000000E+00 -0.00000000000E+00 -0.45593999997E+02  0.45594000000E+02  0.51100000000E-03 0. -1.
    9900012    2    1    2    0    0  0.34948425442E+01  0.44629183701E+02  0.50135376527E+01  0.46142317387E+02  0.99999965907E+01 0.  0.
         12    1    1    2    0    0 -0.34948425442E+01 -0.44629183701E+02 -0.50135376527E+01  0.45045682613E+02  0.00000000000E+00 0. -1.
         11    1    3    3    0    0  0.14987349023E+01  0.77792374686E+01  0.86278726765E+00  0.79691369690E+01  0.51100000000E-03 0. -1.
        -11    1    3    3    0    0 -0.19982897731E+01  0.26117041059E+02  0.50873762730E+01  0.26682848299E+02  0.51100000000E-03 0.  1.
        -12    1    3    3    0    0  0.39943974149E+01  0.10732905173E+02 -0.93662588798E+00  0.11490332120E+02  0.00000000000E+00 0.  1.
</event>
<event>
 7    1  0.2250716E-008  0.4614232E+02  0.7816164E-02  0.1320468E+00
        -11   -1    0    0    0    0  0.00000000000E+00  0.00000000000E+00  0.45593999997E+02  0.45594000000E+02  0.51100000000E-03 0.  1.
         11   -1    0    0    0    0 -0.00000000000E+00 -0.00000000000E+00 -0.45593999997E+02  0.45594000000E+02  0.51100000000E-03 0. -1.
    9900012    2    1    2    0    0  0.95220174865E+01 -0.22327218671E+02  0.37946539566E+02  0.46142319012E+02  0.10000011408E+02 0.  0.
         12    1    1    2    0    0 -0.95220174865E+01  0.22327218671E+02 -0.37946539566E+02  0.45045680988E+02  0.00000000000E+00 0. -1.
         11    1    3    3    0    0  0.38796848741E+01 -0.71533631648E+01  0.78923094480E+01  0.11336273990E+02  0.51100000000E-03 0. -1.
        -11    1    3    3    0    0  0.44295242809E+01 -0.46279028088E+01  0.73976305956E+01  0.97858626831E+01  0.51100000000E-03 0.  1.
         12    1    3    3    0    0  0.12128083315E+01 -0.10545952697E+02  0.22656599523E+02  0.25020182339E+02  0.00000000000E+00 0. -1.
</event>
<event>
 7    1  0.2250716E-008  0.4614232E+02  0.7816164E-02  0.1320468E+00
        -11   -1    0    0    0    0  0.00000000000E+00  0.00000000000E+00  0.45593999997E+02  0.45594000000E+02  0.51100000000E-03 0.  1.
         11   -1    0    0    0    0 -0.00000000000E+00 -0.00000000000E+00 -0.45593999997E+02  0.45594000000E+02  0.51100000000E-03 0. -1.
    9900012    2    1    2    0    0 -0.15569923505E+02 -0.21410173055E+01  0.42215008644E+02  0.46142318433E+02  0.10000006124E+02 0.  0.
         12    1    1    2    0    0  0.15569923505E+02  0.21410173055E+01 -0.42215008644E+02  0.45045681567E+02  0.00000000000E+00 0. -1.
         11    1    3    3    0    0  0.63373925864E+00 -0.65897463492E+00  0.73141957770E+00  0.11708321302E+01  0.51100000000E-03 0. -1.
        -11    1    3    3    0    0 -0.12857203864E+02 -0.23198618932E+01  0.25875865300E+02  0.28987063592E+02  0.51100000000E-03 0.  1.
        -12    1    3    3    0    0 -0.33464588995E+01  0.83781922266E+00  0.15607723766E+02  0.15984422710E+02  0.00000000000E+00 0.  1.
</event>
<event>
 7    1  0.2250716E-008  0.4614232E+02  0.7816164E-02  0.1320468E+00
        -11   -1    0    0    0    0  0.00000000000E+00  0.00000000000E+00  0.45593999997E+02  0.45594000000E+02  0.51100000000E-03 0.  1.
         11   -1    0    0    0    0 -0.00000000000E+00 -0.00000000000E+00 -0.45593999997E+02  0.45594000000E+02  0.51100000000E-03 0. -1.
    9900012    2    1    2    0    0  0.72731615188E+01 -0.55044068964E+00  0.44451224549E+02  0.46142320659E+02  0.10000026424E+02 0.  0.
         12    1    1    2    0    0 -0.72731615188E+01  0.55044068964E+00 -0.44451224549E+02  0.45045679341E+02  0.00000000000E+00 0. -1.
         11    1    3    3    0    0  0.10608009032E+01 -0.23626895681E+01  0.43494819909E+01  0.50621728933E+01  0.51100000000E-03 0. -1.
        -11    1    3    3    0    0  0.13356216352E+00  0.13154800151E+01  0.20703608781E+02  0.20745788569E+02  0.51100000000E-03 0.  1.
         12    1    3    3    0    0  0.60787984521E+01  0.49676886333E+00  0.19398133776E+02  0.20334359196E+02  0.00000000000E+00 0. -1.
</event>
<event>
 7    1  0.2250716E-008  0.4614232E+02  0.7816164E-02  0.1320468E+00
        -11   -1    0    0    0    0  0.00000000000E+00  0.00000000000E+00  0.45593999997E+02  0.45594000000E+02  0.51100000000E-03 0.  1.
         11   -1    0    0    0    0 -0.00000000000E+00 -0.00000000000E+00 -0.45593999997E+02  0.45594000000E+02  0.51100000000E-03 0. -1.
    9900012    2    1    2    0    0 -0.33960060827E+02  0.99160404183E+01  0.27883686145E+02  0.46142317166E+02  0.99999945721E+01 0.  0.
         12    1    1    2    0    0  0.33960060827E+02 -0.99160404183E+01 -0.27883686145E+02  0.45045682834E+02  0.00000000000E+00 0. -1.
         11    1    3    3    0    0 -0.58052855032E+00 -0.50201435271E-02 -0.56759736593E+00  0.81191479264E+00  0.51100000000E-03 0. -1.
        -11    1    3    3    0    0 -0.25119263527E+02  0.50514284433E+01  0.19325508607E+02  0.32093139651E+02  0.51100000000E-03 0.  1.
        -12    1    3    3    0    0 -0.82602687498E+01  0.48696321186E+01  0.91257749038E+01  0.13237262722E+02  0.00000000000E+00 0.  1.
</event>
<event>
 7    1  0.2250716E-008  0.4614232E+02  0.7816164E-02  0.1320468E+00
        -11   -1    0    0    0    0  0.00000000000E+00  0.00000000000E+00  0.45593999997E+02  0.45594000000E+02  0.51100000000E-03 0. -1.
         11   -1    0    0    0    0 -0.00000000000E+00 -0.00000000000E+00 -0.45593999997E+02  0.45594000000E+02  0.51100000000E-03 0.  1.
    9900012    2    1    2    0    0 -0.20457047118E+01  0.43242980674E+02 -0.12448824944E+02  0.46142317324E+02  0.99999960098E+01 0.  0.
         12    1    1    2    0    0  0.20457047118E+01 -0.43242980674E+02  0.12448824944E+02  0.45045682676E+02  0.00000000000E+00 0. -1.
         11    1    3    3    0    0  0.14503711762E+01  0.10639622826E+02 -0.28584157201E+01  0.11111961624E+02  0.51100000000E-03 0. -1.
        -11    1    3    3    0    0  0.13529638738E+01  0.16972866983E+01  0.36357841364E+00  0.22007914268E+01  0.51100000000E-03 0.  1.
        -12    1    3    3    0    0 -0.48490397619E+01  0.30906071149E+02 -0.99539876371E+01  0.32829564273E+02  0.00000000000E+00 0.  1.
</event>
<event>
 7    1  0.2250716E-008  0.4614232E+02  0.7816164E-02  0.1320468E+00
        -11   -1    0    0    0    0  0.00000000000E+00  0.00000000000E+00  0.45593999997E+02  0.45594000000E+02  0.51100000000E-03 0.  1.
         11   -1    0    0    0    0 -0.00000000000E+00 -0.00000000000E+00 -0.45593999997E+02  0.45594000000E+02  0.51100000000E-03 0. -1.
    9900012    2    1    2    0    0  0.74931624796E+01 -0.17700699357E+02  0.40738817581E+02  0.46142317637E+02  0.99999988667E+01 0.  0.
         12    1    1    2    0    0 -0.74931624796E+01  0.17700699357E+02 -0.40738817581E+02  0.45045682363E+02  0.00000000000E+00 0. -1.
         11    1    3    3    0    0  0.70967666307E+01 -0.12585493859E+02  0.28958147339E+02  0.32362525394E+02  0.51100000000E-03 0. -1.
        -11    1    3    3    0    0 -0.43604344425E+00 -0.17378189695E+01  0.93890478995E+01  0.95584710794E+01  0.51100000000E-03 0.  1.
         12    1    3    3    0    0  0.83243929312E+00 -0.33773865280E+01  0.23916223421E+01  0.42213211632E+01  0.00000000000E+00 0. -1.
</event>
<event>
 7    1  0.2250716E-008  0.4614232E+02  0.7816164E-02  0.1320468E+00
        -11   -1    0    0    0    0  0.00000000000E+00  0.00000000000E+00  0.45593999997E+02  0.45594000000E+02  0.51100000000E-03 0.  1.
         11   -1    0    0    0    0 -0.00000000000E+00 -0.00000000000E+00 -0.45593999997E+02  0.45594000000E+02  0.51100000000E-03 0. -1.
    9900012    2    1    2    0    0  0.19857436809E+02 -0.26961583297E+02  0.30130860257E+02  0.46142317517E+02  0.99999977772E+01 0.  0.
         12    1    1    2    0    0 -0.19857436809E+02  0.26961583297E+02 -0.30130860257E+02  0.45045682483E+02  0.00000000000E+00 0. -1.
         11    1    3    3    0    0  0.57086159424E+00 -0.37226313326E+00 -0.89973555950E-01  0.68742876145E+00  0.51100000000E-03 0. -1.
        -11    1    3    3    0    0  0.17961861698E+02 -0.25450761594E+02  0.30601456517E+02  0.43667137330E+02  0.51100000000E-03 0.  1.
        -12    1    3    3    0    0  0.13247135166E+01 -0.11385585700E+01 -0.38062270409E+00  0.17877514260E+01  0.00000000000E+00 0.  1.
</event>
<event>
 7    1  0.2250716E-008  0.4614232E+02  0.7816164E-02  0.1320468E+00
        -11   -1    0    0    0    0  0.00000000000E+00  0.00000000000E+00  0.45593999997E+02  0.45594000000E+02  0.51100000000E-03 0.  1.
         11   -1    0    0    0    0 -0.00000000000E+00 -0.00000000000E+00 -0.45593999997E+02  0.45594000000E+02  0.51100000000E-03 0. -1.
    9900012    2    1    2    0    0  0.32354898497E+02 -0.21989516729E+02  0.22332379558E+02  0.46142317860E+02  0.10000000902E+02 0.  0.
         12    1    1    2    0    0 -0.32354898497E+02  0.21989516729E+02 -0.22332379558E+02  0.45045682140E+02  0.00000000000E+00 0. -1.
         11    1    3    3    0    0  0.17988660737E+02 -0.97657395537E+01  0.96994565850E+01  0.22650409322E+02  0.51100000000E-03 0. -1.
        -11    1    3    3    0    0  0.13322960532E+01 -0.31579341833E+01  0.40347798801E+00  0.34511383379E+01  0.51100000000E-03 0.  1.
        -12    1    3    3    0    0  0.13033941706E+02 -0.90658429920E+01  0.12229444985E+02  0.20040770200E+02  0.00000000000E+00 0.  1.
</event>
<event>
 7    1  0.2250716E-008  0.4614232E+02  0.7816164E-02  0.1320468E+00
        -11   -1    0    0    0    0  0.00000000000E+00  0.00000000000E+00  0.45593999997E+02  0.45594000000E+02  0.51100000000E-03 0.  1.
         11   -1    0    0    0    0 -0.00000000000E+00 -0.00000000000E+00 -0.45593999997E+02  0.45594000000E+02  0.51100000000E-03 0. -1.
    9900012    2    1    2    0    0 -0.22037543255E+02 -0.42080771348E+00  0.39284643269E+02  0.46142316648E+02  0.99999898516E+01 0.  0.
         12    1    1    2    0    0  0.22037543255E+02  0.42080771348E+00 -0.39284643269E+02  0.45045683352E+02  0.00000000000E+00 0. -1.
         11    1    3    3    0    0 -0.22273678738E+01 -0.20802406326E+01  0.66069280035E+01  0.72759924848E+01  0.51100000000E-03 0. -1.
        -11    1    3    3    0    0 -0.85744982779E+01  0.12212604057E+00  0.20524481527E+02  0.22243904282E+02  0.51100000000E-03 0.  1.
        -12    1    3    3    0    0 -0.11235677104E+02  0.15373068785E+01  0.12153233739E+02  0.16622419882E+02  0.00000000000E+00 0.  1.
</event>
<event>
 7    1  0.2250716E-008  0.4614232E+02  0.7816164E-02  0.1320468E+00
        -11   -1    0    0    0    0  0.00000000000E+00  0.00000000000E+00  0.45593999997E+02  0.45594000000E+02  0.51100000000E-03 0. -1.
         11   -1    0    0    0    0 -0.00000000000E+00 -0.00000000000E+00 -0.45593999997E+02  0.45594000000E+02  0.51100000000E-03 0.  1.
    9900012    2    1    2    0    0 -0.17686203325E+02  0.29240525964E+02 -0.29347969568E+02  0.46142318026E+02  0.10000002419E+02 0.  0.
         12    1    1    2    0    0  0.17686203325E+02 -0.29240525964E+02  0.29347969568E+02  0.45045681974E+02  0.00000000000E+00 0. -1.
         11    1    3    3    0    0 -0.35294734227E+01  0.18394565782E+01 -0.24097439895E+01  0.46527034615E+01  0.51100000000E-03 0. -1.
        -11    1    3    3    0    0 -0.56663992924E+01  0.97874995611E+01 -0.14199677099E+02  0.18153072979E+02  0.51100000000E-03 0.  1.
        -12    1    3    3    0    0 -0.84903306102E+01  0.17613569825E+02 -0.12738548479E+02  0.23336541586E+02  0.00000000000E+00 0.  1.
</event>
<event>
 7    1  0.2250716E-008  0.4614232E+02  0.7816164E-02  0.1320468E+00
        -11   -1    0    0    0    0  0.00000000000E+00  0.00000000000E+00  0.45593999997E+02  0.45594000000E+02  0.51100000000E-03 0.  1.
         11   -1    0    0    0    0 -0.00000000000E+00 -0.00000000000E+00 -0.45593999997E+02  0.45594000000E+02  0.51100000000E-03 0. -1.
    9900012    2    1    2    0    0  0.27961257406E+02 -0.91378429504E+01  0.34114241326E+02  0.46142317069E+02  0.99999936854E+01 0.  0.
         12    1    1    2    0    0 -0.27961257406E+02  0.91378429504E+01 -0.34114241326E+02  0.45045682931E+02  0.00000000000E+00 0. -1.
         11    1    3    3    0    0  0.18629653246E+01 -0.12240691852E+01 -0.19325509303E+00  0.22374836229E+01  0.51100000000E-03 0. -1.
        -11    1    3    3    0    0  0.20643373038E+01 -0.10347008070E+01  0.20005050468E+01  0.30551783855E+01  0.51100000000E-03 0.  1.
        -12    1    3    3    0    0  0.24033954777E+02 -0.68790729582E+01  0.32306991372E+02  0.40849655060E+02  0.00000000000E+00 0.  1.
</event>
<event>
 7    1  0.2250716E-008  0.4614232E+02  0.7816164E-02  0.1320468E+00
        -11   -1    0    0    0    0  0.00000000000E+00  0.00000000000E+00  0.45593999997E+02  0.45594000000E+02  0.51100000000E-03 0.  1.
         11   -1    0    0    0    0 -0.00000000000E+00 -0.00000000000E+00 -0.45593999997E+02  0.45594000000E+02  0.51100000000E-03 0. -1.
    9900012    2    1    2    0    0  0.37612967844E+02  0.24776694650E+02  0.70238718951E+00  0.46142319901E+02  0.10000019516E+02 0.  0.
         12    1    1    2    0    0 -0.37612967844E+02 -0.24776694650E+02 -0.70238718951E+00  0.45045680099E+02  0.00000000000E+00 0. -1.
         11    1    3    3    0    0  0.55963515334E+00  0.62138087040E+00  0.49190367022E+00  0.97019336879E+00  0.51100000000E-03 0. -1.
        -11    1    3    3    0    0  0.35052096531E+02  0.24781086738E+02  0.98032401082E+00  0.42938476528E+02  0.51100000000E-03 0.  1.
        -12    1    3    3    0    0  0.20012361593E+01 -0.62577295796E+00 -0.76984049153E+00  0.22336500045E+01  0.00000000000E+00 0.  1.
</event>
<event>
 7    1  0.2250716E-008  0.4614231E+02  0.7816164E-02  0.1320468E+00
        -11   -1    0    0    0    0  0.00000000000E+00  0.00000000000E+00  0.45593999997E+02  0.45594000000E+02  0.51100000000E-03 0.  1.
         11   -1    0    0    0    0 -0.00000000000E+00 -0.00000000000E+00 -0.45593999997E+02  0.45594000000E+02  0.51100000000E-03 0. -1.
    9900012    2    1    2    0    0 -0.23473562034E+02  0.18292119850E+02  0.33815745431E+02  0.46142307617E+02  0.99999075013E+01 0.  0.
         12    1    1    2    0    0  0.23473562034E+02 -0.18292119850E+02 -0.33815745431E+02  0.45045692383E+02  0.00000000000E+00 0. -1.
         11    1    3    3    0    0 -0.56538103562E+01  0.21255654767E+01  0.63251912347E+01  0.87459501803E+01  0.51100000000E-03 0.  1.
        -11    1    3    3    0    0 -0.32534629348E+01 -0.38267981129E+00  0.29679875371E+01  0.44204541834E+01  0.51100000000E-03 0. -1.
         12    1    3    3    0    0 -0.14566288743E+02  0.16549234185E+02  0.24522566659E+02  0.32975903254E+02  0.00000000000E+00 0. -1.
</event>
<event>
 7    1  0.2250716E-008  0.4614232E+02  0.7816164E-02  0.1320468E+00
        -11   -1    0    0    0    0  0.00000000000E+00  0.00000000000E+00  0.45593999997E+02  0.45594000000E+02  0.51100000000E-03 0.  1.
         11   -1    0    0    0    0 -0.00000000000E+00 -0.00000000000E+00 -0.45593999997E+02  0.45594000000E+02  0.51100000000E-03 0. -1.
    9900012    2    1    2    0    0 -0.24888610788E+02 -0.21488349778E+02  0.30788330131E+02  0.46142318793E+02  0.10000009412E+02 0.  0.
         12    1    1    2    0    0  0.24888610788E+02  0.21488349778E+02 -0.30788330131E+02  0.45045681207E+02  0.00000000000E+00 0. -1.
         11    1    3    3    0    0 -0.16838564336E+01 -0.30260231391E+01  0.11508873537E+01  0.36492095705E+01  0.51100000000E-03 0. -1.
        -11    1    3    3    0    0 -0.12838634607E+02 -0.92657587984E+01  0.11046540117E+02  0.19305721264E+02  0.51100000000E-03 0.  1.
        -12    1    3    3    0    0 -0.10366119747E+02 -0.91965678409E+01  0.18590902660E+02  0.23187387959E+02  0.00000000000E+00 0.  1.
</event>
<event>
 7    1  0.2250716E-008  0.4614232E+02  0.7816164E-02  0.1320468E+00
        -11   -1    0    0    0    0  0.00000000000E+00  0.00000000000E+00  0.45593999997E+02  0.45594000000E+02  0.51100000000E-03 0.  1.
         11   -1    0    0    0    0 -0.00000000000E+00 -0.00000000000E+00 -0.45593999997E+02  0.45594000000E+02  0.51100000000E-03 0. -1.
    9900012    2    1    2    0    0  0.49802770563E+00  0.33095419255E+02  0.30554191834E+02  0.46142318233E+02  0.10000004300E+02 0.  0.
         12    1    1    2    0    0 -0.49802770563E+00 -0.33095419255E+02 -0.30554191834E+02  0.45045681767E+02  0.00000000000E+00 0. -1.
         11    1    3    3    0    0 -0.92607357304E+00  0.15543100586E+01  0.51022202881E+00  0.18798454194E+01  0.51100000000E-03 0. -1.
        -11    1    3    3    0    0 -0.30462411833E+01  0.86421618771E+01  0.79894331536E+01  0.12157203199E+02  0.51100000000E-03 0.  1.
         12    1    3    3    0    0  0.44703424620E+01  0.22898947319E+02  0.22054536652E+02  0.32105269614E+02  0.00000000000E+00 0. -1.
</event>
<event>
 7    1  0.2250716E-008  0.4614232E+02  0.7816164E-02  0.1320468E+00
        -11   -1    0    0    0    0  0.00000000000E+00  0.00000000000E+00  0.45593999997E+02  0.45594000000E+02  0.51100000000E-03 0.  1.
         11   -1    0    0    0    0 -0.00000000000E+00 -0.00000000000E+00 -0.45593999997E+02  0.45594000000E+02  0.51100000000E-03 0. -1.
    9900012    2    1    2    0    0  0.24976390969E+02 -0.37196395046E+02  0.46606474837E+01  0.46142317130E+02  0.99999942468E+01 0.  0.
         12    1    1    2    0    0 -0.24976390969E+02  0.37196395046E+02 -0.46606474837E+01  0.45045682870E+02  0.00000000000E+00 0. -1.
         11    1    3    3    0    0  0.59268279182E+01 -0.38948401633E+01  0.72061778829E+00  0.71285594146E+01  0.51100000000E-03 0. -1.
        -11    1    3    3    0    0  0.13248339590E+02 -0.20429087730E+02 -0.22901070550E-01  0.24348853199E+02  0.51100000000E-03 0.  1.
         12    1    3    3    0    0  0.58012234609E+01 -0.12872467152E+02  0.39629307660E+01  0.14664904517E+02  0.00000000000E+00 0. -1.
</event>
<event>
 7    1  0.2250716E-008  0.4614232E+02  0.7816164E-02  0.1320468E+00
        -11   -1    0    0    0    0  0.00000000000E+00  0.00000000000E+00  0.45593999997E+02  0.45594000000E+02  0.51100000000E-03 0.  1.
         11   -1    0    0    0    0 -0.00000000000E+00 -0.00000000000E+00 -0.45593999997E+02  0.45594000000E+02  0.51100000000E-03 0. -1.
    9900012    2    1    2    0    0  0.40799466132E+02  0.53227661913E+01  0.18335355195E+02  0.46142317336E+02  0.99999961213E+01 0.  0.
         12    1    1    2    0    0 -0.40799466132E+02 -0.53227661913E+01 -0.18335355195E+02  0.45045682664E+02  0.00000000000E+00 0. -1.
         11    1    3    3    0    0  0.29429015196E+02  0.25436638525E+01  0.16084237624E+02  0.33633909398E+02  0.51100000000E-03 0.  1.
        -11    1    3    3    0    0  0.61818372836E+01  0.19038809960E+00 -0.25828725137E+00  0.61901593190E+01  0.51100000000E-03 0. -1.
        -12    1    3    3    0    0  0.51886136520E+01  0.25887142392E+01  0.25094048230E+01  0.63182486187E+01  0.00000000000E+00 0.  1.
</event>
<event>
 7    1  0.2250716E-008  0.4614232E+02  0.7816164E-02  0.1320468E+00
        -11   -1    0    0    0    0  0.00000000000E+00  0.00000000000E+00  0.45593999997E+02  0.45594000000E+02  0.51100000000E-03 0.  1.
         11   -1    0    0    0    0 -0.00000000000E+00 -0.00000000000E+00 -0.45593999997E+02  0.45594000000E+02  0.51100000000E-03 0. -1.
    9900012    2    1    2    0    0 -0.49775732660E+01 -0.36015205661E+02  0.26594025803E+02  0.46142317823E+02  0.10000000563E+02 0.  0.
         12    1    1    2    0    0  0.49775732660E+01  0.36015205661E+02 -0.26594025803E+02  0.45045682177E+02  0.00000000000E+00 0. -1.
         11    1    3    3    0    0 -0.23535105740E+01 -0.88828846595E+01  0.23644287675E+01  0.94886867138E+01  0.51100000000E-03 0. -1.
        -11    1    3    3    0    0 -0.11207405348E+01 -0.15055424020E+02  0.11011843249E+02  0.18686426725E+02  0.51100000000E-03 0.  1.
         12    1    3    3    0    0 -0.15033221572E+01 -0.12076896982E+02  0.13217753786E+02  0.17967204384E+02  0.00000000000E+00 0. -1.
</event>
<event>
 7    1  0.2250716E-008  0.4614232E+02  0.7816164E-02  0.1320468E+00
        -11   -1    0    0    0    0  0.00000000000E+00  0.00000000000E+00  0.45593999997E+02  0.45594000000E+02  0.51100000000E-03 0.  1.
         11   -1    0    0    0    0 -0.00000000000E+00 -0.00000000000E+00 -0.45593999997E+02  0.45594000000E+02  0.51100000000E-03 0. -1.
    9900012    2    1    2    0    0 -0.17141801289E+02  0.26831541241E+02  0.31864406565E+02  0.46142319158E+02  0.10000012736E+02 0.  0.
         12    1    1    2    0    0  0.17141801289E+02 -0.26831541241E+02 -0.31864406565E+02  0.45045680842E+02  0.00000000000E+00 0. -1.
         11    1    3    3    0    0 -0.98102255505E+01  0.15421229460E+02  0.22238713990E+02  0.28785677751E+02  0.51100000000E-03 0. -1.
        -11    1    3    3    0    0 -0.67872794886E+01  0.61641542286E+01  0.61084003118E+01  0.11017101018E+02  0.51100000000E-03 0.  1.
         12    1    3    3    0    0 -0.54429624978E+00  0.52461575527E+01  0.35172922637E+01  0.63395403890E+01  0.00000000000E+00 0. -1.
</event>
<event>
 7    1  0.2250716E-008  0.4614233E+02  0.7816164E-02  0.1320468E+00
        -11   -1    0    0    0    0  0.00000000000E+00  0.00000000000E+00  0.45593999997E+02  0.45594000000E+02  0.51100000000E-03 0.  1.
         11   -1    0    0    0    0 -0.00000000000E+00 -0.00000000000E+00 -0.45593999997E+02  0.45594000000E+02  0.51100000000E-03 0. -1.
    9900012    2    1    2    0    0 -0.14034174619E+02 -0.26884231557E+02  0.33307537810E+02  0.46142333854E+02  0.10000146742E+02 0.  0.
         12    1    1    2    0    0  0.14034174619E+02  0.26884231557E+02 -0.33307537810E+02  0.45045666146E+02  0.00000000000E+00 0. -1.
         11    1    3    3    0    0 -0.92178146427E+01 -0.10152734521E+02  0.12633995251E+02  0.18645749149E+02  0.51100000000E-03 0.  1.
        -11    1    3    3    0    0 -0.64654963080E-01 -0.89425455647E+00  0.36747253012E+01  0.37825226736E+01  0.51100000000E-03 0. -1.
        -12    1    3    3    0    0 -0.47517050129E+01 -0.15837242479E+02  0.16998817257E+02  0.23714062031E+02  0.00000000000E+00 0.  1.
</event>
<event>
 7    1  0.2250716E-008  0.4614232E+02  0.7816164E-02  0.1320468E+00
        -11   -1    0    0    0    0  0.00000000000E+00  0.00000000000E+00  0.45593999997E+02  0.45594000000E+02  0.51100000000E-03 0.  1.
         11   -1    0    0    0    0 -0.00000000000E+00 -0.00000000000E+00 -0.45593999997E+02  0.45594000000E+02  0.51100000000E-03 0. -1.
    9900012    2    1    2    0    0  0.28639428730E+02 -0.94312258296E+01  0.33465631016E+02  0.46142319209E+02  0.10000013204E+02 0.  0.
         12    1    1    2    0    0 -0.28639428730E+02  0.94312258296E+01 -0.33465631016E+02  0.45045680791E+02  0.00000000000E+00 0. -1.
         11    1    3    3    0    0  0.20747047083E+00  0.55060046490E+00  0.15611449575E+01  0.16683460995E+01  0.51100000000E-03 0. -1.
        -11    1    3    3    0    0  0.25666723254E+00 -0.11314290265E+00 -0.39926669963E+00  0.48794829975E+00  0.51100000000E-03 0.  1.
        -12    1    3    3    0    0  0.28175291026E+02 -0.98686833918E+01  0.32303752758E+02  0.43986024810E+02  0.00000000000E+00 0.  1.
</event>
<event>
 7    1  0.2250716E-008  0.4614232E+02  0.7816164E-02  0.1320468E+00
        -11   -1    0    0    0    0  0.00000000000E+00  0.00000000000E+00  0.45593999997E+02  0.45594000000E+02  0.51100000000E-03 0.  1.
         11   -1    0    0    0    0 -0.00000000000E+00 -0.00000000000E+00 -0.45593999997E+02  0.45594000000E+02  0.51100000000E-03 0. -1.
    9900012    2    1    2    0    0 -0.44661434322E+02  0.25948831518E+01  0.52665252917E+01  0.46142318488E+02  0.10000006624E+02 0.  0.
         12    1    1    2    0    0  0.44661434322E+02 -0.25948831518E+01 -0.52665252917E+01  0.45045681512E+02  0.00000000000E+00 0. -1.
         11    1    3    3    0    0 -0.37739796001E+00  0.51850493424E+00 -0.57420733693E+00  0.86080829105E+00  0.51100000000E-03 0. -1.
        -11    1    3    3    0    0 -0.18506244495E+02 -0.18568759582E+01  0.46830879741E+01  0.19179686829E+02  0.51100000000E-03 0.  1.
        -12    1    3    3    0    0 -0.25777791867E+02  0.39332541757E+01  0.11576446545E+01  0.26101823367E+02  0.00000000000E+00 0.  1.
</event>
<event>
 7    1  0.2250716E-008  0.4614232E+02  0.7816164E-02  0.1320468E+00
        -11   -1    0    0    0    0  0.00000000000E+00  0.00000000000E+00  0.45593999997E+02  0.45594000000E+02  0.51100000000E-03 0. -1.
         11   -1    0    0    0    0 -0.00000000000E+00 -0.00000000000E+00 -0.45593999997E+02  0.45594000000E+02  0.51100000000E-03 0.  1.
    9900012    2    1    2    0    0  0.30998185096E+02 -0.12849586734E+02 -0.30051857466E+02  0.46142317681E+02  0.99999992680E+01 0.  0.
         12    1    1    2    0    0 -0.30998185096E+02  0.12849586734E+02  0.30051857466E+02  0.45045682319E+02  0.00000000000E+00 0. -1.
         11    1    3    3    0    0  0.26525703480E+00 -0.62105626894E+00 -0.35836015666E+01  0.36466796723E+01  0.51100000000E-03 0. -1.
        -11    1    3    3    0    0  0.19535676322E+02 -0.76370292468E+01 -0.18808866097E+02  0.28173397189E+02  0.51100000000E-03 0.  1.
         12    1    3    3    0    0  0.11197251739E+02 -0.45915012183E+01 -0.76593898024E+01  0.14322240819E+02  0.00000000000E+00 0. -1.
</event>
<event>
 7    1  0.2250716E-008  0.4614232E+02  0.7816164E-02  0.1320468E+00
        -11   -1    0    0    0    0  0.00000000000E+00  0.00000000000E+00  0.45593999997E+02  0.45594000000E+02  0.51100000000E-03 0.  1.
         11   -1    0    0    0    0 -0.00000000000E+00 -0.00000000000E+00 -0.45593999997E+02  0.45594000000E+02  0.51100000000E-03 0. -1.
    9900012    2    1    2    0    0  0.18433483266E+02 -0.19306569525E+02  0.36284660151E+02  0.46142317693E+02  0.99999993821E+01 0.  0.
         12    1    1    2    0    0 -0.18433483266E+02  0.19306569525E+02 -0.36284660151E+02  0.45045682307E+02  0.00000000000E+00 0. -1.
         11    1    3    3    0    0  0.10619067261E+01 -0.44230655065E+01  0.10925952870E+02  0.11835015874E+02  0.51100000000E-03 0. -1.
        -11    1    3    3    0    0  0.13689662850E+01 -0.20766447306E+00  0.17566271219E+01  0.22367235701E+01  0.51100000000E-03 0.  1.
        -12    1    3    3    0    0  0.16002610255E+02 -0.14675839546E+02  0.23602080160E+02  0.32070578249E+02  0.00000000000E+00 0.  1.
</event>
<event>
 7    1  0.2250716E-008  0.4614232E+02  0.7816164E-02  0.1320468E+00
        -11   -1    0    0    0    0  0.00000000000E+00  0.00000000000E+00  0.45593999997E+02  0.45594000000E+02  0.51100000000E-03 0.  1.
         11   -1    0    0    0    0 -0.00000000000E+00 -0.00000000000E+00 -0.45593999997E+02  0.45594000000E+02  0.51100000000E-03 0. -1.
    9900012    2    1    2    0    0  0.23278121288E+02 -0.11767929489E+02  0.36725445921E+02  0.46142317929E+02  0.10000001530E+02 0.  0.
         12    1    1    2    0    0 -0.23278121288E+02  0.11767929489E+02 -0.36725445921E+02  0.45045682071E+02  0.00000000000E+00 0. -1.
         11    1    3    3    0    0  0.64902929129E+01 -0.68962100968E+01  0.77250112249E+01  0.12221187114E+02  0.51100000000E-03 0. -1.
        -11    1    3    3    0    0  0.86827657967E+01 -0.35333340333E+01  0.14978567586E+02  0.17670097862E+02  0.51100000000E-03 0.  1.
         12    1    3    3    0    0  0.81050625789E+01 -0.13383853585E+01  0.14021867110E+02  0.16251032953E+02  0.00000000000E+00 0. -1.
</event>
<event>
 7    1  0.2250716E-008  0.4614232E+02  0.7816164E-02  0.1320468E+00
        -11   -1    0    0    0    0  0.00000000000E+00  0.00000000000E+00  0.45593999997E+02  0.45594000000E+02  0.51100000000E-03 0.  1.
         11   -1    0    0    0    0 -0.00000000000E+00 -0.00000000000E+00 -0.45593999997E+02  0.45594000000E+02  0.51100000000E-03 0. -1.
    9900012    2    1    2    0    0 -0.38940078816E+02  0.21926858690E+02 -0.56565465674E+01  0.46142318861E+02  0.10000010029E+02 0.  0.
         12    1    1    2    0    0  0.38940078816E+02 -0.21926858690E+02  0.56565465674E+01  0.45045681139E+02  0.00000000000E+00 0. -1.
         11    1    3    3    0    0 -0.19792052770E+02  0.78062363623E+01 -0.72294054757E-01  0.21275993647E+02  0.51100000000E-03 0. -1.
        -11    1    3    3    0    0 -0.12443832065E+02  0.93416000732E+01 -0.13780628690E+01  0.15620931660E+02  0.51100000000E-03 0.  1.
         12    1    3    3    0    0 -0.67041939817E+01  0.47790222547E+01 -0.42061896437E+01  0.92453935543E+01  0.00000000000E+00 0. -1.
</event>
<event>
 7    1  0.2250716E-008  0.4614232E+02  0.7816164E-02  0.1320468E+00
        -11   -1    0    0    0    0  0.00000000000E+00  0.00000000000E+00  0.45593999997E+02  0.45594000000E+02  0.51100000000E-03 0.  1.
         11   -1    0    0    0    0 -0.00000000000E+00 -0.00000000000E+00 -0.45593999997E+02  0.45594000000E+02  0.51100000000E-03 0. -1.
    9900012    2    1    2    0    0 -0.37364448205E+02 -0.25060752639E+02  0.22293931627E+01  0.46142317561E+02  0.99999981731E+01 0.  0.
         12    1    1    2    0    0  0.37364448205E+02  0.25060752639E+02 -0.22293931627E+01  0.45045682439E+02  0.00000000000E+00 0. -1.
         11    1    3    3    0    0 -0.22676734478E+02 -0.12066477267E+02  0.20783708021E+00  0.25688078105E+02  0.51100000000E-03 0. -1.
        -11    1    3    3    0    0 -0.10737635914E+02 -0.12262828748E+02  0.21135105144E+01  0.16435958167E+02  0.51100000000E-03 0.  1.
        -12    1    3    3    0    0 -0.39500778133E+01 -0.73144662496E+00 -0.91954431846E-01  0.40182812885E+01  0.00000000000E+00 0.  1.
</event>
<event>
 7    1  0.2250716E-008  0.4614232E+02  0.7816164E-02  0.1320468E+00
        -11   -1    0    0    0    0  0.00000000000E+00  0.00000000000E+00  0.45593999997E+02  0.45594000000E+02  0.51100000000E-03 0.  1.
         11   -1    0    0    0    0 -0.00000000000E+00 -0.00000000000E+00 -0.45593999997E+02  0.45594000000E+02  0.51100000000E-03 0. -1.
    9900012    2    1    2    0    0  0.12397981285E+02 -0.30525242538E+02  0.30718286330E+02  0.46142317776E+02  0.10000000139E+02 0.  0.
         12    1    1    2    0    0 -0.12397981285E+02  0.30525242538E+02 -0.30718286330E+02  0.45045682224E+02  0.00000000000E+00 0. -1.
         11    1    3    3    0    0  0.99621277738E+01 -0.15759553280E+02  0.20938379817E+02  0.28036106345E+02  0.51100000000E-03 0. -1.
        -11    1    3    3    0    0 -0.53186525011E+00 -0.41787337401E+01  0.22071989020E+01  0.47556727777E+01  0.51100000000E-03 0.  1.
         12    1    3    3    0    0  0.29677187618E+01 -0.10586955518E+02  0.75727076111E+01  0.13350538654E+02  0.00000000000E+00 0. -1.
</event>
<event>
 7    1  0.2250716E-008  0.4614232E+02  0.7816164E-02  0.1320468E+00
        -11   -1    0    0    0    0  0.00000000000E+00  0.00000000000E+00  0.45593999997E+02  0.45594000000E+02  0.51100000000E-03 0.  1.
         11   -1    0    0    0    0 -0.00000000000E+00 -0.00000000000E+00 -0.45593999997E+02  0.45594000000E+02  0.51100000000E-03 0. -1.
    9900012    2    1    2    0    0 -0.97330276174E+01  0.12861771901E+01  0.43962795297E+02  0.46142318201E+02  0.10000004013E+02 0.  0.
         12    1    1    2    0    0  0.97330276174E+01 -0.12861771901E+01 -0.43962795297E+02  0.45045681799E+02  0.00000000000E+00 0. -1.
         11    1    3    3    0    0 -0.18436637452E+00  0.10827680731E+01  0.45356026419E+00  0.11883159658E+01  0.51100000000E-03 0. -1.
        -11    1    3    3    0    0  0.84844511074E+00  0.30038141088E+00  0.30426240604E+01  0.31729559613E+01  0.51100000000E-03 0.  1.
        -12    1    3    3    0    0 -0.10397106354E+02 -0.96972293818E-01  0.40466610973E+02  0.41781046274E+02  0.00000000000E+00 0.  1.
</event>
<event>
 7    1  0.2250716E-008  0.4614231E+02  0.7816164E-02  0.1320468E+00
        -11   -1    0    0    0    0  0.00000000000E+00  0.00000000000E+00  0.45593999997E+02  0.45594000000E+02  0.51100000000E-03 0. -1.
         11   -1    0    0    0    0 -0.00000000000E+00 -0.00000000000E+00 -0.45593999997E+02  0.45594000000E+02  0.51100000000E-03 0.  1.
    9900012    2    1    2    0    0  0.32576770219E+02 -0.12670774351E+02 -0.28413368016E+02  0.46142312498E+02  0.99999520029E+01 0.  0.
         12    1    1    2    0    0 -0.32576770219E+02  0.12670774351E+02  0.28413368016E+02  0.45045687502E+02  0.00000000000E+00 0. -1.
         11    1    3    3    0    0  0.85737437619E+01 -0.63705874289E+01 -0.57549571696E+01  0.12133136386E+02  0.51100000000E-03 0. -1.
        -11    1    3    3    0    0  0.60849596455E+01  0.37656807599E+00 -0.39934773391E+01  0.72880998156E+01  0.51100000000E-03 0.  1.
         12    1    3    3    0    0  0.17918066812E+02 -0.66767549982E+01 -0.18664933507E+02  0.26721076296E+02  0.00000000000E+00 0. -1.
</event>
<event>
 7    1  0.2250716E-008  0.4614232E+02  0.7816164E-02  0.1320468E+00
        -11   -1    0    0    0    0  0.00000000000E+00  0.00000000000E+00  0.45593999997E+02  0.45594000000E+02  0.51100000000E-03 0.  1.
         11   -1    0    0    0    0 -0.00000000000E+00 -0.00000000000E+00 -0.45593999997E+02  0.45594000000E+02  0.51100000000E-03 0. -1.
    9900012    2    1    2    0    0 -0.21010941797E+02 -0.28884049545E+02  0.27447508865E+02  0.46142315010E+02  0.99999749148E+01 0.  0.
         12    1    1    2    0    0  0.21010941797E+02  0.28884049545E+02 -0.27447508865E+02  0.45045684990E+02  0.00000000000E+00 0. -1.
         11    1    3    3    0    0 -0.45810461527E+01 -0.39847246997E+01  0.11684879437E+01  0.61829911144E+01  0.51100000000E-03 0. -1.
        -11    1    3    3    0    0 -0.38530633711E+01 -0.35569339733E+01  0.57897280352E+01  0.78114548974E+01  0.51100000000E-03 0.  1.
         12    1    3    3    0    0 -0.12576832273E+02 -0.21342390872E+02  0.20489292887E+02  0.32147868998E+02  0.00000000000E+00 0. -1.
</event>
<event>
 7    1  0.2250716E-008  0.4614232E+02  0.7816164E-02  0.1320468E+00
        -11   -1    0    0    0    0  0.00000000000E+00  0.00000000000E+00  0.45593999997E+02  0.45594000000E+02  0.51100000000E-03 0.  1.
         11   -1    0    0    0    0 -0.00000000000E+00 -0.00000000000E+00 -0.45593999997E+02  0.45594000000E+02  0.51100000000E-03 0. -1.
    9900012    2    1    2    0    0  0.64347243067E+01 -0.22850191485E+02  0.38282849022E+02  0.46142318109E+02  0.10000003169E+02 0.  0.
         12    1    1    2    0    0 -0.64347243067E+01  0.22850191485E+02 -0.38282849022E+02  0.45045681891E+02  0.00000000000E+00 0. -1.
         11    1    3    3    0    0  0.28673486163E+01 -0.18201259420E+01  0.69425774239E+01  0.77287727408E+01  0.51100000000E-03 0. -1.
        -11    1    3    3    0    0 -0.14461456609E+01 -0.25539301613E+01  0.28678998435E+01  0.41035041507E+01  0.51100000000E-03 0.  1.
         12    1    3    3    0    0  0.50135213514E+01 -0.18476135382E+02  0.28472371755E+02  0.34310041217E+02  0.00000000000E+00 0. -1.
</event>
<event>
 7    1  0.2250716E-008  0.4614232E+02  0.7816164E-02  0.1320468E+00
        -11   -1    0    0    0    0  0.00000000000E+00  0.00000000000E+00  0.45593999997E+02  0.45594000000E+02  0.51100000000E-03 0. -1.
         11   -1    0    0    0    0 -0.00000000000E+00 -0.00000000000E+00 -0.45593999997E+02  0.45594000000E+02  0.51100000000E-03 0.  1.
    9900012    2    1    2    0    0 -0.13999674148E+02  0.35895655457E+01 -0.42664243780E+02  0.46142317029E+02  0.99999933208E+01 0.  0.
         12    1    1    2    0    0  0.13999674148E+02 -0.35895655457E+01  0.42664243780E+02  0.45045682971E+02  0.00000000000E+00 0. -1.
         11    1    3    3    0    0 -0.56721820641E+01 -0.12948039137E+01 -0.82293200572E+01  0.10078287325E+02  0.51100000000E-03 0. -1.
        -11    1    3    3    0    0 -0.25923953776E+01 -0.16872341240E+00 -0.14155756069E+02  0.14392164936E+02  0.51100000000E-03 0.  1.
        -12    1    3    3    0    0 -0.57350967063E+01  0.50530928718E+01 -0.20279167653E+02  0.21671864768E+02  0.00000000000E+00 0.  1.
</event>
<event>
 7    1  0.2250716E-008  0.4614232E+02  0.7816164E-02  0.1320468E+00
        -11   -1    0    0    0    0  0.00000000000E+00  0.00000000000E+00  0.45593999997E+02  0.45594000000E+02  0.51100000000E-03 0. -1.
         11   -1    0    0    0    0 -0.00000000000E+00 -0.00000000000E+00 -0.45593999997E+02  0.45594000000E+02  0.51100000000E-03 0.  1.
    9900012    2    1    2    0    0 -0.19838384866E+01  0.38211787046E+02 -0.23770511106E+02  0.46142317825E+02  0.10000000580E+02 0.  0.
         12    1    1    2    0    0  0.19838384866E+01 -0.38211787046E+02  0.23770511106E+02  0.45045682175E+02  0.00000000000E+00 0. -1.
         11    1    3    3    0    0 -0.72678596747E+00  0.15745759957E+02 -0.71350701130E+01  0.17302207958E+02  0.51100000000E-03 0. -1.
        -11    1    3    3    0    0  0.15531181119E+01  0.11249206863E+02 -0.11582898567E+02  0.16220985494E+02  0.51100000000E-03 0.  1.
        -12    1    3    3    0    0 -0.28101706310E+01  0.11216820226E+02 -0.50525424257E+01  0.12619124372E+02  0.00000000000E+00 0.  1.
</event>
<event>
 7    1  0.2250716E-008  0.4614232E+02  0.7816164E-02  0.1320468E+00
        -11   -1    0    0    0    0  0.00000000000E+00  0.00000000000E+00  0.45593999997E+02  0.45594000000E+02  0.51100000000E-03 0. -1.
         11   -1    0    0    0    0 -0.00000000000E+00 -0.00000000000E+00 -0.45593999997E+02  0.45594000000E+02  0.51100000000E-03 0.  1.
    9900012    2    1    2    0    0 -0.37042864972E+02  0.22234545771E+02  0.12750084788E+02  0.46142317265E+02  0.99999954751E+01 0.  0.
         12    1    1    2    0    0  0.37042864972E+02 -0.22234545771E+02 -0.12750084788E+02  0.45045682735E+02  0.00000000000E+00 0. -1.
         11    1    3    3    0    0 -0.64953704181E+01  0.30508696230E+01  0.41680198286E+01  0.82987970139E+01  0.51100000000E-03 0. -1.
        -11    1    3    3    0    0 -0.21662248842E+02  0.10871380864E+02  0.84738701479E+01  0.25675794483E+02  0.51100000000E-03 0.  1.
        -12    1    3    3    0    0 -0.88852457119E+01  0.83122952844E+01  0.10819481132E+00  0.12167725768E+02  0.00000000000E+00 0.  1.
</event>
<event>
 7    1  0.2250716E-008  0.4614232E+02  0.7816164E-02  0.1320468E+00
        -11   -1    0    0    0    0  0.00000000000E+00  0.00000000000E+00  0.45593999997E+02  0.45594000000E+02  0.51100000000E-03 0.  1.
         11   -1    0    0    0    0 -0.00000000000E+00 -0.00000000000E+00 -0.45593999997E+02  0.45594000000E+02  0.51100000000E-03 0. -1.
    9900012    2    1    2    0    0 -0.10532687123E+02  0.40047463624E+02  0.17730669291E+02  0.46142317918E+02  0.10000001429E+02 0.  0.
         12    1    1    2    0    0  0.10532687123E+02 -0.40047463624E+02 -0.17730669291E+02  0.45045682082E+02  0.00000000000E+00 0. -1.
         11    1    3    3    0    0 -0.54084125631E+01  0.13148865591E+02  0.33334989947E+01  0.14603280747E+02  0.51100000000E-03 0. -1.
        -11    1    3    3    0    0 -0.64780633409E+01  0.20048997406E+02  0.10455794362E+02  0.23521293282E+02  0.51100000000E-03 0.  1.
         12    1    3    3    0    0  0.13537887809E+01  0.68496006268E+01  0.39413759343E+01  0.80177438888E+01  0.00000000000E+00 0. -1.
</event>
<event>
 7    1  0.2250716E-008  0.4614232E+02  0.7816164E-02  0.1320468E+00
        -11   -1    0    0    0    0  0.00000000000E+00  0.00000000000E+00  0.45593999997E+02  0.45594000000E+02  0.51100000000E-03 0.  1.
         11   -1    0    0    0    0 -0.00000000000E+00 -0.00000000000E+00 -0.45593999997E+02  0.45594000000E+02  0.51100000000E-03 0. -1.
    9900012    2    1    2    0    0  0.33107054905E+02  0.27666045140E+02  0.12947042353E+02  0.46142322695E+02  0.10000044988E+02 0.  0.
         12    1    1    2    0    0 -0.33107054905E+02 -0.27666045140E+02 -0.12947042353E+02  0.45045677305E+02  0.00000000000E+00 0. -1.
         11    1    3    3    0    0  0.55621613379E+01  0.35595338968E+01  0.58624041149E+01  0.88303851886E+01  0.51100000000E-03 0. -1.
        -11    1    3    3    0    0  0.33126088559E+01  0.26660130301E+01  0.12702142693E+01  0.44378426583E+01  0.51100000000E-03 0.  1.
        -12    1    3    3    0    0  0.24232284711E+02  0.21440498213E+02  0.58144239688E+01  0.32874094848E+02  0.00000000000E+00 0.  1.
</event>
<event>
 7    1  0.2250716E-008  0.4614232E+02  0.7816164E-02  0.1320468E+00
        -11   -1    0    0    0    0  0.00000000000E+00  0.00000000000E+00  0.45593999997E+02  0.45594000000E+02  0.51100000000E-03 0. -1.
         11   -1    0    0    0    0 -0.00000000000E+00 -0.00000000000E+00 -0.45593999997E+02  0.45594000000E+02  0.51100000000E-03 0.  1.
    9900012    2    1    2    0    0  0.17816065973E+02 -0.27363597868E+02 -0.31031190857E+02  0.46142317621E+02  0.99999987186E+01 0.  0.
         12    1    1    2    0    0 -0.17816065973E+02  0.27363597868E+02  0.31031190857E+02  0.45045682379E+02  0.00000000000E+00 0. -1.
         11    1    3    3    0    0  0.15737205743E+01 -0.84831957973E+01 -0.11144915710E+02  0.14094337651E+02  0.51100000000E-03 0. -1.
        -11    1    3    3    0    0  0.13515516700E+02 -0.15279141814E+02 -0.14549413851E+02  0.25056073314E+02  0.51100000000E-03 0.  1.
         12    1    3    3    0    0  0.27268286986E+01 -0.36012602569E+01 -0.53368612959E+01  0.69919066556E+01  0.00000000000E+00 0. -1.
</event>
<event>
 7    1  0.2250716E-008  0.4614232E+02  0.7816164E-02  0.1320468E+00
        -11   -1    0    0    0    0  0.00000000000E+00  0.00000000000E+00  0.45593999997E+02  0.45594000000E+02  0.51100000000E-03 0. -1.
         11   -1    0    0    0    0 -0.00000000000E+00 -0.00000000000E+00 -0.45593999997E+02  0.45594000000E+02  0.51100000000E-03 0.  1.
    9900012    2    1    2    0    0  0.28459063676E+02  0.17425940703E+02  0.30257756077E+02  0.46142317438E+02  0.99999970548E+01 0.  0.
         12    1    1    2    0    0 -0.28459063676E+02 -0.17425940703E+02 -0.30257756077E+02  0.45045682562E+02  0.00000000000E+00 0. -1.
         11    1    3    3    0    0  0.18459165567E+02  0.14452461187E+02  0.20196497719E+02  0.30943706115E+02  0.51100000000E-03 0. -1.
        -11    1    3    3    0    0  0.55857055363E+01  0.36288558640E+01  0.43705908030E+01  0.79668541751E+01  0.51100000000E-03 0.  1.
         12    1    3    3    0    0  0.44141925722E+01 -0.65537634793E+00  0.56906675548E+01  0.72317571476E+01  0.00000000000E+00 0. -1.
</event>
<event>
 7    1  0.2250716E-008  0.4614232E+02  0.7816164E-02  0.1320468E+00
        -11   -1    0    0    0    0  0.00000000000E+00  0.00000000000E+00  0.45593999997E+02  0.45594000000E+02  0.51100000000E-03 0.  1.
         11   -1    0    0    0    0 -0.00000000000E+00 -0.00000000000E+00 -0.45593999997E+02  0.45594000000E+02  0.51100000000E-03 0. -1.
    9900012    2    1    2    0    0 -0.11301251555E+02  0.36913752752E+02  0.23211421222E+02  0.46142317586E+02  0.99999984068E+01 0.  0.
         12    1    1    2    0    0  0.11301251555E+02 -0.36913752752E+02 -0.23211421222E+02  0.45045682414E+02  0.00000000000E+00 0. -1.
         11    1    3    3    0    0 -0.16938346082E+01  0.56795105091E+01  0.21266481525E+01  0.62967092936E+01  0.51100000000E-03 0. -1.
        -11    1    3    3    0    0 -0.10741696273E+02  0.24259361210E+02  0.18395864213E+02  0.32284802393E+02  0.51100000000E-03 0.  1.
        -12    1    3    3    0    0  0.11342793264E+01  0.69748810334E+01  0.26889088564E+01  0.75608059001E+01  0.00000000000E+00 0.  1.
</event>
<event>
 7    1  0.2250716E-008  0.4614232E+02  0.7816164E-02  0.1320468E+00
        -11   -1    0    0    0    0  0.00000000000E+00  0.00000000000E+00  0.45593999997E+02  0.45594000000E+02  0.51100000000E-03 0.  1.
         11   -1    0    0    0    0 -0.00000000000E+00 -0.00000000000E+00 -0.45593999997E+02  0.45594000000E+02  0.51100000000E-03 0. -1.
    9900012    2    1    2    0    0 -0.84239521749E+01 -0.74401623131E-01  0.44250932243E+02  0.46142317519E+02  0.99999977905E+01 0.  0.
         12    1    1    2    0    0  0.84239521749E+01  0.74401623131E-01 -0.44250932243E+02  0.45045682481E+02  0.00000000000E+00 0. -1.
         11    1    3    3    0    0 -0.12246195237E+00 -0.14087425291E+01  0.39838063680E+01  0.42273237257E+01  0.51100000000E-03 0. -1.
        -11    1    3    3    0    0 -0.18988140592E+00  0.27960238186E+00 -0.34754301238E+00  0.48478742437E+00  0.51100000000E-03 0.  1.
        -12    1    3    3    0    0 -0.81116088167E+01  0.10547385241E+01  0.40614668887E+02  0.41430206369E+02  0.00000000000E+00 0.  1.
</event>
<event>
 7    1  0.2250716E-008  0.4614232E+02  0.7816164E-02  0.1320468E+00
        -11   -1    0    0    0    0  0.00000000000E+00  0.00000000000E+00  0.45593999997E+02  0.45594000000E+02  0.51100000000E-03 0.  1.
         11   -1    0    0    0    0 -0.00000000000E+00 -0.00000000000E+00 -0.45593999997E+02  0.45594000000E+02  0.51100000000E-03 0. -1.
    9900012    2    1    2    0    0 -0.32643372114E+02  0.74988923743E+01  0.30121262915E+02  0.46142316417E+02  0.99999877449E+01 0.  0.
         12    1    1    2    0    0  0.32643372114E+02 -0.74988923743E+01 -0.30121262915E+02  0.45045683583E+02  0.00000000000E+00 0. -1.
         11    1    3    3    0    0 -0.32317305031E+01  0.20754474976E+01  0.27152661998E+01  0.47036406279E+01  0.51100000000E-03 0. -1.
        -11    1    3    3    0    0 -0.27631363002E+02  0.35328440799E+01  0.22198064879E+02  0.35619198380E+02  0.51100000000E-03 0.  1.
         12    1    3    3    0    0 -0.17802786095E+01  0.18906007968E+01  0.52079318362E+01  0.58194774088E+01  0.00000000000E+00 0. -1.
</event>
<event>
 7    1  0.2250716E-008  0.4614232E+02  0.7816164E-02  0.1320468E+00
        -11   -1    0    0    0    0  0.00000000000E+00  0.00000000000E+00  0.45593999997E+02  0.45594000000E+02  0.51100000000E-03 0.  1.
         11   -1    0    0    0    0 -0.00000000000E+00 -0.00000000000E+00 -0.45593999997E+02  0.45594000000E+02  0.51100000000E-03 0. -1.
    9900012    2    1    2    0    0 -0.35737919011E+02 -0.14257677579E+02  0.23422921354E+02  0.46142317966E+02  0.10000001866E+02 0.  0.
         12    1    1    2    0    0  0.35737919011E+02  0.14257677579E+02 -0.23422921354E+02  0.45045682034E+02  0.00000000000E+00 0. -1.
         11    1    3    3    0    0 -0.26257333522E+01  0.10134082672E+01  0.12441934575E+01  0.30772535764E+01  0.51100000000E-03 0. -1.
        -11    1    3    3    0    0 -0.25495628872E+02 -0.13533713784E+02  0.15369362280E+02  0.32701770557E+02  0.51100000000E-03 0.  1.
        -12    1    3    3    0    0 -0.76165567865E+01 -0.17373720618E+01  0.68093656163E+01  0.10363293833E+02  0.00000000000E+00 0.  1.
</event>
<event>
 7    1  0.2250716E-008  0.4614232E+02  0.7816164E-02  0.1320468E+00
        -11   -1    0    0    0    0  0.00000000000E+00  0.00000000000E+00  0.45593999997E+02  0.45594000000E+02  0.51100000000E-03 0.  1.
         11   -1    0    0    0    0 -0.00000000000E+00 -0.00000000000E+00 -0.45593999997E+02  0.45594000000E+02  0.51100000000E-03 0. -1.
    9900012    2    1    2    0    0 -0.55611948559E+01 -0.24018819395E+02  0.37699900880E+02  0.46142322075E+02  0.10000039338E+02 0.  0.
         12    1    1    2    0    0  0.55611948559E+01  0.24018819395E+02 -0.37699900880E+02  0.45045677925E+02  0.00000000000E+00 0. -1.
         11    1    3    3    0    0 -0.27526424334E+01 -0.60167592325E+01  0.14962068426E+02  0.16359765398E+02  0.51100000000E-03 0. -1.
        -11    1    3    3    0    0 -0.29505763369E+01 -0.17731812347E+02  0.19464778143E+02  0.26495295021E+02  0.51100000000E-03 0.  1.
        -12    1    3    3    0    0  0.14202391442E+00 -0.27024781540E+00  0.32730543109E+01  0.32872616561E+01  0.00000000000E+00 0.  1.
</event>
<event>
 7    1  0.2250716E-008  0.4614232E+02  0.7816164E-02  0.1320468E+00
        -11   -1    0    0    0    0  0.00000000000E+00  0.00000000000E+00  0.45593999997E+02  0.45594000000E+02  0.51100000000E-03 0. -1.
         11   -1    0    0    0    0 -0.00000000000E+00 -0.00000000000E+00 -0.45593999997E+02  0.45594000000E+02  0.51100000000E-03 0.  1.
    9900012    2    1    2    0    0 -0.36153372526E+02  0.28286206963E+01 -0.26721637363E+02  0.46142319370E+02  0.10000014674E+02 0.  0.
         12    1    1    2    0    0  0.36153372526E+02 -0.28286206963E+01  0.26721637363E+02  0.45045680630E+02  0.00000000000E+00 0. -1.
         11    1    3    3    0    0 -0.24068417338E+02  0.21375724955E+01 -0.12141857169E+02  0.27042237798E+02  0.51100000000E-03 0. -1.
        -11    1    3    3    0    0 -0.70858802990E+01  0.93216376521E+00 -0.69056467066E+01  0.99381379340E+01  0.51100000000E-03 0.  1.
         12    1    3    3    0    0 -0.49990748889E+01 -0.24111556443E+00 -0.76741334868E+01  0.91619436384E+01  0.00000000000E+00 0. -1.
</event>
<event>
 7    1  0.2250716E-008  0.4614232E+02  0.7816164E-02  0.1320468E+00
        -11   -1    0    0    0    0  0.00000000000E+00  0.00000000000E+00  0.45593999997E+02  0.45594000000E+02  0.51100000000E-03 0.  1.
         11   -1    0    0    0    0 -0.00000000000E+00 -0.00000000000E+00 -0.45593999997E+02  0.45594000000E+02  0.51100000000E-03 0. -1.
    9900012    2    1    2    0    0  0.16565192038E+02  0.11723703719E+02  0.40215204338E+02  0.46142317897E+02  0.10000001239E+02 0.  0.
         12    1    1    2    0    0 -0.16565192038E+02 -0.11723703719E+02 -0.40215204338E+02  0.45045682103E+02  0.00000000000E+00 0. -1.
         11    1    3    3    0    0  0.26617916597E+01  0.18142058216E+01  0.10277712408E+02  0.10770694045E+02  0.51100000000E-03 0. -1.
        -11    1    3    3    0    0  0.83835951763E+01  0.14452918274E+01  0.10990197676E+02  0.13898128714E+02  0.51100000000E-03 0.  1.
         12    1    3    3    0    0  0.55198052017E+01  0.84642060704E+01  0.18947294254E+02  0.21473495137E+02  0.00000000000E+00 0. -1.
</event>
<event>
 7    1  0.2250716E-008  0.4614232E+02  0.7816164E-02  0.1320468E+00
        -11   -1    0    0    0    0  0.00000000000E+00  0.00000000000E+00  0.45593999997E+02  0.45594000000E+02  0.51100000000E-03 0.  1.
         11   -1    0    0    0    0 -0.00000000000E+00 -0.00000000000E+00 -0.45593999997E+02  0.45594000000E+02  0.51100000000E-03 0. -1.
    9900012    2    1    2    0    0  0.11232792925E+02 -0.38637488777E+02  0.20250490147E+02  0.46142317331E+02  0.99999960804E+01 0.  0.
         12    1    1    2    0    0 -0.11232792925E+02  0.38637488777E+02 -0.20250490147E+02  0.45045682669E+02  0.00000000000E+00 0. -1.
         11    1    3    3    0    0  0.26124990524E+01 -0.10234310489E+02  0.18936921168E+01  0.10730905487E+02  0.51100000000E-03 0. -1.
        -11    1    3    3    0    0  0.74150364589E+01 -0.22912154545E+02  0.11937634241E+02  0.26878554707E+02  0.51100000000E-03 0.  1.
         12    1    3    3    0    0  0.12052574136E+01 -0.54910237438E+01  0.64191637884E+01  0.85328571376E+01  0.00000000000E+00 0. -1.
</event>
<event>
 7    1  0.2250716E-008  0.4614232E+02  0.7816164E-02  0.1320468E+00
        -11   -1    0    0    0    0  0.00000000000E+00  0.00000000000E+00  0.45593999997E+02  0.45594000000E+02  0.51100000000E-03 0.  1.
         11   -1    0    0    0    0 -0.00000000000E+00 -0.00000000000E+00 -0.45593999997E+02  0.45594000000E+02  0.51100000000E-03 0. -1.
    9900012    2    1    2    0    0  0.20478295636E+02 -0.38680247383E+02  0.10657921154E+02  0.46142318597E+02  0.10000007621E+02 0.  0.
         12    1    1    2    0    0 -0.20478295636E+02  0.38680247383E+02 -0.10657921154E+02  0.45045681403E+02  0.00000000000E+00 0. -1.
         11    1    3    3    0    0  0.55281409405E+01 -0.40212661776E+01  0.22650526902E+01  0.72014851163E+01  0.51100000000E-03 0. -1.
        -11    1    3    3    0    0  0.63046435591E+01 -0.10562924479E+02  0.42064216959E+01  0.13000687970E+02  0.51100000000E-03 0.  1.
        -12    1    3    3    0    0  0.86455111364E+01 -0.24096056726E+02  0.41864467679E+01  0.25940145510E+02  0.00000000000E+00 0.  1.
</event>
<event>
 7    1  0.2250716E-008  0.4614233E+02  0.7816164E-02  0.1320468E+00
        -11   -1    0    0    0    0  0.00000000000E+00  0.00000000000E+00  0.45593999997E+02  0.45594000000E+02  0.51100000000E-03 0.  1.
         11   -1    0    0    0    0 -0.00000000000E+00 -0.00000000000E+00 -0.45593999997E+02  0.45594000000E+02  0.51100000000E-03 0. -1.
    9900012    2    1    2    0    0  0.27561928351E+02  0.15013670448E+02  0.32311644195E+02  0.46142328229E+02  0.10000095452E+02 0.  0.
         12    1    1    2    0    0 -0.27561928351E+02 -0.15013670448E+02 -0.32311644195E+02  0.45045671771E+02  0.00000000000E+00 0. -1.
         11    1    3    3    0    0  0.16585619187E+02  0.12378559739E+02  0.22149548564E+02  0.30313594424E+02  0.51100000000E-03 0. -1.
        -11    1    3    3    0    0  0.72966764837E+01  0.30507865976E+01  0.46077074942E+01  0.91531281639E+01  0.51100000000E-03 0.  1.
         12    1    3    3    0    0  0.36796326801E+01 -0.41567588822E+00  0.55543881363E+01  0.66756056409E+01  0.00000000000E+00 0. -1.
</event>
<event>
 7    1  0.2250716E-008  0.4614232E+02  0.7816164E-02  0.1320468E+00
        -11   -1    0    0    0    0  0.00000000000E+00  0.00000000000E+00  0.45593999997E+02  0.45594000000E+02  0.51100000000E-03 0.  1.
         11   -1    0    0    0    0 -0.00000000000E+00 -0.00000000000E+00 -0.45593999997E+02  0.45594000000E+02  0.51100000000E-03 0. -1.
    9900012    2    1    2    0    0  0.42416695395E+02 -0.14214413087E+02  0.52809074298E+01  0.46142316845E+02  0.99999916458E+01 0.  0.
         12    1    1    2    0    0 -0.42416695395E+02  0.14214413087E+02 -0.52809074298E+01  0.45045683155E+02  0.00000000000E+00 0. -1.
         11    1    3    3    0    0  0.99418235225E+01  0.55719561869E+00  0.18959900489E+01  0.10136325786E+02  0.51100000000E-03 0. -1.
        -11    1    3    3    0    0  0.73355425669E+01 -0.18236183792E+01  0.36980814399E+00  0.75678614594E+01  0.51100000000E-03 0.  1.
        -12    1    3    3    0    0  0.25139329305E+02 -0.12947990327E+02  0.30151092370E+01  0.28438129600E+02  0.00000000000E+00 0.  1.
</event>
<event>
 7    1  0.2250716E-008  0.4614232E+02  0.7816164E-02  0.1320468E+00
        -11   -1    0    0    0    0  0.00000000000E+00  0.00000000000E+00  0.45593999997E+02  0.45594000000E+02  0.51100000000E-03 0.  1.
         11   -1    0    0    0    0 -0.00000000000E+00 -0.00000000000E+00 -0.45593999997E+02  0.45594000000E+02  0.51100000000E-03 0. -1.
    9900012    2    1    2    0    0  0.17746561493E+02 -0.34589816639E+02  0.22753407946E+02  0.46142318375E+02  0.10000005599E+02 0.  0.
         12    1    1    2    0    0 -0.17746561493E+02  0.34589816639E+02 -0.22753407946E+02  0.45045681625E+02  0.00000000000E+00 0. -1.
         11    1    3    3    0    0  0.15980223718E+01 -0.31327842882E+01  0.43564272590E+01  0.55987919788E+01  0.51100000000E-03 0. -1.
        -11    1    3    3    0    0  0.59189466880E+01 -0.19234748625E+02  0.11480818830E+02  0.23169347981E+02  0.51100000000E-03 0.  1.
         12    1    3    3    0    0  0.10229592433E+02 -0.12222283725E+02  0.69161618563E+01  0.17374178416E+02  0.00000000000E+00 0. -1.
</event>
<event>
 7    1  0.2250716E-008  0.4614232E+02  0.7816164E-02  0.1320468E+00
        -11   -1    0    0    0    0  0.00000000000E+00  0.00000000000E+00  0.45593999997E+02  0.45594000000E+02  0.51100000000E-03 0.  1.
         11   -1    0    0    0    0 -0.00000000000E+00 -0.00000000000E+00 -0.45593999997E+02  0.45594000000E+02  0.51100000000E-03 0. -1.
    9900012    2    1    2    0    0  0.35755764398E+02 -0.87933031722E+01  0.25948345707E+02  0.46142317485E+02  0.99999974791E+01 0.  0.
         12    1    1    2    0    0 -0.35755764398E+02  0.87933031722E+01 -0.25948345707E+02  0.45045682515E+02  0.00000000000E+00 0. -1.
         11    1    3    3    0    0  0.11306303774E+01 -0.43680912169E+00  0.18472532458E+00  0.12260713543E+01  0.51100000000E-03 0. -1.
        -11    1    3    3    0    0  0.14243823631E+02 -0.81262384910E+01  0.10934889125E+02  0.19710252766E+02  0.51100000000E-03 0.  1.
         12    1    3    3    0    0  0.20381310389E+02 -0.23025555958E+00  0.14828731257E+02  0.25205993364E+02  0.00000000000E+00 0. -1.
</event>
<event>
 7    1  0.2250716E-008  0.4614232E+02  0.7816164E-02  0.1320468E+00
        -11   -1    0    0    0    0  0.00000000000E+00  0.00000000000E+00  0.45593999997E+02  0.45594000000E+02  0.51100000000E-03 0.  1.
         11   -1    0    0    0    0 -0.00000000000E+00 -0.00000000000E+00 -0.45593999997E+02  0.45594000000E+02  0.51100000000E-03 0. -1.
    9900012    2    1    2    0    0  0.15335579802E+02  0.14993706036E+02  0.39612148130E+02  0.46142317542E+02  0.99999980063E+01 0.  0.
         12    1    1    2    0    0 -0.15335579802E+02 -0.14993706036E+02 -0.39612148130E+02  0.45045682458E+02  0.00000000000E+00 0. -1.
         11    1    3    3    0    0  0.37830811574E+01  0.44736449870E+01  0.16678422182E+02  0.17677527238E+02  0.51100000000E-03 0. -1.
        -11    1    3    3    0    0  0.24976612843E+01  0.45277456148E+01  0.11946332699E+02  0.13017436670E+02  0.51100000000E-03 0.  1.
        -12    1    3    3    0    0  0.90548373602E+01  0.59923154344E+01  0.10987393250E+02  0.15447353634E+02  0.00000000000E+00 0.  1.
</event>
<event>
 7    1  0.2250716E-008  0.4614232E+02  0.7816164E-02  0.1320468E+00
        -11   -1    0    0    0    0  0.00000000000E+00  0.00000000000E+00  0.45593999997E+02  0.45594000000E+02  0.51100000000E-03 0.  1.
         11   -1    0    0    0    0 -0.00000000000E+00 -0.00000000000E+00 -0.45593999997E+02  0.45594000000E+02  0.51100000000E-03 0. -1.
    9900012    2    1    2    0    0  0.20756700090E+01  0.21063249129E+02  0.39763610329E+02  0.46142316786E+02  0.99999911070E+01 0.  0.
         12    1    1    2    0    0 -0.20756700090E+01 -0.21063249129E+02 -0.39763610329E+02  0.45045683214E+02  0.00000000000E+00 0. -1.
         11    1    3    3    0    0  0.13962811121E+01  0.91281675357E+01  0.10928730746E+02  0.14307697211E+02  0.51100000000E-03 0. -1.
        -11    1    3    3    0    0  0.59012836880E+00  0.33819381964E+01  0.27983548434E+01  0.44290571849E+01  0.51100000000E-03 0.  1.
         12    1    3    3    0    0  0.89260528124E-01  0.85531433968E+01  0.26036524739E+02  0.27405562390E+02  0.00000000000E+00 0. -1.
</event>
<event>
 7    1  0.2250716E-008  0.4614232E+02  0.7816164E-02  0.1320468E+00
        -11   -1    0    0    0    0  0.00000000000E+00  0.00000000000E+00  0.45593999997E+02  0.45594000000E+02  0.51100000000E-03 0. -1.
         11   -1    0    0    0    0 -0.00000000000E+00 -0.00000000000E+00 -0.45593999997E+02  0.45594000000E+02  0.51100000000E-03 0.  1.
    9900012    2    1    2    0    0  0.32901796943E+02 -0.26787575056E+02 -0.15133096952E+02  0.46142322706E+02  0.10000045095E+02 0.  0.
         12    1    1    2    0    0 -0.32901796943E+02  0.26787575056E+02  0.15133096952E+02  0.45045677294E+02  0.00000000000E+00 0. -1.
         11    1    3    3    0    0  0.19366161181E+01 -0.23444932063E+01 -0.27966961234E+01  0.41314210450E+01  0.51100000000E-03 0. -1.
        -11    1    3    3    0    0  0.65412895950E+01 -0.46305036411E+01  0.52886175811E+00  0.80317948527E+01  0.51100000000E-03 0.  1.
        -12    1    3    3    0    0  0.24423891230E+02 -0.19812578209E+02 -0.12865262586E+02  0.33979106809E+02  0.00000000000E+00 0.  1.
</event>
<event>
 7    1  0.2250716E-008  0.4614232E+02  0.7816164E-02  0.1320468E+00
        -11   -1    0    0    0    0  0.00000000000E+00  0.00000000000E+00  0.45593999997E+02  0.45594000000E+02  0.51100000000E-03 0.  1.
         11   -1    0    0    0    0 -0.00000000000E+00 -0.00000000000E+00 -0.45593999997E+02  0.45594000000E+02  0.51100000000E-03 0. -1.
    9900012    2    1    2    0    0  0.23489789680E+02 -0.37142636331E+02  0.98877618702E+01  0.46142317770E+02  0.10000000077E+02 0.  0.
         12    1    1    2    0    0 -0.23489789680E+02  0.37142636331E+02 -0.98877618702E+01  0.45045682230E+02  0.00000000000E+00 0. -1.
         11    1    3    3    0    0  0.49058251983E+01 -0.36467070971E+01 -0.23555239486E+00  0.61172770675E+01  0.51100000000E-03 0. -1.
        -11    1    3    3    0    0  0.54590095636E+01 -0.54000641408E+01  0.13388767658E+01  0.77944896815E+01  0.51100000000E-03 0.  1.
        -12    1    3    3    0    0  0.13124954918E+02 -0.28095865093E+02  0.87844374993E+01  0.32230551021E+02  0.00000000000E+00 0.  1.
</event>
<event>
 7    1  0.2250716E-008  0.4614232E+02  0.7816164E-02  0.1320468E+00
        -11   -1    0    0    0    0  0.00000000000E+00  0.00000000000E+00  0.45593999997E+02  0.45594000000E+02  0.51100000000E-03 0.  1.
         11   -1    0    0    0    0 -0.00000000000E+00 -0.00000000000E+00 -0.45593999997E+02  0.45594000000E+02  0.51100000000E-03 0. -1.
    9900012    2    1    2    0    0  0.42938071958E+02 -0.12975707703E+02  0.41311675592E+01  0.46142316974E+02  0.99999928240E+01 0.  0.
         12    1    1    2    0    0 -0.42938071958E+02  0.12975707703E+02 -0.41311675592E+01  0.45045683026E+02  0.00000000000E+00 0. -1.
         11    1    3    3    0    0  0.18777741916E+02 -0.81573021963E+01  0.94602836932E+00  0.20494880837E+02  0.51100000000E-03 0. -1.
        -11    1    3    3    0    0  0.11147260022E+02 -0.54476614584E+01  0.11374468262E+01  0.12459221762E+02  0.51100000000E-03 0.  1.
        -12    1    3    3    0    0  0.13013070020E+02  0.62925595175E+00  0.20476923637E+01  0.13188214376E+02  0.00000000000E+00 0.  1.
</event>
<event>
 7    1  0.2250716E-008  0.4614232E+02  0.7816164E-02  0.1320468E+00
        -11   -1    0    0    0    0  0.00000000000E+00  0.00000000000E+00  0.45593999997E+02  0.45594000000E+02  0.51100000000E-03 0.  1.
         11   -1    0    0    0    0 -0.00000000000E+00 -0.00000000000E+00 -0.45593999997E+02  0.45594000000E+02  0.51100000000E-03 0. -1.
    9900012    2    1    2    0    0 -0.18703363237E+02 -0.32543135954E+02  0.24904657483E+02  0.46142318093E+02  0.10000003025E+02 0.  0.
         12    1    1    2    0    0  0.18703363237E+02  0.32543135954E+02 -0.24904657483E+02  0.45045681907E+02  0.00000000000E+00 0. -1.
         11    1    3    3    0    0 -0.95061674610E-01 -0.72691332512E+01  0.38941033419E+01  0.82470222531E+01  0.51100000000E-03 0. -1.
        -11    1    3    3    0    0 -0.88779711510E+01 -0.13654467657E+02  0.12349010424E+02  0.20439200510E+02  0.51100000000E-03 0.  1.
         12    1    3    3    0    0 -0.97303304114E+01 -0.11619535046E+02  0.86615437173E+01  0.17456095330E+02  0.00000000000E+00 0. -1.
</event>
<event>
 7    1  0.2250716E-008  0.4614232E+02  0.7816164E-02  0.1320468E+00
        -11   -1    0    0    0    0  0.00000000000E+00  0.00000000000E+00  0.45593999997E+02  0.45594000000E+02  0.51100000000E-03 0. -1.
         11   -1    0    0    0    0 -0.00000000000E+00 -0.00000000000E+00 -0.45593999997E+02  0.45594000000E+02  0.51100000000E-03 0.  1.
    9900012    2    1    2    0    0  0.92716899675E+01  0.12538105269E+02 -0.42260436947E+02  0.46142324852E+02  0.10000064659E+02 0.  0.
         12    1    1    2    0    0 -0.92716899675E+01 -0.12538105269E+02  0.42260436947E+02  0.45045675148E+02  0.00000000000E+00 0. -1.
         11    1    3    3    0    0  0.10088019596E+01  0.34645581019E+01 -0.13546131172E+02  0.14018506133E+02  0.51100000000E-03 0. -1.
        -11    1    3    3    0    0 -0.24331075758E+00  0.41372781170E+01 -0.12401982395E+02  0.13076140024E+02  0.51100000000E-03 0.  1.
         12    1    3    3    0    0  0.85061987655E+01  0.49362690500E+01 -0.16312323381E+02  0.19047678694E+02  0.00000000000E+00 0. -1.
</event>
<event>
 7    1  0.2250716E-008  0.4614232E+02  0.7816164E-02  0.1320468E+00
        -11   -1    0    0    0    0  0.00000000000E+00  0.00000000000E+00  0.45593999997E+02  0.45594000000E+02  0.51100000000E-03 0.  1.
         11   -1    0    0    0    0 -0.00000000000E+00 -0.00000000000E+00 -0.45593999997E+02  0.45594000000E+02  0.51100000000E-03 0. -1.
    9900012    2    1    2    0    0 -0.38865656133E+02  0.20531144208E+02  0.98512108696E+01  0.46142318024E+02  0.10000002395E+02 0.  0.
         12    1    1    2    0    0  0.38865656133E+02 -0.20531144208E+02 -0.98512108696E+01  0.45045681976E+02  0.00000000000E+00 0. -1.
         11    1    3    3    0    0 -0.12343650608E+02  0.64813729830E+01  0.17163331729E+01  0.14047053281E+02  0.51100000000E-03 0.  1.
        -11    1    3    3    0    0 -0.23586642220E+02  0.13213912107E+02  0.45987840747E+01  0.27424186034E+02  0.51100000000E-03 0. -1.
         12    1    3    3    0    0 -0.29353633044E+01  0.83585911801E+00  0.35360936220E+01  0.46710787081E+01  0.00000000000E+00 0. -1.
</event>
<event>
 7    1  0.2250716E-008  0.4614232E+02  0.7816164E-02  0.1320468E+00
        -11   -1    0    0    0    0  0.00000000000E+00  0.00000000000E+00  0.45593999997E+02  0.45594000000E+02  0.51100000000E-03 0.  1.
         11   -1    0    0    0    0 -0.00000000000E+00 -0.00000000000E+00 -0.45593999997E+02  0.45594000000E+02  0.51100000000E-03 0. -1.
    9900012    2    1    2    0    0  0.12861057399E+00  0.31865689420E+02  0.31838257005E+02  0.46142319719E+02  0.10000017852E+02 0.  0.
         12    1    1    2    0    0 -0.12861057399E+00 -0.31865689420E+02 -0.31838257005E+02  0.45045680281E+02  0.00000000000E+00 0. -1.
         11    1    3    3    0    0  0.15066761148E+01  0.86653704570E+01  0.14124018105E+02  0.16638708056E+02  0.51100000000E-03 0. -1.
        -11    1    3    3    0    0 -0.13841201071E+01  0.34884587574E+01  0.17644907806E+01  0.41471147740E+01  0.51100000000E-03 0.  1.
         12    1    3    3    0    0  0.60545662584E-02  0.19711860206E+02  0.15949748119E+02  0.25356496889E+02  0.00000000000E+00 0. -1.
</event>
<event>
 7    1  0.2250716E-008  0.4614232E+02  0.7816164E-02  0.1320468E+00
        -11   -1    0    0    0    0  0.00000000000E+00  0.00000000000E+00  0.45593999997E+02  0.45594000000E+02  0.51100000000E-03 0. -1.
         11   -1    0    0    0    0 -0.00000000000E+00 -0.00000000000E+00 -0.45593999997E+02  0.45594000000E+02  0.51100000000E-03 0.  1.
    9900012    2    1    2    0    0  0.19314212512E+02  0.40694019940E+02  0.26757053722E+00  0.46142315880E+02  0.99999828490E+01 0.  0.
         12    1    1    2    0    0 -0.19314212512E+02 -0.40694019940E+02 -0.26757053722E+00  0.45045684120E+02  0.00000000000E+00 0. -1.
         11    1    3    3    0    0  0.69975518455E+01  0.94825895954E+01  0.12336652826E+01  0.11849353044E+02  0.51100000000E-03 0. -1.
        -11    1    3    3    0    0  0.77293561732E+01  0.17670908713E+02 -0.39517101371E+01  0.19688066814E+02  0.51100000000E-03 0.  1.
         12    1    3    3    0    0  0.45873044929E+01  0.13540521631E+02  0.29856153917E+01  0.14604896023E+02  0.00000000000E+00 0. -1.
</event>
<event>
 7    1  0.2250716E-008  0.4614232E+02  0.7816164E-02  0.1320468E+00
        -11   -1    0    0    0    0  0.00000000000E+00  0.00000000000E+00  0.45593999997E+02  0.45594000000E+02  0.51100000000E-03 0.  1.
         11   -1    0    0    0    0 -0.00000000000E+00 -0.00000000000E+00 -0.45593999997E+02  0.45594000000E+02  0.51100000000E-03 0. -1.
    9900012    2    1    2    0    0 -0.24222260300E+02  0.51370809686E+01  0.37629854916E+02  0.46142317899E+02  0.10000001260E+02 0.  0.
         12    1    1    2    0    0  0.24222260300E+02 -0.51370809686E+01 -0.37629854916E+02  0.45045682101E+02  0.00000000000E+00 0. -1.
         11    1    3    3    0    0 -0.84265102498E+01 -0.29761061065E+00  0.71319296332E+01  0.11043507940E+02  0.51100000000E-03 0.  1.
        -11    1    3    3    0    0 -0.93839431854E+00  0.13356679889E+01  0.13155991818E+01  0.20965195783E+01  0.51100000000E-03 0. -1.
        -12    1    3    3    0    0 -0.14857355732E+02  0.40990235904E+01  0.29182326101E+02  0.33002290381E+02  0.00000000000E+00 0.  1.
</event>
<event>
 7    1  0.2250716E-008  0.4614232E+02  0.7816164E-02  0.1320468E+00
        -11   -1    0    0    0    0  0.00000000000E+00  0.00000000000E+00  0.45593999997E+02  0.45594000000E+02  0.51100000000E-03 0. -1.
         11   -1    0    0    0    0 -0.00000000000E+00 -0.00000000000E+00 -0.45593999997E+02  0.45594000000E+02  0.51100000000E-03 0.  1.
    9900012    2    1    2    0    0 -0.43166457237E+02  0.77987999649E+01  0.10244470322E+02  0.46142317816E+02  0.10000000497E+02 0.  0.
         12    1    1    2    0    0  0.43166457237E+02 -0.77987999649E+01 -0.10244470322E+02  0.45045682184E+02  0.00000000000E+00 0. -1.
         11    1    3    3    0    0 -0.97744798023E+01  0.25163132712E+01 -0.29012483118E+00  0.10097349185E+02  0.51100000000E-03 0. -1.
        -11    1    3    3    0    0 -0.28762434139E+02  0.24674450340E+01  0.10197566766E+02  0.30616274607E+02  0.51100000000E-03 0.  1.
         12    1    3    3    0    0 -0.46295432958E+01  0.28150416596E+01  0.33702838736E+00  0.54286940241E+01  0.00000000000E+00 0. -1.
</event>
<event>
 7    1  0.2250716E-008  0.4614232E+02  0.7816164E-02  0.1320468E+00
        -11   -1    0    0    0    0  0.00000000000E+00  0.00000000000E+00  0.45593999997E+02  0.45594000000E+02  0.51100000000E-03 0.  1.
         11   -1    0    0    0    0 -0.00000000000E+00 -0.00000000000E+00 -0.45593999997E+02  0.45594000000E+02  0.51100000000E-03 0. -1.
    9900012    2    1    2    0    0 -0.18606718231E+02  0.40156627125E+02 -0.83874260345E+01  0.46142316734E+02  0.99999906340E+01 0.  0.
         12    1    1    2    0    0  0.18606718231E+02 -0.40156627125E+02  0.83874260345E+01  0.45045683266E+02  0.00000000000E+00 0. -1.
         11    1    3    3    0    0 -0.10008187747E+01  0.82556677217E+01 -0.22744481768E+01  0.86215313327E+01  0.51100000000E-03 0. -1.
        -11    1    3    3    0    0 -0.11942945143E+01  0.72826182214E+01 -0.42757460767E+00  0.73922721711E+01  0.51100000000E-03 0.  1.
         12    1    3    3    0    0 -0.16411604942E+02  0.24618341182E+02 -0.56854032500E+01  0.30128513230E+02  0.00000000000E+00 0. -1.
</event>
<event>
 7    1  0.2250716E-008  0.4614232E+02  0.7816164E-02  0.1320468E+00
        -11   -1    0    0    0    0  0.00000000000E+00  0.00000000000E+00  0.45593999997E+02  0.45594000000E+02  0.51100000000E-03 0.  1.
         11   -1    0    0    0    0 -0.00000000000E+00 -0.00000000000E+00 -0.45593999997E+02  0.45594000000E+02  0.51100000000E-03 0. -1.
    9900012    2    1    2    0    0 -0.37425717029E+02  0.19850926928E+02  0.15309142636E+02  0.46142318261E+02  0.10000004562E+02 0.  0.
         12    1    1    2    0    0  0.37425717029E+02 -0.19850926928E+02 -0.15309142636E+02  0.45045681739E+02  0.00000000000E+00 0. -1.
         11    1    3    3    0    0 -0.45670081957E+01  0.18131507524E+01  0.31937341776E+01  0.58604622487E+01  0.51100000000E-03 0. -1.
        -11    1    3    3    0    0 -0.26759198063E+02  0.12031128000E+02  0.12059175423E+02  0.31721072398E+02  0.51100000000E-03 0.  1.
         12    1    3    3    0    0 -0.60995107707E+01  0.60066481755E+01  0.56233035192E-01  0.85607836149E+01  0.00000000000E+00 0. -1.
</event>
<event>
 7    1  0.2250716E-008  0.4614232E+02  0.7816164E-02  0.1320468E+00
        -11   -1    0    0    0    0  0.00000000000E+00  0.00000000000E+00  0.45593999997E+02  0.45594000000E+02  0.51100000000E-03 0.  1.
         11   -1    0    0    0    0 -0.00000000000E+00 -0.00000000000E+00 -0.45593999997E+02  0.45594000000E+02  0.51100000000E-03 0. -1.
    9900012    2    1    2    0    0 -0.30746743658E+02 -0.26536403279E+02  0.19482561672E+02  0.46142321474E+02  0.10000033856E+02 0.  0.
         12    1    1    2    0    0  0.30746743658E+02  0.26536403279E+02 -0.19482561672E+02  0.45045678526E+02  0.00000000000E+00 0. -1.
         11    1    3    3    0    0 -0.11660783359E+02 -0.10331817756E+02  0.54255321933E+01  0.16497173289E+02  0.51100000000E-03 0. -1.
        -11    1    3    3    0    0 -0.32159787716E+01  0.16871991415E+00  0.10147736417E+01  0.33764999147E+01  0.51100000000E-03 0.  1.
        -12    1    3    3    0    0 -0.15869981528E+02 -0.16373305436E+02  0.13042255837E+02  0.26268648270E+02  0.00000000000E+00 0.  1.
</event>
<event>
 7    1  0.2250716E-008  0.4614232E+02  0.7816164E-02  0.1320468E+00
        -11   -1    0    0    0    0  0.00000000000E+00  0.00000000000E+00  0.45593999997E+02  0.45594000000E+02  0.51100000000E-03 0.  1.
         11   -1    0    0    0    0 -0.00000000000E+00 -0.00000000000E+00 -0.45593999997E+02  0.45594000000E+02  0.51100000000E-03 0. -1.
    9900012    2    1    2    0    0  0.23734928914E+02 -0.17450627041E+01  0.38245540587E+02  0.46142317974E+02  0.10000001942E+02 0.  0.
         12    1    1    2    0    0 -0.23734928914E+02  0.17450627041E+01 -0.38245540587E+02  0.45045682026E+02  0.00000000000E+00 0. -1.
         11    1    3    3    0    0  0.43132720902E+01  0.28203348311E+01  0.73622613855E+01  0.89867401015E+01  0.51100000000E-03 0. -1.
        -11    1    3    3    0    0  0.75116388954E+01 -0.16868804421E+01  0.16852379866E+02  0.18527627801E+02  0.51100000000E-03 0.  1.
        -12    1    3    3    0    0  0.11910017928E+02 -0.28785170932E+01  0.14030899336E+02  0.18627950072E+02  0.00000000000E+00 0.  1.
</event>
<event>
 7    1  0.2250716E-008  0.4614232E+02  0.7816164E-02  0.1320468E+00
        -11   -1    0    0    0    0  0.00000000000E+00  0.00000000000E+00  0.45593999997E+02  0.45594000000E+02  0.51100000000E-03 0. -1.
         11   -1    0    0    0    0 -0.00000000000E+00 -0.00000000000E+00 -0.45593999997E+02  0.45594000000E+02  0.51100000000E-03 0.  1.
    9900012    2    1    2    0    0 -0.37901728816E+02  0.88262388858E+01  0.22686337983E+02  0.46142317951E+02  0.10000001733E+02 0.  0.
         12    1    1    2    0    0  0.37901728816E+02 -0.88262388858E+01 -0.22686337983E+02  0.45045682049E+02  0.00000000000E+00 0. -1.
         11    1    3    3    0    0 -0.58907958838E+01  0.19706675137E+01  0.28335740437E+00  0.62181426708E+01  0.51100000000E-03 0. -1.
        -11    1    3    3    0    0 -0.40032729768E+01 -0.41054200426E+00  0.37311041142E+01  0.54877934943E+01  0.51100000000E-03 0.  1.
        -12    1    3    3    0    0 -0.28007659956E+02  0.72661133763E+01  0.18671876465E+02  0.34436381786E+02  0.00000000000E+00 0.  1.
</event>
<event>
 7    1  0.2250716E-008  0.4614232E+02  0.7816164E-02  0.1320468E+00
        -11   -1    0    0    0    0  0.00000000000E+00  0.00000000000E+00  0.45593999997E+02  0.45594000000E+02  0.51100000000E-03 0.  1.
         11   -1    0    0    0    0 -0.00000000000E+00 -0.00000000000E+00 -0.45593999997E+02  0.45594000000E+02  0.51100000000E-03 0. -1.
    9900012    2    1    2    0    0  0.28782748400E+02 -0.47858142171E+01 -0.34318549741E+02  0.46142317860E+02  0.10000000898E+02 0.  0.
         12    1    1    2    0    0 -0.28782748400E+02  0.47858142171E+01  0.34318549741E+02  0.45045682140E+02  0.00000000000E+00 0. -1.
         11    1    3    3    0    0  0.10827084365E+02  0.85319932537E-02 -0.13601592267E+02  0.17384738741E+02  0.51100000000E-03 0. -1.
        -11    1    3    3    0    0  0.16141855266E+02 -0.18490111384E+01 -0.15218899459E+02  0.22261923426E+02  0.51100000000E-03 0.  1.
         12    1    3    3    0    0  0.18138087683E+01 -0.29453350720E+01 -0.54980580150E+01  0.64956556921E+01  0.00000000000E+00 0. -1.
</event>
<event>
 7    1  0.2250716E-008  0.4614231E+02  0.7816164E-02  0.1320468E+00
        -11   -1    0    0    0    0  0.00000000000E+00  0.00000000000E+00  0.45593999997E+02  0.45594000000E+02  0.51100000000E-03 0.  1.
         11   -1    0    0    0    0 -0.00000000000E+00 -0.00000000000E+00 -0.45593999997E+02  0.45594000000E+02  0.51100000000E-03 0. -1.
    9900012    2    1    2    0    0 -0.45983508159E+01  0.52221428231E+01  0.44505035805E+02  0.46142314103E+02  0.99999666415E+01 0.  0.
         12    1    1    2    0    0  0.45983508159E+01 -0.52221428231E+01 -0.44505035805E+02  0.45045685897E+02  0.00000000000E+00 0. -1.
         11    1    3    3    0    0 -0.19269963774E+01  0.66677901601E+00  0.58310962527E+01  0.61773451469E+01  0.51100000000E-03 0. -1.
        -11    1    3    3    0    0  0.12744644706E+01  0.18076071539E+01  0.29715568325E+02  0.29797763413E+02  0.51100000000E-03 0.  1.
        -12    1    3    3    0    0 -0.39458189091E+01  0.27477566532E+01  0.89583712282E+01  0.10167205543E+02  0.00000000000E+00 0.  1.
</event>
<event>
 7    1  0.2250716E-008  0.4614232E+02  0.7816164E-02  0.1320468E+00
        -11   -1    0    0    0    0  0.00000000000E+00  0.00000000000E+00  0.45593999997E+02  0.45594000000E+02  0.51100000000E-03 0. -1.
         11   -1    0    0    0    0 -0.00000000000E+00 -0.00000000000E+00 -0.45593999997E+02  0.45594000000E+02  0.51100000000E-03 0.  1.
    9900012    2    1    2    0    0 -0.19477913928E+02  0.35991872570E+02 -0.18823113234E+02  0.46142316368E+02  0.99999872968E+01 0.  0.
         12    1    1    2    0    0  0.19477913928E+02 -0.35991872570E+02  0.18823113234E+02  0.45045683632E+02  0.00000000000E+00 0. -1.
         11    1    3    3    0    0 -0.91653206978E+01  0.92914047214E+01 -0.79923081904E+01  0.15303930726E+02  0.51100000000E-03 0. -1.
        -11    1    3    3    0    0 -0.60041974387E+01  0.14256667833E+02 -0.78041314172E+01  0.17326495088E+02  0.51100000000E-03 0.  1.
         12    1    3    3    0    0 -0.43083957917E+01  0.12443800015E+02 -0.30266736259E+01  0.13511890555E+02  0.00000000000E+00 0. -1.
</event>
<event>
 7    1  0.2250716E-008  0.4614231E+02  0.7816164E-02  0.1320468E+00
        -11   -1    0    0    0    0  0.00000000000E+00  0.00000000000E+00  0.45593999997E+02  0.45594000000E+02  0.51100000000E-03 0.  1.
         11   -1    0    0    0    0 -0.00000000000E+00 -0.00000000000E+00 -0.45593999997E+02  0.45594000000E+02  0.51100000000E-03 0. -1.
    9900012    2    1    2    0    0  0.49750337612E+01  0.86529856561E+00  0.44761750923E+02  0.46142311546E+02  0.99999433289E+01 0.  0.
         12    1    1    2    0    0 -0.49750337612E+01 -0.86529856561E+00 -0.44761750923E+02  0.45045688454E+02  0.00000000000E+00 0. -1.
         11    1    3    3    0    0 -0.18213383663E+00 -0.26697989980E+01  0.99929374537E+01  0.10345037392E+02  0.51100000000E-03 0.  1.
        -11    1    3    3    0    0  0.16015369291E+01 -0.98031245562E+00  0.32056737740E+01  0.37151416732E+01  0.51100000000E-03 0. -1.
        -12    1    3    3    0    0  0.35556306687E+01  0.45154100193E+01  0.31563139696E+02  0.32082132481E+02  0.00000000000E+00 0.  1.
</event>
<event>
 7    1  0.2250716E-008  0.4614232E+02  0.7816164E-02  0.1320468E+00
        -11   -1    0    0    0    0  0.00000000000E+00  0.00000000000E+00  0.45593999997E+02  0.45594000000E+02  0.51100000000E-03 0.  1.
         11   -1    0    0    0    0 -0.00000000000E+00 -0.00000000000E+00 -0.45593999997E+02  0.45594000000E+02  0.51100000000E-03 0. -1.
    9900012    2    1    2    0    0  0.17717868169E+02 -0.27906435855E+02  0.30601003925E+02  0.46142318122E+02  0.10000003295E+02 0.  0.
         12    1    1    2    0    0 -0.17717868169E+02  0.27906435855E+02 -0.30601003925E+02  0.45045681878E+02  0.00000000000E+00 0. -1.
         11    1    3    3    0    0  0.47566524143E+01 -0.31159207828E+01  0.39068758722E+01  0.68991581992E+01  0.51100000000E-03 0. -1.
        -11    1    3    3    0    0  0.41195120127E+01 -0.53756695057E+01  0.10348466984E+02  0.12367658268E+02  0.51100000000E-03 0.  1.
         12    1    3    3    0    0  0.88417037420E+01 -0.19414845566E+02  0.16345661069E+02  0.26875501655E+02  0.00000000000E+00 0. -1.
</event>
<event>
 7    1  0.2250716E-008  0.4614231E+02  0.7816164E-02  0.1320468E+00
        -11   -1    0    0    0    0  0.00000000000E+00  0.00000000000E+00  0.45593999997E+02  0.45594000000E+02  0.51100000000E-03 0.  1.
         11   -1    0    0    0    0 -0.00000000000E+00 -0.00000000000E+00 -0.45593999997E+02  0.45594000000E+02  0.51100000000E-03 0. -1.
    9900012    2    1    2    0    0 -0.37294235323E+02  0.11788215999E+02  0.22344847845E+02  0.46142309307E+02  0.99999229059E+01 0.  0.
         12    1    1    2    0    0  0.37294235323E+02 -0.11788215999E+02 -0.22344847845E+02  0.45045690693E+02  0.00000000000E+00 0. -1.
         11    1    3    3    0    0 -0.12665799799E+02  0.31666678907E+01  0.42398962405E+01  0.13726871110E+02  0.51100000000E-03 0. -1.
        -11    1    3    3    0    0 -0.87077857301E+01  0.62612190184E+01  0.61177918722E+01  0.12347298230E+02  0.51100000000E-03 0.  1.
        -12    1    3    3    0    0 -0.15920649794E+02  0.23603290903E+01  0.11987159733E+02  0.20068139967E+02  0.00000000000E+00 0.  1.
</event>
<event>
 7    1  0.2250716E-008  0.4614232E+02  0.7816164E-02  0.1320468E+00
        -11   -1    0    0    0    0  0.00000000000E+00  0.00000000000E+00  0.45593999997E+02  0.45594000000E+02  0.51100000000E-03 0.  1.
         11   -1    0    0    0    0 -0.00000000000E+00 -0.00000000000E+00 -0.45593999997E+02  0.45594000000E+02  0.51100000000E-03 0. -1.
    9900012    2    1    2    0    0 -0.19117188818E+02  0.22836942480E+02  0.33795275346E+02  0.46142317789E+02  0.10000000251E+02 0.  0.
         12    1    1    2    0    0  0.19117188818E+02 -0.22836942480E+02 -0.33795275346E+02  0.45045682211E+02  0.00000000000E+00 0. -1.
         11    1    3    3    0    0 -0.37476529001E+01  0.29005724838E-01  0.40235823316E+01  0.54986324329E+01  0.51100000000E-03 0. -1.
        -11    1    3    3    0    0 -0.40733937512E+01  0.86122285057E+01  0.10273696909E+02  0.14011133606E+02  0.51100000000E-03 0.  1.
         12    1    3    3    0    0 -0.11296142167E+02  0.14195708250E+02  0.19497996106E+02  0.26632551750E+02  0.00000000000E+00 0. -1.
</event>
<event>
 7    1  0.2250716E-008  0.4614232E+02  0.7816164E-02  0.1320468E+00
        -11   -1    0    0    0    0  0.00000000000E+00  0.00000000000E+00  0.45593999997E+02  0.45594000000E+02  0.51100000000E-03 0.  1.
         11   -1    0    0    0    0 -0.00000000000E+00 -0.00000000000E+00 -0.45593999997E+02  0.45594000000E+02  0.51100000000E-03 0. -1.
    9900012    2    1    2    0    0  0.50425271557E+01  0.63449404541E+01  0.44310587726E+02  0.46142317254E+02  0.99999953724E+01 0.  0.
         12    1    1    2    0    0 -0.50425271557E+01 -0.63449404541E+01 -0.44310587726E+02  0.45045682746E+02  0.00000000000E+00 0. -1.
         11    1    3    3    0    0 -0.35508355544E+00 -0.41986216604E+00  0.21423335539E+00  0.59013961187E+00  0.51100000000E-03 0. -1.
        -11    1    3    3    0    0  0.77834621013E+00  0.35231808917E+01  0.32016714685E+02  0.32219383078E+02  0.51100000000E-03 0.  1.
         12    1    3    3    0    0  0.46192645010E+01  0.32416217285E+01  0.12079639685E+02  0.13332794564E+02  0.00000000000E+00 0. -1.
</event>
<event>
 7    1  0.2250716E-008  0.4614232E+02  0.7816164E-02  0.1320468E+00
        -11   -1    0    0    0    0  0.00000000000E+00  0.00000000000E+00  0.45593999997E+02  0.45594000000E+02  0.51100000000E-03 0.  1.
         11   -1    0    0    0    0 -0.00000000000E+00 -0.00000000000E+00 -0.45593999997E+02  0.45594000000E+02  0.51100000000E-03 0. -1.
    9900012    2    1    2    0    0 -0.45623539997E+01 -0.38842744061E+02  0.22350377363E+02  0.46142320868E+02  0.10000028328E+02 0.  0.
         12    1    1    2    0    0  0.45623539997E+01  0.38842744061E+02 -0.22350377363E+02  0.45045679132E+02  0.00000000000E+00 0. -1.
         11    1    3    3    0    0 -0.44732815306E+01 -0.15337627156E+02  0.12692494438E+02  0.20404716850E+02  0.51100000000E-03 0. -1.
        -11    1    3    3    0    0 -0.58488334864E+00 -0.23133399467E+02  0.97503480843E+01  0.25111064244E+02  0.51100000000E-03 0.  1.
        -12    1    3    3    0    0  0.49581087959E+00 -0.37171743828E+00 -0.92465158981E-01  0.62653977357E+00  0.00000000000E+00 0.  1.
</event>
<event>
 7    1  0.2250716E-008  0.4614232E+02  0.7816164E-02  0.1320468E+00
        -11   -1    0    0    0    0  0.00000000000E+00  0.00000000000E+00  0.45593999997E+02  0.45594000000E+02  0.51100000000E-03 0.  1.
         11   -1    0    0    0    0 -0.00000000000E+00 -0.00000000000E+00 -0.45593999997E+02  0.45594000000E+02  0.51100000000E-03 0. -1.
    9900012    2    1    2    0    0  0.63093163018E+00 -0.27130510654E+01  0.44959478698E+02  0.46142318236E+02  0.10000004330E+02 0.  0.
         12    1    1    2    0    0 -0.63093163018E+00  0.27130510654E+01 -0.44959478698E+02  0.45045681764E+02  0.00000000000E+00 0. -1.
         11    1    3    3    0    0  0.21313714601E+01  0.13525035922E+00  0.29721548694E+01  0.36598827562E+01  0.51100000000E-03 0. -1.
        -11    1    3    3    0    0 -0.10094283526E+01  0.84943330407E+00  0.25684224152E+01  0.28874342419E+01  0.51100000000E-03 0.  1.
        -12    1    3    3    0    0 -0.49101147730E+00 -0.36977347287E+01  0.39418901413E+02  0.39595001238E+02  0.00000000000E+00 0.  1.
</event>
<event>
 7    1  0.2250716E-008  0.4614232E+02  0.7816164E-02  0.1320468E+00
        -11   -1    0    0    0    0  0.00000000000E+00  0.00000000000E+00  0.45593999997E+02  0.45594000000E+02  0.51100000000E-03 0.  1.
         11   -1    0    0    0    0 -0.00000000000E+00 -0.00000000000E+00 -0.45593999997E+02  0.45594000000E+02  0.51100000000E-03 0. -1.
    9900012    2    1    2    0    0 -0.14388464773E+02 -0.41120079258E+02  0.11455330246E+02  0.46142318434E+02  0.10000006136E+02 0.  0.
         12    1    1    2    0    0  0.14388464773E+02  0.41120079258E+02 -0.11455330246E+02  0.45045681566E+02  0.00000000000E+00 0. -1.
         11    1    3    3    0    0  0.46042965713E-01  0.31091741371E+00  0.41105122933E+00  0.51744851637E+00  0.51100000000E-03 0. -1.
        -11    1    3    3    0    0 -0.96934593419E+01 -0.23001963273E+02  0.87862236328E+01  0.26462259813E+02  0.51100000000E-03 0.  1.
         12    1    3    3    0    0 -0.47410483971E+01 -0.18429033398E+02  0.22580553844E+01  0.19162610105E+02  0.00000000000E+00 0. -1.
</event>
<event>
 7    1  0.2250716E-008  0.4614232E+02  0.7816164E-02  0.1320468E+00
        -11   -1    0    0    0    0  0.00000000000E+00  0.00000000000E+00  0.45593999997E+02  0.45594000000E+02  0.51100000000E-03 0.  1.
         11   -1    0    0    0    0 -0.00000000000E+00 -0.00000000000E+00 -0.45593999997E+02  0.45594000000E+02  0.51100000000E-03 0. -1.
    9900012    2    1    2    0    0  0.15201203642E+02 -0.89932927528E+01  0.41438600402E+02  0.46142317522E+02  0.99999978152E+01 0.  0.
         12    1    1    2    0    0 -0.15201203642E+02  0.89932927528E+01 -0.41438600402E+02  0.45045682478E+02  0.00000000000E+00 0. -1.
         11    1    3    3    0    0  0.73050870789E+01 -0.67611011571E+01  0.28730012584E+02  0.30405433880E+02  0.51100000000E-03 0. -1.
        -11    1    3    3    0    0  0.53183662852E+01  0.15738695115E+00  0.98939424439E+01  0.11233872348E+02  0.51100000000E-03 0.  1.
         12    1    3    3    0    0  0.25777502781E+01 -0.23895785469E+01  0.28146453740E+01  0.45030112935E+01  0.00000000000E+00 0. -1.
</event>
<event>
 7    1  0.2250716E-008  0.4614232E+02  0.7816164E-02  0.1320468E+00
        -11   -1    0    0    0    0  0.00000000000E+00  0.00000000000E+00  0.45593999997E+02  0.45594000000E+02  0.51100000000E-03 0. -1.
         11   -1    0    0    0    0 -0.00000000000E+00 -0.00000000000E+00 -0.45593999997E+02  0.45594000000E+02  0.51100000000E-03 0.  1.
    9900012    2    1    2    0    0 -0.21858436443E+02 -0.23817015182E+02 -0.31369918392E+02  0.46142320565E+02  0.10000025566E+02 0.  0.
         12    1    1    2    0    0  0.21858436443E+02  0.23817015182E+02  0.31369918392E+02  0.45045679435E+02  0.00000000000E+00 0. -1.
         11    1    3    3    0    0 -0.10730139193E+02 -0.17912218365E+02 -0.19354898414E+02  0.28470959708E+02  0.51100000000E-03 0.  1.
        -11    1    3    3    0    0 -0.18101689282E+01 -0.63219132244E+00 -0.57249850347E+00  0.20010327869E+01  0.51100000000E-03 0. -1.
        -12    1    3    3    0    0 -0.93181283214E+01 -0.52726054944E+01 -0.11442521475E+02  0.15670328070E+02  0.00000000000E+00 0.  1.
</event>
<event>
 7    1  0.2250716E-008  0.4614232E+02  0.7816164E-02  0.1320468E+00
        -11   -1    0    0    0    0  0.00000000000E+00  0.00000000000E+00  0.45593999997E+02  0.45594000000E+02  0.51100000000E-03 0.  1.
         11   -1    0    0    0    0 -0.00000000000E+00 -0.00000000000E+00 -0.45593999997E+02  0.45594000000E+02  0.51100000000E-03 0. -1.
    9900012    2    1    2    0    0 -0.21574428839E+02  0.18055948934E+02  0.35180110776E+02  0.46142318011E+02  0.10000002279E+02 0.  0.
         12    1    1    2    0    0  0.21574428839E+02 -0.18055948934E+02 -0.35180110776E+02  0.45045681989E+02  0.00000000000E+00 0. -1.
         11    1    3    3    0    0 -0.17491369087E+01 -0.28356800028E+00  0.28689063304E+01  0.33720193549E+01  0.51100000000E-03 0. -1.
        -11    1    3    3    0    0 -0.15980252680E+02  0.10030672954E+02  0.21782723544E+02  0.28817875024E+02  0.51100000000E-03 0.  1.
         12    1    3    3    0    0 -0.38450392506E+01  0.83088439801E+01  0.10528480901E+02  0.13952423632E+02  0.00000000000E+00 0. -1.
</event>
<event>
 7    1  0.2250716E-008  0.4614232E+02  0.7816164E-02  0.1320468E+00
        -11   -1    0    0    0    0  0.00000000000E+00  0.00000000000E+00  0.45593999997E+02  0.45594000000E+02  0.51100000000E-03 0. -1.
         11   -1    0    0    0    0 -0.00000000000E+00 -0.00000000000E+00 -0.45593999997E+02  0.45594000000E+02  0.51100000000E-03 0.  1.
    9900012    2    1    2    0    0 -0.64440712611E+01  0.44289096283E+02 -0.51052325759E+01  0.46142317591E+02  0.99999984505E+01 0.  0.
         12    1    1    2    0    0  0.64440712611E+01 -0.44289096283E+02  0.51052325759E+01  0.45045682409E+02  0.00000000000E+00 0. -1.
         11    1    3    3    0    0 -0.25781383043E+01  0.30611517759E+02 -0.22677409151E+01  0.30803481390E+02  0.51100000000E-03 0.  1.
        -11    1    3    3    0    0 -0.18751531395E+00  0.93897590674E+01 -0.12786196721E+01  0.94782701937E+01  0.51100000000E-03 0. -1.
         12    1    3    3    0    0 -0.36784176429E+01  0.42878194571E+01 -0.15588719887E+01  0.58605660076E+01  0.00000000000E+00 0. -1.
</event>
<event>
 7    1  0.2250716E-008  0.4614232E+02  0.7816164E-02  0.1320468E+00
        -11   -1    0    0    0    0  0.00000000000E+00  0.00000000000E+00  0.45593999997E+02  0.45594000000E+02  0.51100000000E-03 0. -1.
         11   -1    0    0    0    0 -0.00000000000E+00 -0.00000000000E+00 -0.45593999997E+02  0.45594000000E+02  0.51100000000E-03 0.  1.
    9900012    2    1    2    0    0  0.13051886241E+01 -0.44098645105E+02  0.90950279179E+01  0.46142317074E+02  0.99999937331E+01 0.  0.
         12    1    1    2    0    0 -0.13051886241E+01  0.44098645105E+02 -0.90950279179E+01  0.45045682926E+02  0.00000000000E+00 0. -1.
         11    1    3    3    0    0  0.11765491579E+01 -0.13336100252E+02  0.52979338707E+01  0.14398053389E+02  0.51100000000E-03 0. -1.
        -11    1    3    3    0    0  0.26520552860E+01 -0.11465182667E+02  0.35110031312E+01  0.12280511148E+02  0.51100000000E-03 0.  1.
        -12    1    3    3    0    0 -0.25234158198E+01 -0.19297362187E+02  0.28609091591E+00  0.19463752536E+02  0.00000000000E+00 0.  1.
</event>
<event>
 7    1  0.2250716E-008  0.4614232E+02  0.7816164E-02  0.1320468E+00
        -11   -1    0    0    0    0  0.00000000000E+00  0.00000000000E+00  0.45593999997E+02  0.45594000000E+02  0.51100000000E-03 0.  1.
         11   -1    0    0    0    0 -0.00000000000E+00 -0.00000000000E+00 -0.45593999997E+02  0.45594000000E+02  0.51100000000E-03 0. -1.
    9900012    2    1    2    0    0 -0.20326335797E+02  0.31085733254E+02  0.25487853272E+02  0.46142318705E+02  0.10000008609E+02 0.  0.
         12    1    1    2    0    0  0.20326335797E+02 -0.31085733254E+02 -0.25487853272E+02  0.45045681295E+02  0.00000000000E+00 0. -1.
         11    1    3    3    0    0 -0.17815132707E+02  0.29742071112E+02  0.22359040315E+02  0.41254047456E+02  0.51100000000E-03 0.  1.
        -11    1    3    3    0    0 -0.44335869797E+00  0.13988590904E+01  0.21417956611E+01  0.25962786069E+01  0.51100000000E-03 0. -1.
         12    1    3    3    0    0 -0.20678443919E+01 -0.55196947613E-01  0.98701729546E+00  0.22919926426E+01  0.00000000000E+00 0. -1.
</event>
<event>
 7    1  0.2250716E-008  0.4614232E+02  0.7816164E-02  0.1320468E+00
        -11   -1    0    0    0    0  0.00000000000E+00  0.00000000000E+00  0.45593999997E+02  0.45594000000E+02  0.51100000000E-03 0.  1.
         11   -1    0    0    0    0 -0.00000000000E+00 -0.00000000000E+00 -0.45593999997E+02  0.45594000000E+02  0.51100000000E-03 0. -1.
    9900012    2    1    2    0    0 -0.18780685965E+02 -0.26023848379E+02  0.31609471154E+02  0.46142317450E+02  0.99999971652E+01 0.  0.
         12    1    1    2    0    0  0.18780685965E+02  0.26023848379E+02 -0.31609471154E+02  0.45045682550E+02  0.00000000000E+00 0. -1.
         11    1    3    3    0    0 -0.57610457623E+00 -0.70098054767E+00  0.30390425891E-01  0.90785133699E+00  0.51100000000E-03 0. -1.
        -11    1    3    3    0    0 -0.11996229559E+02 -0.22511148474E+02  0.26041490806E+02  0.36452991275E+02  0.51100000000E-03 0.  1.
        -12    1    3    3    0    0 -0.62083518306E+01 -0.28117193573E+01  0.55375899220E+01  0.87814748387E+01  0.00000000000E+00 0.  1.
</event>
<event>
 7    1  0.2250716E-008  0.4614232E+02  0.7816164E-02  0.1320468E+00
        -11   -1    0    0    0    0  0.00000000000E+00  0.00000000000E+00  0.45593999997E+02  0.45594000000E+02  0.51100000000E-03 0.  1.
         11   -1    0    0    0    0 -0.00000000000E+00 -0.00000000000E+00 -0.45593999997E+02  0.45594000000E+02  0.51100000000E-03 0. -1.
    9900012    2    1    2    0    0  0.43734388844E+02 -0.96656521496E+01  0.47950076290E+01  0.46142315443E+02  0.99999788635E+01 0.  0.
         12    1    1    2    0    0 -0.43734388844E+02  0.96656521496E+01 -0.47950076290E+01  0.45045684557E+02  0.00000000000E+00 0. -1.
         11    1    3    3    0    0  0.13160563268E+02 -0.40208125405E+00 -0.13441185128E+01  0.13235133158E+02  0.51100000000E-03 0. -1.
        -11    1    3    3    0    0  0.35923341866E+01 -0.23380064872E+01  0.20546836243E+01  0.47531951674E+01  0.51100000000E-03 0.  1.
         12    1    3    3    0    0  0.26981491389E+02 -0.69255644084E+01  0.40844425175E+01  0.28153987118E+02  0.00000000000E+00 0. -1.
</event>
<event>
 7    1  0.2250716E-008  0.4614232E+02  0.7816164E-02  0.1320468E+00
        -11   -1    0    0    0    0  0.00000000000E+00  0.00000000000E+00  0.45593999997E+02  0.45594000000E+02  0.51100000000E-03 0.  1.
         11   -1    0    0    0    0 -0.00000000000E+00 -0.00000000000E+00 -0.45593999997E+02  0.45594000000E+02  0.51100000000E-03 0. -1.
    9900012    2    1    2    0    0  0.37470457217E+01 -0.13357844886E+01  0.44869689479E+02  0.46142315347E+02  0.99999779902E+01 0.  0.
         12    1    1    2    0    0 -0.37470457217E+01  0.13357844886E+01 -0.44869689479E+02  0.45045684653E+02  0.00000000000E+00 0. -1.
         11    1    3    3    0    0  0.12584067791E+00  0.98062803360E+00  0.43081759740E+00  0.10784578248E+01  0.51100000000E-03 0. -1.
        -11    1    3    3    0    0  0.34867052284E+01  0.68101996622E+00  0.34487348699E+02  0.34669844564E+02  0.51100000000E-03 0.  1.
        -12    1    3    3    0    0  0.13449981542E+00 -0.29974324884E+01  0.99515231832E+01  0.10394012959E+02  0.00000000000E+00 0.  1.
</event>
<event>
 7    1  0.2250716E-008  0.4614232E+02  0.7816164E-02  0.1320468E+00
        -11   -1    0    0    0    0  0.00000000000E+00  0.00000000000E+00  0.45593999997E+02  0.45594000000E+02  0.51100000000E-03 0.  1.
         11   -1    0    0    0    0 -0.00000000000E+00 -0.00000000000E+00 -0.45593999997E+02  0.45594000000E+02  0.51100000000E-03 0. -1.
    9900012    2    1    2    0    0  0.39768879452E+02  0.10445620396E+02 -0.18396705315E+02  0.46142317357E+02  0.99999963188E+01 0.  0.
         12    1    1    2    0    0 -0.39768879452E+02 -0.10445620396E+02  0.18396705315E+02  0.45045682643E+02  0.00000000000E+00 0. -1.
         11    1    3    3    0    0  0.43250713826E+01 -0.50342497422E+00 -0.34638974538E+01  0.55640151870E+01  0.51100000000E-03 0. -1.
        -11    1    3    3    0    0  0.11746925074E+02  0.12664198230E+01 -0.72048885265E+01  0.13838514617E+02  0.51100000000E-03 0.  1.
        -12    1    3    3    0    0  0.23696882995E+02  0.96826255473E+01 -0.77279193347E+01  0.26739787554E+02  0.00000000000E+00 0.  1.
</event>
<event>
 7    1  0.2250716E-008  0.4614232E+02  0.7816164E-02  0.1320468E+00
        -11   -1    0    0    0    0  0.00000000000E+00  0.00000000000E+00  0.45593999997E+02  0.45594000000E+02  0.51100000000E-03 0.  1.
         11   -1    0    0    0    0 -0.00000000000E+00 -0.00000000000E+00 -0.45593999997E+02  0.45594000000E+02  0.51100000000E-03 0. -1.
    9900012    2    1    2    0    0 -0.23006966410E+01  0.42555113694E+02  0.14590495833E+02  0.46142317907E+02  0.10000001333E+02 0.  0.
         12    1    1    2    0    0  0.23006966410E+01 -0.42555113694E+02 -0.14590495833E+02  0.45045682093E+02  0.00000000000E+00 0. -1.
         11    1    3    3    0    0 -0.93721385100E+00  0.16771163787E+02  0.94926919148E+01  0.19294079523E+02  0.51100000000E-03 0. -1.
        -11    1    3    3    0    0  0.17086889816E+01  0.40091814151E+01  0.11366130561E+01  0.45038920009E+01  0.51100000000E-03 0.  1.
        -12    1    3    3    0    0 -0.30721717716E+01  0.21774768492E+02  0.39611908619E+01  0.22344346383E+02  0.00000000000E+00 0.  1.
</event>
<event>
 7    1  0.2250716E-008  0.4614232E+02  0.7816164E-02  0.1320468E+00
        -11   -1    0    0    0    0  0.00000000000E+00  0.00000000000E+00  0.45593999997E+02  0.45594000000E+02  0.51100000000E-03 0. -1.
         11   -1    0    0    0    0 -0.00000000000E+00 -0.00000000000E+00 -0.45593999997E+02  0.45594000000E+02  0.51100000000E-03 0.  1.
    9900012    2    1    2    0    0  0.64058811914E+01 -0.67604954942E+01 -0.44072370693E+02  0.46142317947E+02  0.10000001693E+02 0.  0.
         12    1    1    2    0    0 -0.64058811914E+01  0.67604954942E+01  0.44072370693E+02  0.45045682053E+02  0.00000000000E+00 0. -1.
         11    1    3    3    0    0 -0.14264198154E+01  0.73332109680E+00 -0.12638513185E+02  0.12739876338E+02  0.51100000000E-03 0. -1.
        -11    1    3    3    0    0  0.57967663415E+00 -0.14203997592E+01 -0.77285526840E+01  0.78793456153E+01  0.51100000000E-03 0.  1.
         12    1    3    3    0    0  0.72526243727E+01 -0.60734168318E+01 -0.23705304824E+02  0.25523095994E+02  0.00000000000E+00 0. -1.
</event>
<event>
 7    1  0.2250716E-008  0.4614232E+02  0.7816164E-02  0.1320468E+00
        -11   -1    0    0    0    0  0.00000000000E+00  0.00000000000E+00  0.45593999997E+02  0.45594000000E+02  0.51100000000E-03 0.  1.
         11   -1    0    0    0    0 -0.00000000000E+00 -0.00000000000E+00 -0.45593999997E+02  0.45594000000E+02  0.51100000000E-03 0. -1.
    9900012    2    1    2    0    0  0.38000840413E+02 -0.23655210051E+02  0.50478393203E+01  0.46142317449E+02  0.99999971566E+01 0.  0.
         12    1    1    2    0    0 -0.38000840413E+02  0.23655210051E+02 -0.50478393203E+01  0.45045682551E+02  0.00000000000E+00 0. -1.
         11    1    3    3    0    0  0.11395720638E+02 -0.43693740415E+01 -0.21414724420E+00  0.12206544870E+02  0.51100000000E-03 0. -1.
        -11    1    3    3    0    0  0.18396334067E+02 -0.99685916082E+01  0.15768394589E+01  0.20982953765E+02  0.51100000000E-03 0.  1.
         12    1    3    3    0    0  0.82087857080E+01 -0.93172444018E+01  0.36851471056E+01  0.12952818814E+02  0.00000000000E+00 0. -1.
</event>
<event>
 7    1  0.2250716E-008  0.4614232E+02  0.7816164E-02  0.1320468E+00
        -11   -1    0    0    0    0  0.00000000000E+00  0.00000000000E+00  0.45593999997E+02  0.45594000000E+02  0.51100000000E-03 0. -1.
         11   -1    0    0    0    0 -0.00000000000E+00 -0.00000000000E+00 -0.45593999997E+02  0.45594000000E+02  0.51100000000E-03 0.  1.
    9900012    2    1    2    0    0  0.37941771060E+02 -0.13889261497E+02 -0.19915418182E+02  0.46142318104E+02  0.10000003129E+02 0.  0.
         12    1    1    2    0    0 -0.37941771060E+02  0.13889261497E+02  0.19915418182E+02  0.45045681896E+02  0.00000000000E+00 0. -1.
         11    1    3    3    0    0  0.26042028964E+02 -0.93378353886E+01 -0.14316326474E+02  0.31150275220E+02  0.51100000000E-03 0. -1.
        -11    1    3    3    0    0  0.11199239215E+02 -0.53781571430E+01 -0.60498824984E+01  0.13818415675E+02  0.51100000000E-03 0.  1.
         12    1    3    3    0    0  0.70050288008E+00  0.82673103490E+00  0.45079079043E+00  0.11736272090E+01  0.00000000000E+00 0. -1.
</event>
<event>
 7    1  0.2250716E-008  0.4614232E+02  0.7816164E-02  0.1320468E+00
        -11   -1    0    0    0    0  0.00000000000E+00  0.00000000000E+00  0.45593999997E+02  0.45594000000E+02  0.51100000000E-03 0.  1.
         11   -1    0    0    0    0 -0.00000000000E+00 -0.00000000000E+00 -0.45593999997E+02  0.45594000000E+02  0.51100000000E-03 0. -1.
    9900012    2    1    2    0    0  0.26416587340E+02 -0.64963000994E+01  0.35903699122E+02  0.46142316385E+02  0.99999874540E+01 0.  0.
         12    1    1    2    0    0 -0.26416587340E+02  0.64963000994E+01 -0.35903699122E+02  0.45045683615E+02  0.00000000000E+00 0. -1.
         11    1    3    3    0    0  0.61355461712E+01 -0.11788054268E+01  0.86845105963E+01  0.10698375279E+02  0.51100000000E-03 0.  1.
        -11    1    3    3    0    0  0.34836788053E+01 -0.38721991068E+01  0.10390017387E+02  0.11622495666E+02  0.51100000000E-03 0. -1.
         12    1    3    3    0    0  0.16797362364E+02 -0.14452955659E+01  0.16829171138E+02  0.23821445440E+02  0.00000000000E+00 0. -1.
</event>
<event>
 7    1  0.2250716E-008  0.4614232E+02  0.7816164E-02  0.1320468E+00
        -11   -1    0    0    0    0  0.00000000000E+00  0.00000000000E+00  0.45593999997E+02  0.45594000000E+02  0.51100000000E-03 0.  1.
         11   -1    0    0    0    0 -0.00000000000E+00 -0.00000000000E+00 -0.45593999997E+02  0.45594000000E+02  0.51100000000E-03 0. -1.
    9900012    2    1    2    0    0 -0.34844081604E+02  0.23877955435E+02  0.15647579874E+02  0.46142317249E+02  0.99999953302E+01 0.  0.
         12    1    1    2    0    0  0.34844081604E+02 -0.23877955435E+02 -0.15647579874E+02  0.45045682751E+02  0.00000000000E+00 0. -1.
         11    1    3    3    0    0 -0.99413972669E+01  0.94446736019E+01  0.78849863124E+01  0.15817909106E+02  0.51100000000E-03 0. -1.
        -11    1    3    3    0    0 -0.15261221561E+02  0.11793093946E+02  0.44513809792E+01  0.19793856149E+02  0.51100000000E-03 0.  1.
         12    1    3    3    0    0 -0.96414627764E+01  0.26401878867E+01  0.33112125821E+01  0.10530551995E+02  0.00000000000E+00 0. -1.
</event>
<event>
 7    1  0.2250716E-008  0.4614232E+02  0.7816164E-02  0.1320468E+00
        -11   -1    0    0    0    0  0.00000000000E+00  0.00000000000E+00  0.45593999997E+02  0.45594000000E+02  0.51100000000E-03 0.  1.
         11   -1    0    0    0    0 -0.00000000000E+00 -0.00000000000E+00 -0.45593999997E+02  0.45594000000E+02  0.51100000000E-03 0. -1.
    9900012    2    1    2    0    0 -0.36477410615E+02 -0.15123766741E+02  0.21674493386E+02  0.46142317974E+02  0.10000001942E+02 0.  0.
         12    1    1    2    0    0  0.36477410615E+02  0.15123766741E+02 -0.21674493386E+02  0.45045682026E+02  0.00000000000E+00 0. -1.
         11    1    3    3    0    0 -0.76733429846E+01 -0.72448396302E+01  0.32649724973E+01  0.11046625706E+02  0.51100000000E-03 0. -1.
        -11    1    3    3    0    0 -0.16178206266E+02 -0.47569089929E+01  0.10854453771E+02  0.20054468532E+02  0.51100000000E-03 0.  1.
         12    1    3    3    0    0 -0.12625861365E+02 -0.31220181176E+01  0.75550671178E+01  0.15041223736E+02  0.00000000000E+00 0. -1.
</event>
<event>
 7    1  0.2250716E-008  0.4614232E+02  0.7816164E-02  0.1320468E+00
        -11   -1    0    0    0    0  0.00000000000E+00  0.00000000000E+00  0.45593999997E+02  0.45594000000E+02  0.51100000000E-03 0.  1.
         11   -1    0    0    0    0 -0.00000000000E+00 -0.00000000000E+00 -0.45593999997E+02  0.45594000000E+02  0.51100000000E-03 0. -1.
    9900012    2    1    2    0    0 -0.16945951711E+02  0.41389099148E+02 -0.53750200368E+01  0.46142315989E+02  0.99999838383E+01 0.  0.
         12    1    1    2    0    0  0.16945951711E+02 -0.41389099148E+02  0.53750200368E+01  0.45045684011E+02  0.00000000000E+00 0. -1.
         11    1    3    3    0    0 -0.86001068536E+01  0.25899877986E+02 -0.29555824679E+01  0.27449972415E+02  0.51100000000E-03 0. -1.
        -11    1    3    3    0    0 -0.84333203772E+01  0.11996086371E+02 -0.42708390801E+00  0.14670016419E+02  0.51100000000E-03 0.  1.
         12    1    3    3    0    0  0.87475520062E-01  0.34931347902E+01 -0.19923536609E+01  0.40223271547E+01  0.00000000000E+00 0. -1.
</event>
<event>
 7    1  0.2250716E-008  0.4614231E+02  0.7816164E-02  0.1320468E+00
        -11   -1    0    0    0    0  0.00000000000E+00  0.00000000000E+00  0.45593999997E+02  0.45594000000E+02  0.51100000000E-03 0.  1.
         11   -1    0    0    0    0 -0.00000000000E+00 -0.00000000000E+00 -0.45593999997E+02  0.45594000000E+02  0.51100000000E-03 0. -1.
    9900012    2    1    2    0    0  0.84269363612E+00 -0.62314122510E+01  0.44604631174E+02  0.46142314820E+02  0.99999731780E+01 0.  0.
         12    1    1    2    0    0 -0.84269363612E+00  0.62314122510E+01 -0.44604631174E+02  0.45045685180E+02  0.00000000000E+00 0. -1.
         11    1    3    3    0    0  0.17845348185E+01  0.99175780373E+00  0.16836384909E+02  0.16959717129E+02  0.51100000000E-03 0. -1.
        -11    1    3    3    0    0 -0.13960714811E+01 -0.33039981436E+01  0.54911547374E+01  0.65588261087E+01  0.51100000000E-03 0.  1.
        -12    1    3    3    0    0  0.45423029875E+00 -0.39191719111E+01  0.22277091528E+02  0.22623771582E+02  0.00000000000E+00 0.  1.
</event>
<event>
 7    1  0.2250716E-008  0.4614232E+02  0.7816164E-02  0.1320468E+00
        -11   -1    0    0    0    0  0.00000000000E+00  0.00000000000E+00  0.45593999997E+02  0.45594000000E+02  0.51100000000E-03 0. -1.
         11   -1    0    0    0    0 -0.00000000000E+00 -0.00000000000E+00 -0.45593999997E+02  0.45594000000E+02  0.51100000000E-03 0.  1.
    9900012    2    1    2    0    0 -0.65945682419E+01  0.15611485231E+02 -0.41736155655E+02  0.46142317740E+02  0.99999998033E+01 0.  0.
         12    1    1    2    0    0  0.65945682419E+01 -0.15611485231E+02  0.41736155655E+02  0.45045682260E+02  0.00000000000E+00 0. -1.
         11    1    3    3    0    0 -0.42946068719E+01  0.13709238529E+02 -0.25706611562E+02  0.29448544064E+02  0.51100000000E-03 0. -1.
        -11    1    3    3    0    0 -0.74717979775E+00  0.21232424830E+01 -0.13711169000E+02  0.13894696538E+02  0.51100000000E-03 0.  1.
         12    1    3    3    0    0 -0.15527815723E+01 -0.22099578039E+00 -0.23183750937E+01  0.27990771374E+01  0.00000000000E+00 0. -1.
</event>
<event>
 7    1  0.2250716E-008  0.4614232E+02  0.7816164E-02  0.1320468E+00
        -11   -1    0    0    0    0  0.00000000000E+00  0.00000000000E+00  0.45593999997E+02  0.45594000000E+02  0.51100000000E-03 0. -1.
         11   -1    0    0    0    0 -0.00000000000E+00 -0.00000000000E+00 -0.45593999997E+02  0.45594000000E+02  0.51100000000E-03 0.  1.
    9900012    2    1    2    0    0  0.24336289766E+02 -0.37646015921E+02 -0.44312534009E+01  0.46142317399E+02  0.99999966975E+01 0.  0.
         12    1    1    2    0    0 -0.24336289766E+02  0.37646015921E+02  0.44312534009E+01  0.45045682601E+02  0.00000000000E+00 0. -1.
         11    1    3    3    0    0  0.73862444716E+01 -0.98140831961E+01 -0.53712980754E+00  0.12294769012E+02  0.51100000000E-03 0. -1.
        -11    1    3    3    0    0  0.11392167691E+02 -0.13908269257E+02  0.11881524737E+01  0.18017578777E+02  0.51100000000E-03 0.  1.
         12    1    3    3    0    0  0.55578776034E+01 -0.13923663467E+02 -0.50822760670E+01  0.15829969609E+02  0.00000000000E+00 0. -1.
</event>
<event>
 7    1  0.2250716E-008  0.4614232E+02  0.7816164E-02  0.1320468E+00
        -11   -1    0    0    0    0  0.00000000000E+00  0.00000000000E+00  0.45593999997E+02  0.45594000000E+02  0.51100000000E-03 0. -1.
         11   -1    0    0    0    0 -0.00000000000E+00 -0.00000000000E+00 -0.45593999997E+02  0.45594000000E+02  0.51100000000E-03 0.  1.
    9900012    2    1    2    0    0 -0.13472455040E+02 -0.15396380330E+01 -0.42956209097E+02  0.46142318409E+02  0.10000005904E+02 0.  0.
         12    1    1    2    0    0  0.13472455040E+02  0.15396380330E+01  0.42956209097E+02  0.45045681591E+02  0.00000000000E+00 0. -1.
         11    1    3    3    0    0 -0.21915902854E+01  0.68656782171E+00 -0.14358632066E+01  0.27085322154E+01  0.51100000000E-03 0. -1.
        -11    1    3    3    0    0 -0.10034729464E+02 -0.33604195363E+01 -0.30462392700E+02  0.32248187301E+02  0.51100000000E-03 0.  1.
         12    1    3    3    0    0 -0.12461352904E+01  0.11342136816E+01 -0.11057953190E+02  0.11185598893E+02  0.00000000000E+00 0. -1.
</event>
<event>
 7    1  0.2250716E-008  0.4614232E+02  0.7816164E-02  0.1320468E+00
        -11   -1    0    0    0    0  0.00000000000E+00  0.00000000000E+00  0.45593999997E+02  0.45594000000E+02  0.51100000000E-03 0. -1.
         11   -1    0    0    0    0 -0.00000000000E+00 -0.00000000000E+00 -0.45593999997E+02  0.45594000000E+02  0.51100000000E-03 0.  1.
    9900012    2    1    2    0    0  0.35976784405E+02  0.27023478887E+02  0.21251080526E+01  0.46142317504E+02  0.99999976527E+01 0.  0.
         12    1    1    2    0    0 -0.35976784405E+02 -0.27023478887E+02 -0.21251080526E+01  0.45045682496E+02  0.00000000000E+00 0. -1.
         11    1    3    3    0    0  0.17349078610E+02  0.89526049004E+01  0.46206533357E+00  0.19528265867E+02  0.51100000000E-03 0. -1.
        -11    1    3    3    0    0  0.17967453197E+02  0.18483325415E+02  0.15153722255E+01  0.25821677831E+02  0.51100000000E-03 0.  1.
        -12    1    3    3    0    0  0.66025259831E+00 -0.41245142773E+00  0.14767049354E+00  0.79237380602E+00  0.00000000000E+00 0.  1.
</event>
<event>
 7    1  0.2250716E-008  0.4614232E+02  0.7816164E-02  0.1320468E+00
        -11   -1    0    0    0    0  0.00000000000E+00  0.00000000000E+00  0.45593999997E+02  0.45594000000E+02  0.51100000000E-03 0. -1.
         11   -1    0    0    0    0 -0.00000000000E+00 -0.00000000000E+00 -0.45593999997E+02  0.45594000000E+02  0.51100000000E-03 0.  1.
    9900012    2    1    2    0    0 -0.55537202415E+01  0.23069917993E+02 -0.38289013261E+02  0.46142318062E+02  0.10000002747E+02 0.  0.
         12    1    1    2    0    0  0.55537202415E+01 -0.23069917993E+02  0.38289013261E+02  0.45045681938E+02  0.00000000000E+00 0. -1.
         11    1    3    3    0    0 -0.53482315865E+01  0.10480483145E+02 -0.23031652303E+02  0.25863122707E+02  0.51100000000E-03 0. -1.
        -11    1    3    3    0    0  0.12547249432E+00  0.64148363815E+01 -0.11123235793E+02  0.12841037493E+02  0.51100000000E-03 0.  1.
         12    1    3    3    0    0 -0.33096114937E+00  0.61745984662E+01 -0.41341251650E+01  0.74381578620E+01  0.00000000000E+00 0. -1.
</event>
<event>
 7    1  0.2250716E-008  0.4614232E+02  0.7816164E-02  0.1320468E+00
        -11   -1    0    0    0    0  0.00000000000E+00  0.00000000000E+00  0.45593999997E+02  0.45594000000E+02  0.51100000000E-03 0.  1.
         11   -1    0    0    0    0 -0.00000000000E+00 -0.00000000000E+00 -0.45593999997E+02  0.45594000000E+02  0.51100000000E-03 0. -1.
    9900012    2    1    2    0    0 -0.79226587236E+00  0.44837649515E+02  0.42509840421E+01  0.46142319135E+02  0.10000012531E+02 0.  0.
         12    1    1    2    0    0  0.79226587236E+00 -0.44837649515E+02 -0.42509840421E+01  0.45045680865E+02  0.00000000000E+00 0. -1.
         11    1    3    3    0    0  0.39879281300E-01  0.96665660611E+00  0.13824968119E+01  0.16873983072E+01  0.51100000000E-03 0. -1.
        -11    1    3    3    0    0 -0.31177148541E+01  0.35633828627E+02  0.15324366510E+01  0.35802768760E+02  0.51100000000E-03 0.  1.
        -12    1    3    3    0    0  0.22855697005E+01  0.82371642822E+01  0.13360505792E+01  0.86521520686E+01  0.00000000000E+00 0.  1.
</event>
<event>
 7    1  0.2250716E-008  0.4614232E+02  0.7816164E-02  0.1320468E+00
        -11   -1    0    0    0    0  0.00000000000E+00  0.00000000000E+00  0.45593999997E+02  0.45594000000E+02  0.51100000000E-03 0. -1.
         11   -1    0    0    0    0 -0.00000000000E+00 -0.00000000000E+00 -0.45593999997E+02  0.45594000000E+02  0.51100000000E-03 0.  1.
    9900012    2    1    2    0    0 -0.43700550450E+02  0.20062991579E+01 -0.10740107351E+02  0.46142320386E+02  0.10000023936E+02 0.  0.
         12    1    1    2    0    0  0.43700550450E+02 -0.20062991579E+01  0.10740107351E+02  0.45045679614E+02  0.00000000000E+00 0. -1.
         11    1    3    3    0    0 -0.16594130222E+02  0.18513419271E+00 -0.76941028213E+01  0.18292037912E+02  0.51100000000E-03 0. -1.
        -11    1    3    3    0    0 -0.17557503514E+02  0.36504936813E+01 -0.25685632416E+01  0.18116002626E+02  0.51100000000E-03 0.  1.
        -12    1    3    3    0    0 -0.95489167142E+01 -0.18293287161E+01 -0.47744128773E+00  0.97342798475E+01  0.00000000000E+00 0.  1.
</event>
<event>
 7    1  0.2250716E-008  0.4614232E+02  0.7816164E-02  0.1320468E+00
        -11   -1    0    0    0    0  0.00000000000E+00  0.00000000000E+00  0.45593999997E+02  0.45594000000E+02  0.51100000000E-03 0. -1.
         11   -1    0    0    0    0 -0.00000000000E+00 -0.00000000000E+00 -0.45593999997E+02  0.45594000000E+02  0.51100000000E-03 0.  1.
    9900012    2    1    2    0    0 -0.25777187756E+02  0.18118965964E+02 -0.32192438918E+02  0.46142318079E+02  0.10000002900E+02 0.  0.
         12    1    1    2    0    0  0.25777187756E+02 -0.18118965964E+02  0.32192438918E+02  0.45045681921E+02  0.00000000000E+00 0. -1.
         11    1    3    3    0    0 -0.20600779560E+01 -0.16487651849E+00 -0.50542295145E+01  0.54604342041E+01  0.51100000000E-03 0. -1.
        -11    1    3    3    0    0 -0.13973463402E+02  0.78438985878E+01 -0.14604133145E+02  0.21680985440E+02  0.51100000000E-03 0.  1.
         12    1    3    3    0    0 -0.97436463980E+01  0.10439943895E+02 -0.12534076259E+02  0.19000898435E+02  0.00000000000E+00 0. -1.
</event>
<event>
 7    1  0.2250716E-008  0.4614232E+02  0.7816164E-02  0.1320468E+00
        -11   -1    0    0    0    0  0.00000000000E+00  0.00000000000E+00  0.45593999997E+02  0.45594000000E+02  0.51100000000E-03 0.  1.
         11   -1    0    0    0    0 -0.00000000000E+00 -0.00000000000E+00 -0.45593999997E+02  0.45594000000E+02  0.51100000000E-03 0. -1.
    9900012    2    1    2    0    0  0.33918887125E+02 -0.26562645025E+02  0.13154778256E+02  0.46142320901E+02  0.10000028633E+02 0.  0.
         12    1    1    2    0    0 -0.33918887125E+02  0.26562645025E+02 -0.13154778256E+02  0.45045679099E+02  0.00000000000E+00 0. -1.
         11    1    3    3    0    0  0.27601884069E+01 -0.72616259994E+00  0.15530466943E+01  0.32492932245E+01  0.51100000000E-03 0. -1.
        -11    1    3    3    0    0  0.22462722106E+02 -0.22686939371E+02  0.10339373177E+02  0.33558512190E+02  0.51100000000E-03 0.  1.
        -12    1    3    3    0    0  0.86959766117E+01 -0.31495430541E+01  0.12623583845E+01  0.93345154867E+01  0.00000000000E+00 0.  1.
</event>
<event>
 7    1  0.2250716E-008  0.4614232E+02  0.7816164E-02  0.1320468E+00
        -11   -1    0    0    0    0  0.00000000000E+00  0.00000000000E+00  0.45593999997E+02  0.45594000000E+02  0.51100000000E-03 0. -1.
         11   -1    0    0    0    0 -0.00000000000E+00 -0.00000000000E+00 -0.45593999997E+02  0.45594000000E+02  0.51100000000E-03 0.  1.
    9900012    2    1    2    0    0 -0.22021138525E+02 -0.16012348287E+02 -0.35885758466E+02  0.46142317629E+02  0.99999987924E+01 0.  0.
         12    1    1    2    0    0  0.22021138525E+02  0.16012348287E+02  0.35885758466E+02  0.45045682371E+02  0.00000000000E+00 0. -1.
         11    1    3    3    0    0 -0.44765408023E+01 -0.76414996037E+01 -0.13440407021E+02  0.16095852724E+02  0.51100000000E-03 0.  1.
        -11    1    3    3    0    0 -0.48846297349E+01 -0.25843499600E+01 -0.35150887243E+01  0.65493756468E+01  0.51100000000E-03 0. -1.
        -12    1    3    3    0    0 -0.12659967988E+02 -0.57864987234E+01 -0.18930262721E+02  0.23497089258E+02  0.00000000000E+00 0.  1.
</event>
<event>
 7    1  0.2250716E-008  0.4614232E+02  0.7816164E-02  0.1320468E+00
        -11   -1    0    0    0    0  0.00000000000E+00  0.00000000000E+00  0.45593999997E+02  0.45594000000E+02  0.51100000000E-03 0.  1.
         11   -1    0    0    0    0 -0.00000000000E+00 -0.00000000000E+00 -0.45593999997E+02  0.45594000000E+02  0.51100000000E-03 0. -1.
    9900012    2    1    2    0    0  0.19641121050E+02 -0.24956921825E+02  0.31945135431E+02  0.46142320287E+02  0.10000023033E+02 0.  0.
         12    1    1    2    0    0 -0.19641121050E+02  0.24956921825E+02 -0.31945135431E+02  0.45045679713E+02  0.00000000000E+00 0. -1.
         11    1    3    3    0    0  0.10256661221E+02 -0.80287280668E+01  0.14015689856E+02  0.19133717260E+02  0.51100000000E-03 0. -1.
        -11    1    3    3    0    0 -0.42596656380E+00 -0.35182854701E+01  0.25298875201E+01  0.43543209905E+01  0.51100000000E-03 0.  1.
        -12    1    3    3    0    0  0.98104263922E+01 -0.13409908288E+02  0.15399558056E+02  0.22654282037E+02  0.00000000000E+00 0.  1.
</event>
<event>
 7    1  0.2250716E-008  0.4614232E+02  0.7816164E-02  0.1320468E+00
        -11   -1    0    0    0    0  0.00000000000E+00  0.00000000000E+00  0.45593999997E+02  0.45594000000E+02  0.51100000000E-03 0.  1.
         11   -1    0    0    0    0 -0.00000000000E+00 -0.00000000000E+00 -0.45593999997E+02  0.45594000000E+02  0.51100000000E-03 0. -1.
    9900012    2    1    2    0    0  0.68743276381E+00 -0.11236372948E+02  0.43616337394E+02  0.46142317315E+02  0.99999959343E+01 0.  0.
         12    1    1    2    0    0 -0.68743276381E+00  0.11236372948E+02 -0.43616337394E+02  0.45045682685E+02  0.00000000000E+00 0. -1.
         11    1    3    3    0    0  0.71884681219E+00 -0.54527232254E+00 -0.81707407469E-01  0.90594647010E+00  0.51100000000E-03 0. -1.
        -11    1    3    3    0    0  0.63634403775E+00 -0.10036258332E+02  0.42701502105E+02  0.43869689962E+02  0.51100000000E-03 0.  1.
         12    1    3    3    0    0 -0.66775808613E+00 -0.65484229339E+00  0.99654269697E+00  0.13666808836E+01  0.00000000000E+00 0. -1.
</event>
<event>
 7    1  0.2250716E-008  0.4614232E+02  0.7816164E-02  0.1320468E+00
        -11   -1    0    0    0    0  0.00000000000E+00  0.00000000000E+00  0.45593999997E+02  0.45594000000E+02  0.51100000000E-03 0.  1.
         11   -1    0    0    0    0 -0.00000000000E+00 -0.00000000000E+00 -0.45593999997E+02  0.45594000000E+02  0.51100000000E-03 0. -1.
    9900012    2    1    2    0    0 -0.15161021226E+02 -0.29809960344E+01  0.42312770049E+02  0.46142318618E+02  0.10000007810E+02 0.  0.
         12    1    1    2    0    0  0.15161021226E+02  0.29809960344E+01 -0.42312770049E+02  0.45045681382E+02  0.00000000000E+00 0. -1.
         11    1    3    3    0    0 -0.19660761246E+01  0.52566944923E+00  0.51994260531E+01  0.55835307145E+01  0.51100000000E-03 0. -1.
        -11    1    3    3    0    0 -0.54721386067E+00  0.21286047199E+01  0.28177342520E+01  0.35735175442E+01  0.51100000000E-03 0.  1.
        -12    1    3    3    0    0 -0.12647731241E+02 -0.56352702035E+01  0.34295609744E+02  0.36985270359E+02  0.00000000000E+00 0.  1.
</event>
<event>
 7    1  0.2250716E-008  0.4614232E+02  0.7816164E-02  0.1320468E+00
        -11   -1    0    0    0    0  0.00000000000E+00  0.00000000000E+00  0.45593999997E+02  0.45594000000E+02  0.51100000000E-03 0. -1.
         11   -1    0    0    0    0 -0.00000000000E+00 -0.00000000000E+00 -0.45593999997E+02  0.45594000000E+02  0.51100000000E-03 0.  1.
    9900012    2    1    2    0    0 -0.15430537684E+02  0.47145053264E+01 -0.42056930649E+02  0.46142317972E+02  0.10000001926E+02 0.  0.
         12    1    1    2    0    0  0.15430537684E+02 -0.47145053264E+01  0.42056930649E+02  0.45045682028E+02  0.00000000000E+00 0. -1.
         11    1    3    3    0    0 -0.39094708891E+01  0.50587093396E+01 -0.12593984040E+02  0.14123842858E+02  0.51100000000E-03 0. -1.
        -11    1    3    3    0    0 -0.86143009393E+01  0.12316774688E+01 -0.16663087665E+02  0.18798449427E+02  0.51100000000E-03 0.  1.
         12    1    3    3    0    0 -0.29067658559E+01 -0.15758814820E+01 -0.12799858945E+02  0.13220025688E+02  0.00000000000E+00 0. -1.
</event>
<event>
 7    1  0.2250716E-008  0.4614232E+02  0.7816164E-02  0.1320468E+00
        -11   -1    0    0    0    0  0.00000000000E+00  0.00000000000E+00  0.45593999997E+02  0.45594000000E+02  0.51100000000E-03 0.  1.
         11   -1    0    0    0    0 -0.00000000000E+00 -0.00000000000E+00 -0.45593999997E+02  0.45594000000E+02  0.51100000000E-03 0. -1.
    9900012    2    1    2    0    0 -0.35423236681E+02 -0.26432030116E+02  0.86979898311E+01  0.46142323847E+02  0.10000055491E+02 0.  0.
         12    1    1    2    0    0  0.35423236681E+02  0.26432030116E+02 -0.86979898311E+01  0.45045676153E+02  0.00000000000E+00 0. -1.
         11    1    3    3    0    0 -0.22160942005E+01 -0.40914037955E+01  0.11546461525E+01  0.47941491969E+01  0.51100000000E-03 0. -1.
        -11    1    3    3    0    0 -0.22838588966E+02 -0.15017929753E+02  0.84826134362E+01  0.28619819898E+02  0.51100000000E-03 0.  1.
         12    1    3    3    0    0 -0.10368553514E+02 -0.73226965682E+01 -0.93926975759E+00  0.12728354752E+02  0.00000000000E+00 0. -1.
</event>
<event>
 7    1  0.2250716E-008  0.4614232E+02  0.7816164E-02  0.1320468E+00
        -11   -1    0    0    0    0  0.00000000000E+00  0.00000000000E+00  0.45593999997E+02  0.45594000000E+02  0.51100000000E-03 0.  1.
         11   -1    0    0    0    0 -0.00000000000E+00 -0.00000000000E+00 -0.45593999997E+02  0.45594000000E+02  0.51100000000E-03 0. -1.
    9900012    2    1    2    0    0  0.18602584415E+02  0.40897141604E+02  0.32374534679E+01  0.46142318261E+02  0.10000004563E+02 0.  0.
         12    1    1    2    0    0 -0.18602584415E+02 -0.40897141604E+02 -0.32374534679E+01  0.45045681739E+02  0.00000000000E+00 0. -1.
         11    1    3    3    0    0  0.58939288451E+01  0.90839799378E+01  0.28605128017E+01  0.11199983147E+02  0.51100000000E-03 0. -1.
        -11    1    3    3    0    0  0.67510064904E+01  0.10099848967E+02  0.22263793301E+01  0.12350700505E+02  0.51100000000E-03 0.  1.
         12    1    3    3    0    0  0.59576490798E+01  0.21713312700E+02 -0.18494386639E+01  0.22591634609E+02  0.00000000000E+00 0. -1.
</event>
<event>
 7    1  0.2250716E-008  0.4614232E+02  0.7816164E-02  0.1320468E+00
        -11   -1    0    0    0    0  0.00000000000E+00  0.00000000000E+00  0.45593999997E+02  0.45594000000E+02  0.51100000000E-03 0.  1.
         11   -1    0    0    0    0 -0.00000000000E+00 -0.00000000000E+00 -0.45593999997E+02  0.45594000000E+02  0.51100000000E-03 0. -1.
    9900012    2    1    2    0    0 -0.36720472814E+02  0.10457734693E+02  0.23903056411E+02  0.46142318249E+02  0.10000004451E+02 0.  0.
         12    1    1    2    0    0  0.36720472814E+02 -0.10457734693E+02 -0.23903056411E+02  0.45045681751E+02  0.00000000000E+00 0. -1.
         11    1    3    3    0    0 -0.11788693497E+02  0.47717234263E+01  0.13112412114E+02  0.18266854971E+02  0.51100000000E-03 0.  1.
        -11    1    3    3    0    0 -0.83189860144E+01  0.31494867198E+01  0.35836676799E+01  0.95899671119E+01  0.51100000000E-03 0. -1.
        -12    1    3    3    0    0 -0.16612793302E+02  0.25365245473E+01  0.72069766175E+01  0.18285496166E+02  0.00000000000E+00 0.  1.
</event>
<event>
 7    1  0.2250716E-008  0.4614232E+02  0.7816164E-02  0.1320468E+00
        -11   -1    0    0    0    0  0.00000000000E+00  0.00000000000E+00  0.45593999997E+02  0.45594000000E+02  0.51100000000E-03 0. -1.
         11   -1    0    0    0    0 -0.00000000000E+00 -0.00000000000E+00 -0.45593999997E+02  0.45594000000E+02  0.51100000000E-03 0.  1.
    9900012    2    1    2    0    0 -0.37498252802E+02 -0.28870815444E+01 -0.24792323478E+02  0.46142317560E+02  0.99999981672E+01 0.  0.
         12    1    1    2    0    0  0.37498252802E+02  0.28870815444E+01  0.24792323478E+02  0.45045682440E+02  0.00000000000E+00 0. -1.
         11    1    3    3    0    0  0.27444821158E+00  0.14279613510E+00 -0.20968063834E+00  0.37373625494E+00  0.51100000000E-03 0. -1.
        -11    1    3    3    0    0 -0.17499128882E+02 -0.14806575203E+01 -0.70616349033E+01  0.18928247306E+02  0.51100000000E-03 0.  1.
        -12    1    3    3    0    0 -0.20273572132E+02 -0.15492201591E+01 -0.17521007936E+02  0.26840333999E+02  0.00000000000E+00 0.  1.
</event>
<event>
 7    1  0.2250716E-008  0.4614232E+02  0.7816164E-02  0.1320468E+00
        -11   -1    0    0    0    0  0.00000000000E+00  0.00000000000E+00  0.45593999997E+02  0.45594000000E+02  0.51100000000E-03 0.  1.
         11   -1    0    0    0    0 -0.00000000000E+00 -0.00000000000E+00 -0.45593999997E+02  0.45594000000E+02  0.51100000000E-03 0. -1.
    9900012    2    1    2    0    0 -0.23042812965E+02 -0.32978028467E+02  0.20263066126E+02  0.46142318301E+02  0.10000004920E+02 0.  0.
         12    1    1    2    0    0  0.23042812965E+02  0.32978028467E+02 -0.20263066126E+02  0.45045681699E+02  0.00000000000E+00 0. -1.
         11    1    3    3    0    0 -0.37574599245E+01 -0.89091884058E+01  0.52855105136E+01  0.11019472074E+02  0.51100000000E-03 0. -1.
        -11    1    3    3    0    0 -0.34212308455E+01 -0.72789525153E+01  0.70674491876E+01  0.10706858012E+02  0.51100000000E-03 0.  1.
        -12    1    3    3    0    0 -0.15864122195E+02 -0.16789887546E+02  0.79101064249E+01  0.24415988214E+02  0.00000000000E+00 0.  1.
</event>
<event>
 7    1  0.2250716E-008  0.4614233E+02  0.7816164E-02  0.1320468E+00
        -11   -1    0    0    0    0  0.00000000000E+00  0.00000000000E+00  0.45593999997E+02  0.45594000000E+02  0.51100000000E-03 0. -1.
         11   -1    0    0    0    0 -0.00000000000E+00 -0.00000000000E+00 -0.45593999997E+02  0.45594000000E+02  0.51100000000E-03 0.  1.
    9900012    2    1    2    0    0 -0.41466193593E+02 -0.15822422236E+02 -0.77018171667E+01  0.46142331572E+02  0.10000125935E+02 0.  0.
         12    1    1    2    0    0  0.41466193593E+02  0.15822422236E+02  0.77018171667E+01  0.45045668428E+02  0.00000000000E+00 0. -1.
         11    1    3    3    0    0 -0.11486842979E+02 -0.26325540689E+01  0.76717203004E+00  0.11809591683E+02  0.51100000000E-03 0. -1.
        -11    1    3    3    0    0 -0.24532700180E+02 -0.87402743196E+01 -0.51145453177E+01  0.26540616936E+02  0.51100000000E-03 0.  1.
         12    1    3    3    0    0 -0.54466504344E+01 -0.44495938475E+01 -0.33544438790E+01  0.77921229521E+01  0.00000000000E+00 0. -1.
</event>
<event>
 7    1  0.2250716E-008  0.4614232E+02  0.7816164E-02  0.1320468E+00
        -11   -1    0    0    0    0  0.00000000000E+00  0.00000000000E+00  0.45593999997E+02  0.45594000000E+02  0.51100000000E-03 0.  1.
         11   -1    0    0    0    0 -0.00000000000E+00 -0.00000000000E+00 -0.45593999997E+02  0.45594000000E+02  0.51100000000E-03 0. -1.
    9900012    2    1    2    0    0 -0.26692645238E+02  0.34326517492E+02  0.11760374614E+02  0.46142317366E+02  0.99999963983E+01 0.  0.
         12    1    1    2    0    0  0.26692645238E+02 -0.34326517492E+02 -0.11760374614E+02  0.45045682634E+02  0.00000000000E+00 0. -1.
         11    1    3    3    0    0 -0.68164177601E+00  0.98550328740E+00 -0.12272619585E+01  0.17152330501E+01  0.51100000000E-03 0. -1.
        -11    1    3    3    0    0 -0.57123602461E+01  0.50168772979E+01  0.30444502611E+01  0.81895540206E+01  0.51100000000E-03 0.  1.
        -12    1    3    3    0    0 -0.20298643216E+02  0.28324136906E+02  0.99431863117E+01  0.36237530295E+02  0.00000000000E+00 0.  1.
</event>
<event>
 7    1  0.2250716E-008  0.4614232E+02  0.7816164E-02  0.1320468E+00
        -11   -1    0    0    0    0  0.00000000000E+00  0.00000000000E+00  0.45593999997E+02  0.45594000000E+02  0.51100000000E-03 0. -1.
         11   -1    0    0    0    0 -0.00000000000E+00 -0.00000000000E+00 -0.45593999997E+02  0.45594000000E+02  0.51100000000E-03 0.  1.
    9900012    2    1    2    0    0 -0.23008639083E+02 -0.30197586564E+02 -0.24245038675E+02  0.46142316444E+02  0.99999879856E+01 0.  0.
         12    1    1    2    0    0  0.23008639083E+02  0.30197586564E+02  0.24245038675E+02  0.45045683556E+02  0.00000000000E+00 0. -1.
         11    1    3    3    0    0 -0.24244791578E+01 -0.49361265302E+00 -0.64749446533E+00  0.25575382660E+01  0.51100000000E-03 0. -1.
        -11    1    3    3    0    0 -0.18863859383E+02 -0.25243420637E+02 -0.22379593725E+02  0.38651283185E+02  0.51100000000E-03 0.  1.
        -12    1    3    3    0    0 -0.17203005426E+01 -0.44605532736E+01 -0.12179504847E+01  0.49334949931E+01  0.00000000000E+00 0.  1.
</event>
<event>
 7    1  0.2250716E-008  0.4614232E+02  0.7816164E-02  0.1320468E+00
        -11   -1    0    0    0    0  0.00000000000E+00  0.00000000000E+00  0.45593999997E+02  0.45594000000E+02  0.51100000000E-03 0.  1.
         11   -1    0    0    0    0 -0.00000000000E+00 -0.00000000000E+00 -0.45593999997E+02  0.45594000000E+02  0.51100000000E-03 0. -1.
    9900012    2    1    2    0    0 -0.54796719169E+01 -0.17102230012E+02  0.41311020266E+02  0.46142317952E+02  0.10000001742E+02 0.  0.
         12    1    1    2    0    0  0.54796719169E+01  0.17102230012E+02 -0.41311020266E+02  0.45045682048E+02  0.00000000000E+00 0. -1.
         11    1    3    3    0    0 -0.46776570933E+00 -0.64274562607E+01  0.88548429463E+01  0.10951677616E+02  0.51100000000E-03 0. -1.
        -11    1    3    3    0    0 -0.10651921128E+01 -0.31158722213E+01  0.18833531227E+02  0.19119236194E+02  0.51100000000E-03 0.  1.
        -12    1    3    3    0    0 -0.39467140948E+01 -0.75589015304E+01  0.13622646093E+02  0.16071404141E+02  0.00000000000E+00 0.  1.
</event>
<event>
 7    1  0.2250716E-008  0.4614232E+02  0.7816164E-02  0.1320468E+00
        -11   -1    0    0    0    0  0.00000000000E+00  0.00000000000E+00  0.45593999997E+02  0.45594000000E+02  0.51100000000E-03 0.  1.
         11   -1    0    0    0    0 -0.00000000000E+00 -0.00000000000E+00 -0.45593999997E+02  0.45594000000E+02  0.51100000000E-03 0. -1.
    9900012    2    1    2    0    0 -0.42213839704E+02  0.31207394682E+01  0.15406690529E+02  0.46142318848E+02  0.10000009910E+02 0.  0.
         12    1    1    2    0    0  0.42213839704E+02 -0.31207394682E+01 -0.15406690529E+02  0.45045681152E+02  0.00000000000E+00 0. -1.
         11    1    3    3    0    0 -0.77111246254E+01  0.28625535452E+01  0.55423799836E+01  0.99183482462E+01  0.51100000000E-03 0.  1.
        -11    1    3    3    0    0 -0.36513329719E+01  0.13677456853E+01  0.19234126371E+01  0.43476979156E+01  0.51100000000E-03 0. -1.
        -12    1    3    3    0    0 -0.30851382107E+02 -0.11095597624E+01  0.79408979086E+01  0.31876272686E+02  0.00000000000E+00 0.  1.
</event>
<event>
 7    1  0.2250716E-008  0.4614232E+02  0.7816164E-02  0.1320468E+00
        -11   -1    0    0    0    0  0.00000000000E+00  0.00000000000E+00  0.45593999997E+02  0.45594000000E+02  0.51100000000E-03 0.  1.
         11   -1    0    0    0    0 -0.00000000000E+00 -0.00000000000E+00 -0.45593999997E+02  0.45594000000E+02  0.51100000000E-03 0. -1.
    9900012    2    1    2    0    0 -0.13143418660E+02  0.37853886610E+02  0.20577832970E+02  0.46142318794E+02  0.10000009421E+02 0.  0.
         12    1    1    2    0    0  0.13143418660E+02 -0.37853886610E+02 -0.20577832970E+02  0.45045681206E+02  0.00000000000E+00 0. -1.
         11    1    3    3    0    0 -0.29092042914E+01  0.13766912676E+02  0.44476823374E+01  0.14757141751E+02  0.51100000000E-03 0. -1.
        -11    1    3    3    0    0 -0.87875375950E+00  0.96834567515E+01  0.51904546350E+01  0.11021903756E+02  0.51100000000E-03 0.  1.
        -12    1    3    3    0    0 -0.93554606090E+01  0.14403517183E+02  0.10939695997E+02  0.20363273287E+02  0.00000000000E+00 0.  1.
</event>
<event>
 7    1  0.2250716E-008  0.4614232E+02  0.7816164E-02  0.1320468E+00
        -11   -1    0    0    0    0  0.00000000000E+00  0.00000000000E+00  0.45593999997E+02  0.45594000000E+02  0.51100000000E-03 0. -1.
         11   -1    0    0    0    0 -0.00000000000E+00 -0.00000000000E+00 -0.45593999997E+02  0.45594000000E+02  0.51100000000E-03 0.  1.
    9900012    2    1    2    0    0 -0.37299444250E+02 -0.99203628233E+01  0.23226092251E+02  0.46142317619E+02  0.99999987036E+01 0.  0.
         12    1    1    2    0    0  0.37299444250E+02  0.99203628233E+01 -0.23226092251E+02  0.45045682381E+02  0.00000000000E+00 0. -1.
         11    1    3    3    0    0 -0.13556748373E+02 -0.29471599564E+01  0.92303230450E+01  0.16663434281E+02  0.51100000000E-03 0. -1.
        -11    1    3    3    0    0 -0.14562839164E+02 -0.33679626838E+00  0.87810564505E+01  0.17008723318E+02  0.51100000000E-03 0.  1.
         12    1    3    3    0    0 -0.91798567133E+01 -0.66364065985E+01  0.52147127555E+01  0.12470160021E+02  0.00000000000E+00 0. -1.
</event>
<event>
 7    1  0.2250716E-008  0.4614232E+02  0.7816164E-02  0.1320468E+00
        -11   -1    0    0    0    0  0.00000000000E+00  0.00000000000E+00  0.45593999997E+02  0.45594000000E+02  0.51100000000E-03 0. -1.
         11   -1    0    0    0    0 -0.00000000000E+00 -0.00000000000E+00 -0.45593999997E+02  0.45594000000E+02  0.51100000000E-03 0.  1.
    9900012    2    1    2    0    0  0.39898448848E+02  0.10859176003E+02  0.17869122376E+02  0.46142318094E+02  0.10000003034E+02 0.  0.
         12    1    1    2    0    0 -0.39898448848E+02 -0.10859176003E+02 -0.17869122376E+02  0.45045681906E+02  0.00000000000E+00 0. -1.
         11    1    3    3    0    0  0.17845521873E+02  0.65473689412E-04  0.90760015040E+01  0.20020900441E+02  0.51100000000E-03 0. -1.
        -11    1    3    3    0    0  0.35153877241E+01  0.19836114266E+01  0.16888589738E+01  0.43754896911E+01  0.51100000000E-03 0.  1.
        -12    1    3    3    0    0  0.18537539251E+02  0.88754991023E+01  0.71042618981E+01  0.21745927961E+02  0.00000000000E+00 0.  1.
</event>
<event>
 7    1  0.2250716E-008  0.4614232E+02  0.7816164E-02  0.1320468E+00
        -11   -1    0    0    0    0  0.00000000000E+00  0.00000000000E+00  0.45593999997E+02  0.45594000000E+02  0.51100000000E-03 0. -1.
         11   -1    0    0    0    0 -0.00000000000E+00 -0.00000000000E+00 -0.45593999997E+02  0.45594000000E+02  0.51100000000E-03 0.  1.
    9900012    2    1    2    0    0 -0.70722439344E+01 -0.31099987269E+02 -0.31810181036E+02  0.46142318076E+02  0.10000002874E+02 0.  0.
         12    1    1    2    0    0  0.70722439344E+01  0.31099987269E+02  0.31810181036E+02  0.45045681924E+02  0.00000000000E+00 0. -1.
         11    1    3    3    0    0  0.42998113670E+00 -0.10229863173E+02 -0.92169518092E+01  0.13776326986E+02  0.51100000000E-03 0. -1.
        -11    1    3    3    0    0 -0.19795060044E+01 -0.14604151026E+02 -0.13063461028E+02  0.19694001257E+02  0.51100000000E-03 0.  1.
         12    1    3    3    0    0 -0.55227190667E+01 -0.62659730706E+01 -0.95297681992E+01  0.12671989834E+02  0.00000000000E+00 0. -1.
</event>
<event>
 7    1  0.2250716E-008  0.4614232E+02  0.7816164E-02  0.1320468E+00
        -11   -1    0    0    0    0  0.00000000000E+00  0.00000000000E+00  0.45593999997E+02  0.45594000000E+02  0.51100000000E-03 0. -1.
         11   -1    0    0    0    0 -0.00000000000E+00 -0.00000000000E+00 -0.45593999997E+02  0.45594000000E+02  0.51100000000E-03 0.  1.
    9900012    2    1    2    0    0  0.43637382969E+02 -0.58997511809E+01 -0.94913159616E+01  0.46142319463E+02  0.10000015517E+02 0.  0.
         12    1    1    2    0    0 -0.43637382969E+02  0.58997511809E+01  0.94913159616E+01  0.45045680537E+02  0.00000000000E+00 0. -1.
         11    1    3    3    0    0  0.91555684677E+01 -0.25266066812E+00 -0.53340213591E+01  0.10599059180E+02  0.51100000000E-03 0. -1.
        -11    1    3    3    0    0  0.29949325472E+02 -0.31370003257E+01 -0.33347030435E+01  0.30297245946E+02  0.51100000000E-03 0.  1.
        -12    1    3    3    0    0  0.45324890295E+01 -0.25100901871E+01 -0.82259155892E+00  0.52460143369E+01  0.00000000000E+00 0.  1.
</event>
<event>
 7    1  0.2250716E-008  0.4614232E+02  0.7816164E-02  0.1320468E+00
        -11   -1    0    0    0    0  0.00000000000E+00  0.00000000000E+00  0.45593999997E+02  0.45594000000E+02  0.51100000000E-03 0.  1.
         11   -1    0    0    0    0 -0.00000000000E+00 -0.00000000000E+00 -0.45593999997E+02  0.45594000000E+02  0.51100000000E-03 0. -1.
    9900012    2    1    2    0    0 -0.19519035240E+02 -0.21277230675E+02  0.34574560159E+02  0.46142317720E+02  0.99999996247E+01 0.  0.
         12    1    1    2    0    0  0.19519035240E+02  0.21277230675E+02 -0.34574560159E+02  0.45045682280E+02  0.00000000000E+00 0. -1.
         11    1    3    3    0    0 -0.14014288415E+02 -0.14472662446E+02  0.28936284300E+02  0.35258570410E+02  0.51100000000E-03 0.  1.
        -11    1    3    3    0    0 -0.85343716147E+00 -0.25777821499E+01  0.30584915358E+01  0.40899494541E+01  0.51100000000E-03 0. -1.
        -12    1    3    3    0    0 -0.46513096635E+01 -0.42267860797E+01  0.25797843234E+01  0.67937978557E+01  0.00000000000E+00 0.  1.
</event>
<event>
 7    1  0.2250716E-008  0.4614232E+02  0.7816164E-02  0.1320468E+00
        -11   -1    0    0    0    0  0.00000000000E+00  0.00000000000E+00  0.45593999997E+02  0.45594000000E+02  0.51100000000E-03 0.  1.
         11   -1    0    0    0    0 -0.00000000000E+00 -0.00000000000E+00 -0.45593999997E+02  0.45594000000E+02  0.51100000000E-03 0. -1.
    9900012    2    1    2    0    0  0.60007555616E+01 -0.31532132147E+02  0.31604258044E+02  0.46142317060E+02  0.99999936040E+01 0.  0.
         12    1    1    2    0    0 -0.60007555616E+01  0.31532132147E+02 -0.31604258044E+02  0.45045682940E+02  0.00000000000E+00 0. -1.
         11    1    3    3    0    0 -0.18575101894E+01 -0.63478648520E+01  0.50290673109E+01  0.83088657807E+01  0.51100000000E-03 0. -1.
        -11    1    3    3    0    0  0.88876262797E+00 -0.11810539039E+02  0.11992945140E+02  0.16855547004E+02  0.51100000000E-03 0.  1.
        -12    1    3    3    0    0  0.69695031230E+01 -0.13373728256E+02  0.14582245593E+02  0.20977904275E+02  0.00000000000E+00 0.  1.
</event>
<event>
 7    1  0.2250716E-008  0.4614233E+02  0.7816164E-02  0.1320468E+00
        -11   -1    0    0    0    0  0.00000000000E+00  0.00000000000E+00  0.45593999997E+02  0.45594000000E+02  0.51100000000E-03 0.  1.
         11   -1    0    0    0    0 -0.00000000000E+00 -0.00000000000E+00 -0.45593999997E+02  0.45594000000E+02  0.51100000000E-03 0. -1.
    9900012    2    1    2    0    0  0.38211241482E+02 -0.16979951676E+02  0.16753935922E+02  0.46142333134E+02  0.10000140185E+02 0.  0.
         12    1    1    2    0    0 -0.38211241482E+02  0.16979951676E+02 -0.16753935922E+02  0.45045666866E+02  0.00000000000E+00 0. -1.
         11    1    3    3    0    0  0.16001797729E+02 -0.10936250104E+02  0.10284775435E+02  0.21941643122E+02  0.51100000000E-03 0. -1.
        -11    1    3    3    0    0  0.11488488839E+02 -0.50453443143E+01  0.37346713977E+01  0.13091548639E+02  0.51100000000E-03 0.  1.
        -12    1    3    3    0    0  0.10720954914E+02 -0.99835725863E+00  0.27344890889E+01  0.11109141374E+02  0.00000000000E+00 0.  1.
</event>
<event>
 7    1  0.2250716E-008  0.4614232E+02  0.7816164E-02  0.1320468E+00
        -11   -1    0    0    0    0  0.00000000000E+00  0.00000000000E+00  0.45593999997E+02  0.45594000000E+02  0.51100000000E-03 0. -1.
         11   -1    0    0    0    0 -0.00000000000E+00 -0.00000000000E+00 -0.45593999997E+02  0.45594000000E+02  0.51100000000E-03 0.  1.
    9900012    2    1    2    0    0 -0.32650609044E+02  0.29651048603E+02  0.91578631103E+01  0.46142318621E+02  0.10000007837E+02 0.  0.
         12    1    1    2    0    0  0.32650609044E+02 -0.29651048603E+02 -0.91578631103E+01  0.45045681379E+02  0.00000000000E+00 0. -1.
         11    1    3    3    0    0 -0.26359398399E-01  0.21053435822E+01  0.11803938373E+01  0.24138136401E+01  0.51100000000E-03 0. -1.
        -11    1    3    3    0    0 -0.97595586105E+01  0.60273798495E+01  0.66358595672E+00  0.11489936410E+02  0.51100000000E-03 0.  1.
         12    1    3    3    0    0 -0.22864691035E+02  0.21518325171E+02  0.73138833162E+01  0.32238568570E+02  0.00000000000E+00 0. -1.
</event>
<event>
 7    1  0.2250716E-008  0.4614232E+02  0.7816164E-02  0.1320468E+00
        -11   -1    0    0    0    0  0.00000000000E+00  0.00000000000E+00  0.45593999997E+02  0.45594000000E+02  0.51100000000E-03 0.  1.
         11   -1    0    0    0    0 -0.00000000000E+00 -0.00000000000E+00 -0.45593999997E+02  0.45594000000E+02  0.51100000000E-03 0. -1.
    9900012    2    1    2    0    0 -0.31004396382E+02 -0.26089878660E+02  0.19676352744E+02  0.46142320731E+02  0.10000027079E+02 0.  0.
         12    1    1    2    0    0  0.31004396382E+02  0.26089878660E+02 -0.19676352744E+02  0.45045679269E+02  0.00000000000E+00 0. -1.
         11    1    3    3    0    0 -0.13025279049E+02 -0.13719299425E+02  0.89448715199E+01  0.20925768750E+02  0.51100000000E-03 0.  1.
        -11    1    3    3    0    0 -0.10740243881E+02 -0.38759909569E+01  0.72501979881E+01  0.13525587442E+02  0.51100000000E-03 0. -1.
         12    1    3    3    0    0 -0.72388734522E+01 -0.84945882780E+01  0.34812832360E+01  0.11690964538E+02  0.00000000000E+00 0. -1.
</event>
<event>
 7    1  0.2250716E-008  0.4614232E+02  0.7816164E-02  0.1320468E+00
        -11   -1    0    0    0    0  0.00000000000E+00  0.00000000000E+00  0.45593999997E+02  0.45594000000E+02  0.51100000000E-03 0.  1.
         11   -1    0    0    0    0 -0.00000000000E+00 -0.00000000000E+00 -0.45593999997E+02  0.45594000000E+02  0.51100000000E-03 0. -1.
    9900012    2    1    2    0    0 -0.38108609143E+02 -0.20174557212E+02  0.13032055788E+02  0.46142319546E+02  0.10000016273E+02 0.  0.
         12    1    1    2    0    0  0.38108609143E+02  0.20174557212E+02 -0.13032055788E+02  0.45045680454E+02  0.00000000000E+00 0. -1.
         11    1    3    3    0    0 -0.72885700755E+01 -0.74750832056E+01  0.45028858855E+01  0.11369965006E+02  0.51100000000E-03 0. -1.
        -11    1    3    3    0    0 -0.15602581480E+02 -0.46517659937E+01  0.61042671642E+01  0.17387971520E+02  0.51100000000E-03 0.  1.
        -12    1    3    3    0    0 -0.15217457588E+02 -0.80477080131E+01  0.24249027383E+01  0.17384383020E+02  0.00000000000E+00 0.  1.
</event>
<event>
 7    1  0.2250716E-008  0.4614232E+02  0.7816164E-02  0.1320468E+00
        -11   -1    0    0    0    0  0.00000000000E+00  0.00000000000E+00  0.45593999997E+02  0.45594000000E+02  0.51100000000E-03 0.  1.
         11   -1    0    0    0    0 -0.00000000000E+00 -0.00000000000E+00 -0.45593999997E+02  0.45594000000E+02  0.51100000000E-03 0. -1.
    9900012    2    1    2    0    0 -0.43477296178E+02  0.19957157050E+01  0.11612724096E+02  0.46142317354E+02  0.99999962909E+01 0.  0.
         12    1    1    2    0    0  0.43477296178E+02 -0.19957157050E+01 -0.11612724096E+02  0.45045682646E+02  0.00000000000E+00 0. -1.
         11    1    3    3    0    0 -0.24363101089E+02  0.33017690884E+01  0.94790535606E+01  0.26349854468E+02  0.51100000000E-03 0.  1.
        -11    1    3    3    0    0 -0.38193883688E+01 -0.20084615927E+01  0.10622163659E+01  0.44440915101E+01  0.51100000000E-03 0. -1.
        -12    1    3    3    0    0 -0.15294806719E+02  0.70240820925E+00  0.10714541695E+01  0.15348371376E+02  0.00000000000E+00 0.  1.
</event>
<event>
 7    1  0.2250716E-008  0.4614232E+02  0.7816164E-02  0.1320468E+00
        -11   -1    0    0    0    0  0.00000000000E+00  0.00000000000E+00  0.45593999997E+02  0.45594000000E+02  0.51100000000E-03 0. -1.
         11   -1    0    0    0    0 -0.00000000000E+00 -0.00000000000E+00 -0.45593999997E+02  0.45594000000E+02  0.51100000000E-03 0.  1.
    9900012    2    1    2    0    0 -0.30703573835E+02 -0.28352751790E+02 -0.16808486337E+02  0.46142321037E+02  0.10000029873E+02 0.  0.
         12    1    1    2    0    0  0.30703573835E+02  0.28352751790E+02  0.16808486337E+02  0.45045678963E+02  0.00000000000E+00 0. -1.
         11    1    3    3    0    0 -0.21231152101E+02 -0.22745383053E+02 -0.12351732586E+02  0.33476552509E+02  0.51100000000E-03 0. -1.
        -11    1    3    3    0    0 -0.97940958116E+01 -0.55613220989E+01 -0.47542524548E+01  0.12225200731E+02  0.51100000000E-03 0.  1.
         12    1    3    3    0    0  0.32167407733E+00 -0.46046637895E-01  0.29749870377E+00  0.44056779687E+00  0.00000000000E+00 0. -1.
</event>
<event>
 7    1  0.2250716E-008  0.4614232E+02  0.7816164E-02  0.1320468E+00
        -11   -1    0    0    0    0  0.00000000000E+00  0.00000000000E+00  0.45593999997E+02  0.45594000000E+02  0.51100000000E-03 0.  1.
         11   -1    0    0    0    0 -0.00000000000E+00 -0.00000000000E+00 -0.45593999997E+02  0.45594000000E+02  0.51100000000E-03 0. -1.
    9900012    2    1    2    0    0 -0.43049232955E+02  0.10881297560E+02 -0.75811908163E+01  0.46142317091E+02  0.99999938859E+01 0.  0.
         12    1    1    2    0    0  0.43049232955E+02 -0.10881297560E+02  0.75811908163E+01  0.45045682909E+02  0.00000000000E+00 0. -1.
         11    1    3    3    0    0 -0.27586409874E+02  0.95825049724E+01 -0.74863981194E+01  0.30147646149E+02  0.51100000000E-03 0. -1.
        -11    1    3    3    0    0 -0.13951190106E+02  0.21542132078E+01 -0.75460047907E+00  0.14136681438E+02  0.51100000000E-03 0.  1.
         12    1    3    3    0    0 -0.15116329747E+01 -0.85542061996E+00  0.65980778213E+00  0.18579895039E+01  0.00000000000E+00 0. -1.
</event>
<event>
 7    1  0.2250716E-008  0.4614232E+02  0.7816164E-02  0.1320468E+00
        -11   -1    0    0    0    0  0.00000000000E+00  0.00000000000E+00  0.45593999997E+02  0.45594000000E+02  0.51100000000E-03 0.  1.
         11   -1    0    0    0    0 -0.00000000000E+00 -0.00000000000E+00 -0.45593999997E+02  0.45594000000E+02  0.51100000000E-03 0. -1.
    9900012    2    1    2    0    0 -0.36550653937E+02 -0.33754663864E+01  0.26110715416E+02  0.46142317232E+02  0.99999951744E+01 0.  0.
         12    1    1    2    0    0  0.36550653937E+02  0.33754663864E+01 -0.26110715416E+02  0.45045682768E+02  0.00000000000E+00 0. -1.
         11    1    3    3    0    0 -0.22350765575E+01  0.17252858451E-01  0.36868571636E+01  0.43114708494E+01  0.51100000000E-03 0. -1.
        -11    1    3    3    0    0 -0.18830794608E+02 -0.47751147816E+01  0.15308235840E+02  0.24733431455E+02  0.51100000000E-03 0.  1.
         12    1    3    3    0    0 -0.15484782771E+02  0.13823955368E+01  0.71156224119E+01  0.17097414927E+02  0.00000000000E+00 0. -1.
</event>
<event>
 7    1  0.2250716E-008  0.4614232E+02  0.7816164E-02  0.1320468E+00
        -11   -1    0    0    0    0  0.00000000000E+00  0.00000000000E+00  0.45593999997E+02  0.45594000000E+02  0.51100000000E-03 0.  1.
         11   -1    0    0    0    0 -0.00000000000E+00 -0.00000000000E+00 -0.45593999997E+02  0.45594000000E+02  0.51100000000E-03 0. -1.
    9900012    2    1    2    0    0  0.28333008766E+02  0.12179150405E+01  0.34998155594E+02  0.46142316547E+02  0.99999889277E+01 0.  0.
         12    1    1    2    0    0 -0.28333008766E+02 -0.12179150405E+01 -0.34998155594E+02  0.45045683453E+02  0.00000000000E+00 0. -1.
         11    1    3    3    0    0  0.31652727901E+01 -0.13941716899E+01  0.47995947649E+01  0.59159763949E+01  0.51100000000E-03 0. -1.
        -11    1    3    3    0    0  0.19678207719E+02  0.12008865931E+01  0.27778123422E+02  0.34063149131E+02  0.51100000000E-03 0.  1.
         12    1    3    3    0    0  0.54895282575E+01  0.14112001373E+01  0.24204374067E+01  0.61631910206E+01  0.00000000000E+00 0. -1.
</event>
<event>
 7    1  0.2250716E-008  0.4614232E+02  0.7816164E-02  0.1320468E+00
        -11   -1    0    0    0    0  0.00000000000E+00  0.00000000000E+00  0.45593999997E+02  0.45594000000E+02  0.51100000000E-03 0.  1.
         11   -1    0    0    0    0 -0.00000000000E+00 -0.00000000000E+00 -0.45593999997E+02  0.45594000000E+02  0.51100000000E-03 0. -1.
    9900012    2    1    2    0    0 -0.40339161417E+02 -0.80778576540E+01  0.18347037226E+02  0.46142317598E+02  0.99999985144E+01 0.  0.
         12    1    1    2    0    0  0.40339161417E+02  0.80778576540E+01 -0.18347037226E+02  0.45045682402E+02  0.00000000000E+00 0. -1.
         11    1    3    3    0    0 -0.79251218338E+00 -0.13839404666E+01  0.17664954819E+01  0.23798893513E+01  0.51100000000E-03 0. -1.
        -11    1    3    3    0    0 -0.36052394526E+02 -0.61779006593E+01  0.16740446536E+02  0.40226659793E+02  0.51100000000E-03 0.  1.
        -12    1    3    3    0    0 -0.34942547075E+01 -0.51601652803E+00 -0.15990479207E+00  0.35357684540E+01  0.00000000000E+00 0.  1.
</event>
<event>
 7    1  0.2250716E-008  0.4614232E+02  0.7816164E-02  0.1320468E+00
        -11   -1    0    0    0    0  0.00000000000E+00  0.00000000000E+00  0.45593999997E+02  0.45594000000E+02  0.51100000000E-03 0.  1.
         11   -1    0    0    0    0 -0.00000000000E+00 -0.00000000000E+00 -0.45593999997E+02  0.45594000000E+02  0.51100000000E-03 0. -1.
    9900012    2    1    2    0    0  0.54738047183E+00  0.11019309403E+02  0.43673659121E+02  0.46142319784E+02  0.10000018446E+02 0.  0.
         12    1    1    2    0    0 -0.54738047183E+00 -0.11019309403E+02 -0.43673659121E+02  0.45045680216E+02  0.00000000000E+00 0. -1.
         11    1    3    3    0    0 -0.12376973527E+01  0.27797049028E+01  0.71559238137E+01  0.77759822512E+01  0.51100000000E-03 0. -1.
        -11    1    3    3    0    0 -0.22850698651E+01  0.72107170377E+01  0.23920185419E+02  0.25087671379E+02  0.51100000000E-03 0.  1.
        -12    1    3    3    0    0  0.40701476896E+01  0.10288874623E+01  0.12597549889E+02  0.13278666154E+02  0.00000000000E+00 0.  1.
</event>
<event>
 7    1  0.2250716E-008  0.4614232E+02  0.7816164E-02  0.1320468E+00
        -11   -1    0    0    0    0  0.00000000000E+00  0.00000000000E+00  0.45593999997E+02  0.45594000000E+02  0.51100000000E-03 0.  1.
         11   -1    0    0    0    0 -0.00000000000E+00 -0.00000000000E+00 -0.45593999997E+02  0.45594000000E+02  0.51100000000E-03 0. -1.
    9900012    2    1    2    0    0  0.40871538693E+02 -0.90149241623E+01  0.16654187507E+02  0.46142317695E+02  0.99999994016E+01 0.  0.
         12    1    1    2    0    0 -0.40871538693E+02  0.90149241623E+01 -0.16654187507E+02  0.45045682305E+02  0.00000000000E+00 0. -1.
         11    1    3    3    0    0  0.66394499483E+01 -0.90048920780E+00  0.49350823603E+01  0.83215512132E+01  0.51100000000E-03 0. -1.
        -11    1    3    3    0    0  0.20062811031E+02 -0.54693027215E+01  0.10659499867E+02  0.23367811117E+02  0.51100000000E-03 0.  1.
        -12    1    3    3    0    0  0.14169277713E+02 -0.26451322330E+01  0.10596052802E+01  0.14452955365E+02  0.00000000000E+00 0.  1.
</event>
<event>
 7    1  0.2250716E-008  0.4614232E+02  0.7816164E-02  0.1320468E+00
        -11   -1    0    0    0    0  0.00000000000E+00  0.00000000000E+00  0.45593999997E+02  0.45594000000E+02  0.51100000000E-03 0.  1.
         11   -1    0    0    0    0 -0.00000000000E+00 -0.00000000000E+00 -0.45593999997E+02  0.45594000000E+02  0.51100000000E-03 0. -1.
    9900012    2    1    2    0    0 -0.20146529932E+02  0.37992784022E+02 -0.13408174346E+02  0.46142318239E+02  0.10000004354E+02 0.  0.
         12    1    1    2    0    0  0.20146529932E+02 -0.37992784022E+02  0.13408174346E+02  0.45045681761E+02  0.00000000000E+00 0. -1.
         11    1    3    3    0    0 -0.49496429893E+01  0.28241076093E+01 -0.63867008074E+00  0.57343220387E+01  0.51100000000E-03 0. -1.
        -11    1    3    3    0    0 -0.54072433190E+01  0.10952208437E+02 -0.38505085881E+01  0.12806856234E+02  0.51100000000E-03 0.  1.
        -12    1    3    3    0    0 -0.97896436232E+01  0.24216467976E+02 -0.89189956777E+01  0.27601139966E+02  0.00000000000E+00 0.  1.
</event>
<event>
 7    1  0.2250716E-008  0.4614232E+02  0.7816164E-02  0.1320468E+00
        -11   -1    0    0    0    0  0.00000000000E+00  0.00000000000E+00  0.45593999997E+02  0.45594000000E+02  0.51100000000E-03 0. -1.
         11   -1    0    0    0    0 -0.00000000000E+00 -0.00000000000E+00 -0.45593999997E+02  0.45594000000E+02  0.51100000000E-03 0.  1.
    9900012    2    1    2    0    0  0.23759098499E+02  0.33057029713E+02  0.19283451433E+02  0.46142317920E+02  0.10000001446E+02 0.  0.
         12    1    1    2    0    0 -0.23759098499E+02 -0.33057029713E+02 -0.19283451433E+02  0.45045682080E+02  0.00000000000E+00 0. -1.
         11    1    3    3    0    0  0.52684050668E+01  0.87355778841E+01  0.44852775175E+01  0.11143793232E+02  0.51100000000E-03 0. -1.
        -11    1    3    3    0    0  0.70738809735E+01  0.13108722156E+02  0.32004511936E+01  0.15235526794E+02  0.51100000000E-03 0.  1.
         12    1    3    3    0    0  0.11416812458E+02  0.11212729673E+02  0.11597722722E+02  0.19762997894E+02  0.00000000000E+00 0. -1.
</event>
<event>
 7    1  0.2250716E-008  0.4614232E+02  0.7816164E-02  0.1320468E+00
        -11   -1    0    0    0    0  0.00000000000E+00  0.00000000000E+00  0.45593999997E+02  0.45594000000E+02  0.51100000000E-03 0.  1.
         11   -1    0    0    0    0 -0.00000000000E+00 -0.00000000000E+00 -0.45593999997E+02  0.45594000000E+02  0.51100000000E-03 0. -1.
    9900012    2    1    2    0    0  0.89368442360E+01 -0.42793337325E+02  0.10861705792E+02  0.46142316999E+02  0.99999930475E+01 0.  0.
         12    1    1    2    0    0 -0.89368442360E+01  0.42793337325E+02 -0.10861705792E+02  0.45045683001E+02  0.00000000000E+00 0. -1.
         11    1    3    3    0    0  0.66304836264E+01 -0.20813938183E+02  0.28315179237E+01  0.22027274679E+02  0.51100000000E-03 0. -1.
        -11    1    3    3    0    0  0.23648077195E+00 -0.56835266676E+01 -0.30087879329E+00  0.56963959524E+01  0.51100000000E-03 0.  1.
         12    1    3    3    0    0  0.20698798377E+01 -0.16295872475E+02  0.83310666614E+01  0.18418646367E+02  0.00000000000E+00 0. -1.
</event>
<event>
 7    1  0.2250716E-008  0.4614232E+02  0.7816164E-02  0.1320468E+00
        -11   -1    0    0    0    0  0.00000000000E+00  0.00000000000E+00  0.45593999997E+02  0.45594000000E+02  0.51100000000E-03 0. -1.
         11   -1    0    0    0    0 -0.00000000000E+00 -0.00000000000E+00 -0.45593999997E+02  0.45594000000E+02  0.51100000000E-03 0.  1.
    9900012    2    1    2    0    0  0.38868292473E+02  0.27925726416E+01 -0.22595815289E+02  0.46142317739E+02  0.99999998023E+01 0.  0.
         12    1    1    2    0    0 -0.38868292473E+02 -0.27925726416E+01  0.22595815289E+02  0.45045682261E+02  0.00000000000E+00 0. -1.
         11    1    3    3    0    0  0.15611403031E+02  0.10658645049E+01 -0.51945168125E+01  0.16487418746E+02  0.51100000000E-03 0. -1.
        -11    1    3    3    0    0  0.19381180007E+02  0.32418539157E+01 -0.15728449305E+02  0.25169900141E+02  0.51100000000E-03 0.  1.
         12    1    3    3    0    0  0.38757094349E+01 -0.15151457790E+01 -0.16728491711E+01  0.44849988523E+01  0.00000000000E+00 0. -1.
</event>
<event>
 7    1  0.2250716E-008  0.4614232E+02  0.7816164E-02  0.1320468E+00
        -11   -1    0    0    0    0  0.00000000000E+00  0.00000000000E+00  0.45593999997E+02  0.45594000000E+02  0.51100000000E-03 0.  1.
         11   -1    0    0    0    0 -0.00000000000E+00 -0.00000000000E+00 -0.45593999997E+02  0.45594000000E+02  0.51100000000E-03 0. -1.
    9900012    2    1    2    0    0 -0.43727071887E+02  0.28511193840E+01 -0.10436841503E+02  0.46142319207E+02  0.10000013188E+02 0.  0.
         12    1    1    2    0    0  0.43727071887E+02 -0.28511193840E+01  0.10436841503E+02  0.45045680793E+02  0.00000000000E+00 0. -1.
         11    1    3    3    0    0 -0.18520358088E+01 -0.14036822051E+01 -0.78616578918E+00  0.24532462736E+01  0.51100000000E-03 0. -1.
        -11    1    3    3    0    0 -0.22197284436E+02  0.43169918884E+01 -0.24943430065E+01  0.22750331922E+02  0.51100000000E-03 0.  1.
        -12    1    3    3    0    0 -0.19677751642E+02 -0.62190299290E-01 -0.71563327069E+01  0.20938741011E+02  0.00000000000E+00 0.  1.
</event>
<event>
 7    1  0.2250716E-008  0.4614232E+02  0.7816164E-02  0.1320468E+00
        -11   -1    0    0    0    0  0.00000000000E+00  0.00000000000E+00  0.45593999997E+02  0.45594000000E+02  0.51100000000E-03 0.  1.
         11   -1    0    0    0    0 -0.00000000000E+00 -0.00000000000E+00 -0.45593999997E+02  0.45594000000E+02  0.51100000000E-03 0. -1.
    9900012    2    1    2    0    0  0.16622114730E+02 -0.12576413499E+02  0.39933101868E+02  0.46142317639E+02  0.99999988855E+01 0.  0.
         12    1    1    2    0    0 -0.16622114730E+02  0.12576413499E+02 -0.39933101868E+02  0.45045682361E+02  0.00000000000E+00 0. -1.
         11    1    3    3    0    0  0.46956101414E+01 -0.74064255358E+01  0.94785751400E+01  0.12913066280E+02  0.51100000000E-03 0. -1.
        -11    1    3    3    0    0  0.35780679437E+01 -0.27876627558E+01  0.12185488330E+02  0.13002298257E+02  0.51100000000E-03 0.  1.
         12    1    3    3    0    0  0.83484366450E+01 -0.23823252074E+01  0.18269038398E+02  0.20226953102E+02  0.00000000000E+00 0. -1.
</event>
<event>
 7    1  0.2250716E-008  0.4614232E+02  0.7816164E-02  0.1320468E+00
        -11   -1    0    0    0    0  0.00000000000E+00  0.00000000000E+00  0.45593999997E+02  0.45594000000E+02  0.51100000000E-03 0.  1.
         11   -1    0    0    0    0 -0.00000000000E+00 -0.00000000000E+00 -0.45593999997E+02  0.45594000000E+02  0.51100000000E-03 0. -1.
    9900012    2    1    2    0    0 -0.13026404602E+01  0.38359672295E+02  0.23578638570E+02  0.46142317327E+02  0.99999960369E+01 0.  0.
         12    1    1    2    0    0  0.13026404602E+01 -0.38359672295E+02 -0.23578638570E+02  0.45045682673E+02  0.00000000000E+00 0. -1.
         11    1    3    3    0    0 -0.47712495444E+00  0.39943448897E+01  0.56593263402E+01  0.69433719622E+01  0.51100000000E-03 0. -1.
        -11    1    3    3    0    0 -0.87345828128E+00  0.23687580200E+02  0.15273087456E+02  0.28198077697E+02  0.51100000000E-03 0.  1.
        -12    1    3    3    0    0  0.47942775517E-01  0.10677747205E+02  0.26462247732E+01  0.11000867667E+02  0.00000000000E+00 0.  1.
</event>
<event>
 7    1  0.2250716E-008  0.4614232E+02  0.7816164E-02  0.1320468E+00
        -11   -1    0    0    0    0  0.00000000000E+00  0.00000000000E+00  0.45593999997E+02  0.45594000000E+02  0.51100000000E-03 0.  1.
         11   -1    0    0    0    0 -0.00000000000E+00 -0.00000000000E+00 -0.45593999997E+02  0.45594000000E+02  0.51100000000E-03 0. -1.
    9900012    2    1    2    0    0 -0.99807393029E+01 -0.38147606207E+02  0.21777475236E+02  0.46142318253E+02  0.10000004489E+02 0.  0.
         12    1    1    2    0    0  0.99807393029E+01  0.38147606207E+02 -0.21777475236E+02  0.45045681747E+02  0.00000000000E+00 0. -1.
         11    1    3    3    0    0  0.63247159323E+00 -0.82220187012E+01  0.56605306059E+01  0.10002160709E+02  0.51100000000E-03 0. -1.
        -11    1    3    3    0    0 -0.40928162550E+01 -0.18388827845E+02  0.11677251181E+02  0.22164348171E+02  0.51100000000E-03 0.  1.
        -12    1    3    3    0    0 -0.65203946411E+01 -0.11536759661E+02  0.44396934484E+01  0.13975809374E+02  0.00000000000E+00 0.  1.
</event>
<event>
 7    1  0.2250716E-008  0.4614233E+02  0.7816164E-02  0.1320468E+00
        -11   -1    0    0    0    0  0.00000000000E+00  0.00000000000E+00  0.45593999997E+02  0.45594000000E+02  0.51100000000E-03 0.  1.
         11   -1    0    0    0    0 -0.00000000000E+00 -0.00000000000E+00 -0.45593999997E+02  0.45594000000E+02  0.51100000000E-03 0. -1.
    9900012    2    1    2    0    0  0.12362383075E+02  0.34885078291E+02  0.25677135800E+02  0.46142328671E+02  0.10000099483E+02 0.  0.
         12    1    1    2    0    0 -0.12362383075E+02 -0.34885078291E+02 -0.25677135800E+02  0.45045671329E+02  0.00000000000E+00 0. -1.
         11    1    3    3    0    0  0.71294935806E+01  0.12711481025E+02  0.13421116652E+02  0.19812566744E+02  0.51100000000E-03 0. -1.
        -11    1    3    3    0    0  0.42393510430E+01  0.15961495169E+02  0.63279006346E+01  0.17685693427E+02  0.51100000000E-03 0.  1.
        -12    1    3    3    0    0  0.99353845098E+00  0.62121020969E+01  0.59281185128E+01  0.86440684991E+01  0.00000000000E+00 0.  1.
</event>
<event>
 7    1  0.2250716E-008  0.4614232E+02  0.7816164E-02  0.1320468E+00
        -11   -1    0    0    0    0  0.00000000000E+00  0.00000000000E+00  0.45593999997E+02  0.45594000000E+02  0.51100000000E-03 0.  1.
         11   -1    0    0    0    0 -0.00000000000E+00 -0.00000000000E+00 -0.45593999997E+02  0.45594000000E+02  0.51100000000E-03 0. -1.
    9900012    2    1    2    0    0  0.36460103682E+02 -0.23715289800E+02  0.11720046497E+02  0.46142316292E+02  0.99999866043E+01 0.  0.
         12    1    1    2    0    0 -0.36460103682E+02  0.23715289800E+02 -0.11720046497E+02  0.45045683708E+02  0.00000000000E+00 0. -1.
         11    1    3    3    0    0  0.84162300485E+01 -0.89897295871E+01  0.25316613678E+01  0.12572091147E+02  0.51100000000E-03 0. -1.
        -11    1    3    3    0    0  0.15404055589E+02 -0.11205466414E+02  0.40197730275E+01  0.19468075960E+02  0.51100000000E-03 0.  1.
         12    1    3    3    0    0  0.12639818045E+02 -0.35200937992E+01  0.51686121019E+01  0.14102149184E+02  0.00000000000E+00 0. -1.
</event>
<event>
 7    1  0.2250716E-008  0.4614232E+02  0.7816164E-02  0.1320468E+00
        -11   -1    0    0    0    0  0.00000000000E+00  0.00000000000E+00  0.45593999997E+02  0.45594000000E+02  0.51100000000E-03 0.  1.
         11   -1    0    0    0    0 -0.00000000000E+00 -0.00000000000E+00 -0.45593999997E+02  0.45594000000E+02  0.51100000000E-03 0. -1.
    9900012    2    1    2    0    0 -0.32575835970E+01  0.24996028821E+02  0.37332295386E+02  0.46142316672E+02  0.99999900679E+01 0.  0.
         12    1    1    2    0    0  0.32575835970E+01 -0.24996028821E+02 -0.37332295386E+02  0.45045683328E+02  0.00000000000E+00 0. -1.
         11    1    3    3    0    0 -0.14499532012E+01  0.39547808482E+01  0.10173169087E+02  0.11010723199E+02  0.51100000000E-03 0. -1.
        -11    1    3    3    0    0  0.94230491692E-01  0.19032044164E+02  0.25768902701E+02  0.32035354394E+02  0.51100000000E-03 0.  1.
        -12    1    3    3    0    0 -0.19018608875E+01  0.20092038086E+01  0.13902235976E+01  0.30962390785E+01  0.00000000000E+00 0.  1.
</event>
<event>
 7    1  0.2250716E-008  0.4614232E+02  0.7816164E-02  0.1320468E+00
        -11   -1    0    0    0    0  0.00000000000E+00  0.00000000000E+00  0.45593999997E+02  0.45594000000E+02  0.51100000000E-03 0.  1.
         11   -1    0    0    0    0 -0.00000000000E+00 -0.00000000000E+00 -0.45593999997E+02  0.45594000000E+02  0.51100000000E-03 0. -1.
    9900012    2    1    2    0    0 -0.22463671514E+02  0.36265493962E+02  0.14467581712E+02  0.46142317512E+02  0.99999977286E+01 0.  0.
         12    1    1    2    0    0  0.22463671514E+02 -0.36265493962E+02 -0.14467581712E+02  0.45045682488E+02  0.00000000000E+00 0. -1.
         11    1    3    3    0    0 -0.19624822486E+02  0.32785975818E+02  0.12794853043E+02  0.40295931961E+02  0.51100000000E-03 0.  1.
        -11    1    3    3    0    0 -0.29397227463E+01  0.29060094365E+01  0.25029168537E+01  0.48323341883E+01  0.51100000000E-03 0. -1.
        -12    1    3    3    0    0  0.10087371823E+00  0.57350870761E+00 -0.83018818444E+00  0.10140513628E+01  0.00000000000E+00 0.  1.
</event>
<event>
 7    1  0.2250716E-008  0.4614232E+02  0.7816164E-02  0.1320468E+00
        -11   -1    0    0    0    0  0.00000000000E+00  0.00000000000E+00  0.45593999997E+02  0.45594000000E+02  0.51100000000E-03 0.  1.
         11   -1    0    0    0    0 -0.00000000000E+00 -0.00000000000E+00 -0.45593999997E+02  0.45594000000E+02  0.51100000000E-03 0. -1.
    9900012    2    1    2    0    0  0.64621130679E+01  0.43068683984E+02  0.11508390757E+02  0.46142317596E+02  0.99999984916E+01 0.  0.
         12    1    1    2    0    0 -0.64621130679E+01 -0.43068683984E+02 -0.11508390757E+02  0.45045682404E+02  0.00000000000E+00 0. -1.
         11    1    3    3    0    0 -0.12241261890E+01  0.67067609792E+01  0.32100202560E+01  0.75354733138E+01  0.51100000000E-03 0. -1.
        -11    1    3    3    0    0  0.42156186459E+01  0.30291888995E+02  0.79783856514E+01  0.31607350685E+02  0.51100000000E-03 0.  1.
        -12    1    3    3    0    0  0.34706206111E+01  0.60700340105E+01  0.31998484995E+00  0.69994935973E+01  0.00000000000E+00 0.  1.
</event>
<event>
 7    1  0.2250716E-008  0.4614232E+02  0.7816164E-02  0.1320468E+00
        -11   -1    0    0    0    0  0.00000000000E+00  0.00000000000E+00  0.45593999997E+02  0.45594000000E+02  0.51100000000E-03 0.  1.
         11   -1    0    0    0    0 -0.00000000000E+00 -0.00000000000E+00 -0.45593999997E+02  0.45594000000E+02  0.51100000000E-03 0. -1.
    9900012    2    1    2    0    0  0.24492437952E+01 -0.43545846252E+02  0.11263819596E+02  0.46142321486E+02  0.10000033963E+02 0.  0.
         12    1    1    2    0    0 -0.24492437952E+01  0.43545846252E+02 -0.11263819596E+02  0.45045678514E+02  0.00000000000E+00 0. -1.
         11    1    3    3    0    0  0.14466729089E+01 -0.27510731038E+01  0.12797727005E+01  0.33614110361E+01  0.51100000000E-03 0. -1.
        -11    1    3    3    0    0  0.41728208874E+01 -0.24259156432E+02  0.76894000972E+01  0.25788485397E+02  0.51100000000E-03 0.  1.
         12    1    3    3    0    0 -0.31702500011E+01 -0.16535616716E+02  0.22946467981E+01  0.16992425053E+02  0.00000000000E+00 0. -1.
</event>
<event>
 7    1  0.2250716E-008  0.4614232E+02  0.7816164E-02  0.1320468E+00
        -11   -1    0    0    0    0  0.00000000000E+00  0.00000000000E+00  0.45593999997E+02  0.45594000000E+02  0.51100000000E-03 0. -1.
         11   -1    0    0    0    0 -0.00000000000E+00 -0.00000000000E+00 -0.45593999997E+02  0.45594000000E+02  0.51100000000E-03 0.  1.
    9900012    2    1    2    0    0  0.12854122265E+02  0.35266630954E+02 -0.24902806302E+02  0.46142317856E+02  0.10000000867E+02 0.  0.
         12    1    1    2    0    0 -0.12854122265E+02 -0.35266630954E+02  0.24902806302E+02  0.45045682144E+02  0.00000000000E+00 0. -1.
         11    1    3    3    0    0  0.48546879761E+01  0.85714844697E+01 -0.73361112772E+01  0.12282380482E+02  0.51100000000E-03 0. -1.
        -11    1    3    3    0    0  0.14418142710E+01  0.63006732352E+01 -0.82973198906E+01  0.10517738789E+02  0.51100000000E-03 0.  1.
        -12    1    3    3    0    0  0.65576200180E+01  0.20394473249E+02 -0.92693751342E+01  0.23342198585E+02  0.00000000000E+00 0.  1.
</event>
<event>
 7    1  0.2250716E-008  0.4614232E+02  0.7816164E-02  0.1320468E+00
        -11   -1    0    0    0    0  0.00000000000E+00  0.00000000000E+00  0.45593999997E+02  0.45594000000E+02  0.51100000000E-03 0.  1.
         11   -1    0    0    0    0 -0.00000000000E+00 -0.00000000000E+00 -0.45593999997E+02  0.45594000000E+02  0.51100000000E-03 0. -1.
    9900012    2    1    2    0    0 -0.18498695412E+02 -0.15108728531E+02  0.38192120730E+02  0.46142317680E+02  0.99999992626E+01 0.  0.
         12    1    1    2    0    0  0.18498695412E+02  0.15108728531E+02 -0.38192120730E+02  0.45045682320E+02  0.00000000000E+00 0. -1.
         11    1    3    3    0    0 -0.53662270378E+01 -0.38305027565E+01  0.65817948350E+01  0.93160703893E+01  0.51100000000E-03 0. -1.
        -11    1    3    3    0    0 -0.14791783418E+01  0.11228579729E+01  0.26423226137E+01  0.32296513202E+01  0.51100000000E-03 0.  1.
        -12    1    3    3    0    0 -0.11653290033E+02 -0.12401083748E+02  0.28968003281E+02  0.33596595971E+02  0.00000000000E+00 0.  1.
</event>
<event>
 7    1  0.2250716E-008  0.4614232E+02  0.7816164E-02  0.1320468E+00
        -11   -1    0    0    0    0  0.00000000000E+00  0.00000000000E+00  0.45593999997E+02  0.45594000000E+02  0.51100000000E-03 0.  1.
         11   -1    0    0    0    0 -0.00000000000E+00 -0.00000000000E+00 -0.45593999997E+02  0.45594000000E+02  0.51100000000E-03 0. -1.
    9900012    2    1    2    0    0  0.43722336281E+02 -0.28056933712E+01  0.10468943965E+02  0.46142318821E+02  0.10000009660E+02 0.  0.
         12    1    1    2    0    0 -0.43722336281E+02  0.28056933712E+01 -0.10468943965E+02  0.45045681179E+02  0.00000000000E+00 0. -1.
         11    1    3    3    0    0 -0.76960221985E-01 -0.91026744024E-01  0.70328113570E+00  0.71331154543E+00  0.51100000000E-03 0. -1.
        -11    1    3    3    0    0  0.31320006813E+02 -0.47005753094E+01  0.80402955872E+01  0.32675443201E+02  0.51100000000E-03 0.  1.
        -12    1    3    3    0    0  0.12479289690E+02  0.19859086822E+01  0.17253672423E+01  0.12753564074E+02  0.00000000000E+00 0.  1.
</event>
<event>
 7    1  0.2250716E-008  0.4614232E+02  0.7816164E-02  0.1320468E+00
        -11   -1    0    0    0    0  0.00000000000E+00  0.00000000000E+00  0.45593999997E+02  0.45594000000E+02  0.51100000000E-03 0.  1.
         11   -1    0    0    0    0 -0.00000000000E+00 -0.00000000000E+00 -0.45593999997E+02  0.45594000000E+02  0.51100000000E-03 0. -1.
    9900012    2    1    2    0    0  0.29379679106E+02 -0.30362598916E+02  0.15622436834E+02  0.46142317744E+02  0.99999998444E+01 0.  0.
         12    1    1    2    0    0 -0.29379679106E+02  0.30362598916E+02 -0.15622436834E+02  0.45045682256E+02  0.00000000000E+00 0. -1.
         11    1    3    3    0    0  0.18376598732E+02 -0.15300393001E+02  0.55477228252E+01  0.24547477177E+02  0.51100000000E-03 0. -1.
        -11    1    3    3    0    0  0.52478256678E+01 -0.99840589940E+01  0.46712824057E+01  0.12208275382E+02  0.51100000000E-03 0.  1.
        -12    1    3    3    0    0  0.57552547058E+01 -0.50781469203E+01  0.54034316033E+01  0.93865651846E+01  0.00000000000E+00 0.  1.
</event>
<event>
 7    1  0.2250716E-008  0.4614232E+02  0.7816164E-02  0.1320468E+00
        -11   -1    0    0    0    0  0.00000000000E+00  0.00000000000E+00  0.45593999997E+02  0.45594000000E+02  0.51100000000E-03 0.  1.
         11   -1    0    0    0    0 -0.00000000000E+00 -0.00000000000E+00 -0.45593999997E+02  0.45594000000E+02  0.51100000000E-03 0. -1.
    9900012    2    1    2    0    0 -0.24785775567E+02 -0.44631342423E+01  0.37347815466E+02  0.46142316991E+02  0.99999929739E+01 0.  0.
         12    1    1    2    0    0  0.24785775567E+02  0.44631342423E+01 -0.37347815466E+02  0.45045683009E+02  0.00000000000E+00 0. -1.
         11    1    3    3    0    0 -0.15670946197E+01  0.53811627038E+00  0.23200749575E+01  0.28509827669E+01  0.51100000000E-03 0. -1.
        -11    1    3    3    0    0 -0.22551855142E+02 -0.67174623929E+01  0.31580808440E+02  0.39383472845E+02  0.51100000000E-03 0.  1.
        -12    1    3    3    0    0 -0.66682580524E+00  0.17162118802E+01  0.34469320680E+01  0.39078613785E+01  0.00000000000E+00 0.  1.
</event>
<event>
 7    1  0.2250716E-008  0.4614232E+02  0.7816164E-02  0.1320468E+00
        -11   -1    0    0    0    0  0.00000000000E+00  0.00000000000E+00  0.45593999997E+02  0.45594000000E+02  0.51100000000E-03 0.  1.
         11   -1    0    0    0    0 -0.00000000000E+00 -0.00000000000E+00 -0.45593999997E+02  0.45594000000E+02  0.51100000000E-03 0. -1.
    9900012    2    1    2    0    0 -0.15973771151E+02 -0.34594009273E+02  0.24025124260E+02  0.46142318319E+02  0.10000005090E+02 0.  0.
         12    1    1    2    0    0  0.15973771151E+02  0.34594009273E+02 -0.24025124260E+02  0.45045681681E+02  0.00000000000E+00 0. -1.
         11    1    3    3    0    0 -0.36563499347E+01 -0.17753243234E+02  0.10895267358E+02  0.21148366160E+02  0.51100000000E-03 0. -1.
        -11    1    3    3    0    0 -0.20769515747E+01 -0.44197934475E+01  0.48849582752E+01  0.69073236187E+01  0.51100000000E-03 0.  1.
         12    1    3    3    0    0 -0.10240469641E+02 -0.12420972592E+02  0.82448986272E+01  0.18086628541E+02  0.00000000000E+00 0. -1.
</event>
<event>
 7    1  0.2250716E-008  0.4614232E+02  0.7816164E-02  0.1320468E+00
        -11   -1    0    0    0    0  0.00000000000E+00  0.00000000000E+00  0.45593999997E+02  0.45594000000E+02  0.51100000000E-03 0.  1.
         11   -1    0    0    0    0 -0.00000000000E+00 -0.00000000000E+00 -0.45593999997E+02  0.45594000000E+02  0.51100000000E-03 0. -1.
    9900012    2    1    2    0    0  0.16674661167E+02  0.29349987399E+02  0.29826957556E+02  0.46142317828E+02  0.10000000606E+02 0.  0.
         12    1    1    2    0    0 -0.16674661167E+02 -0.29349987399E+02 -0.29826957556E+02  0.45045682172E+02  0.00000000000E+00 0. -1.
         11    1    3    3    0    0 -0.20754052822E+00  0.31744838421E+01  0.34504052562E+01  0.46931564461E+01  0.51100000000E-03 0. -1.
        -11    1    3    3    0    0  0.63974902835E+01  0.55785163653E+01  0.10035452154E+02  0.13143744785E+02  0.51100000000E-03 0.  1.
         12    1    3    3    0    0  0.10484711411E+02  0.20596987191E+02  0.16341100146E+02  0.28305416597E+02  0.00000000000E+00 0. -1.
</event>
<event>
 7    1  0.2250716E-008  0.4614232E+02  0.7816164E-02  0.1320468E+00
        -11   -1    0    0    0    0  0.00000000000E+00  0.00000000000E+00  0.45593999997E+02  0.45594000000E+02  0.51100000000E-03 0.  1.
         11   -1    0    0    0    0 -0.00000000000E+00 -0.00000000000E+00 -0.45593999997E+02  0.45594000000E+02  0.51100000000E-03 0. -1.
    9900012    2    1    2    0    0 -0.28069935808E+02 -0.12216613583E+02  0.33044612567E+02  0.46142319148E+02  0.10000012650E+02 0.  0.
         12    1    1    2    0    0  0.28069935808E+02  0.12216613583E+02 -0.33044612567E+02  0.45045680852E+02  0.00000000000E+00 0. -1.
         11    1    3    3    0    0 -0.11655114986E+02 -0.81787361503E+01  0.13262146946E+02  0.19458108136E+02  0.51100000000E-03 0. -1.
        -11    1    3    3    0    0 -0.13458577227E+02 -0.53215036903E+01  0.17626436084E+02  0.22806642712E+02  0.51100000000E-03 0.  1.
        -12    1    3    3    0    0 -0.29562435949E+01  0.12836262574E+01  0.21560295360E+01  0.38775683000E+01  0.00000000000E+00 0.  1.
</event>
<event>
 7    1  0.2250716E-008  0.4614231E+02  0.7816164E-02  0.1320468E+00
        -11   -1    0    0    0    0  0.00000000000E+00  0.00000000000E+00  0.45593999997E+02  0.45594000000E+02  0.51100000000E-03 0.  1.
         11   -1    0    0    0    0 -0.00000000000E+00 -0.00000000000E+00 -0.45593999997E+02  0.45594000000E+02  0.51100000000E-03 0. -1.
    9900012    2    1    2    0    0  0.32744284574E+01  0.12396118166E+02  0.43182498378E+02  0.46142314374E+02  0.99999691139E+01 0.  0.
         12    1    1    2    0    0 -0.32744284574E+01 -0.12396118166E+02 -0.43182498378E+02  0.45045685626E+02  0.00000000000E+00 0. -1.
         11    1    3    3    0    0 -0.25408341001E+00  0.42025874473E+01  0.49570184308E+01  0.65037167540E+01  0.51100000000E-03 0. -1.
        -11    1    3    3    0    0 -0.92236909317E+00  0.30679173793E+01  0.72220712671E+01  0.79007085403E+01  0.51100000000E-03 0.  1.
        -12    1    3    3    0    0  0.44508809606E+01  0.51256133398E+01  0.31003408680E+02  0.31737889080E+02  0.00000000000E+00 0.  1.
</event>
<event>
 7    1  0.2250716E-008  0.4614231E+02  0.7816164E-02  0.1320468E+00
        -11   -1    0    0    0    0  0.00000000000E+00  0.00000000000E+00  0.45593999997E+02  0.45594000000E+02  0.51100000000E-03 0.  1.
         11   -1    0    0    0    0 -0.00000000000E+00 -0.00000000000E+00 -0.45593999997E+02  0.45594000000E+02  0.51100000000E-03 0. -1.
    9900012    2    1    2    0    0  0.10177692060E+02 -0.43486439469E+02 -0.58700965524E+01  0.46142313559E+02  0.99999616838E+01 0.  0.
         12    1    1    2    0    0 -0.10177692060E+02  0.43486439469E+02  0.58700965524E+01  0.45045686441E+02  0.00000000000E+00 0. -1.
         11    1    3    3    0    0  0.95771818237E+00 -0.12219494902E+02 -0.21465891493E+01  0.12443517389E+02  0.51100000000E-03 0. -1.
        -11    1    3    3    0    0  0.81831229051E+01 -0.27740874060E+02 -0.68612522027E+00  0.28930785716E+02  0.51100000000E-03 0.  1.
         12    1    3    3    0    0  0.10368509724E+01 -0.35260705075E+01 -0.30373821828E+01  0.47680104538E+01  0.00000000000E+00 0. -1.
</event>
<event>
 7    1  0.2250716E-008  0.4614232E+02  0.7816164E-02  0.1320468E+00
        -11   -1    0    0    0    0  0.00000000000E+00  0.00000000000E+00  0.45593999997E+02  0.45594000000E+02  0.51100000000E-03 0.  1.
         11   -1    0    0    0    0 -0.00000000000E+00 -0.00000000000E+00 -0.45593999997E+02  0.45594000000E+02  0.51100000000E-03 0. -1.
    9900012    2    1    2    0    0 -0.38976110827E+02  0.95632034180E+01  0.20457793788E+02  0.46142318726E+02  0.10000008797E+02 0.  0.
         12    1    1    2    0    0  0.38976110827E+02 -0.95632034180E+01 -0.20457793788E+02  0.45045681274E+02  0.00000000000E+00 0. -1.
         11    1    3    3    0    0 -0.28929045164E+02  0.59095284816E+01  0.15842173998E+02  0.33508008867E+02  0.51100000000E-03 0. -1.
        -11    1    3    3    0    0 -0.89454065549E+01  0.46350626299E+01  0.31529305842E+01  0.10556754972E+02  0.51100000000E-03 0.  1.
         12    1    3    3    0    0 -0.11016591078E+01 -0.98138769339E+00  0.14626892056E+01  0.20775548866E+01  0.00000000000E+00 0. -1.
</event>
<event>
 7    1  0.2250716E-008  0.4614232E+02  0.7816164E-02  0.1320468E+00
        -11   -1    0    0    0    0  0.00000000000E+00  0.00000000000E+00  0.45593999997E+02  0.45594000000E+02  0.51100000000E-03 0.  1.
         11   -1    0    0    0    0 -0.00000000000E+00 -0.00000000000E+00 -0.45593999997E+02  0.45594000000E+02  0.51100000000E-03 0. -1.
    9900012    2    1    2    0    0  0.39157474857E+02  0.16225028126E+02  0.15249728057E+02  0.46142316736E+02  0.99999906558E+01 0.  0.
         12    1    1    2    0    0 -0.39157474857E+02 -0.16225028126E+02 -0.15249728057E+02  0.45045683264E+02  0.00000000000E+00 0. -1.
         11    1    3    3    0    0  0.21915164801E+01 -0.60721527427E+00  0.14451769822E+00  0.22786707743E+01  0.51100000000E-03 0. -1.
        -11    1    3    3    0    0  0.30540965740E+02  0.13708424495E+02  0.95445517267E+01  0.34810486328E+02  0.51100000000E-03 0.  1.
        -12    1    3    3    0    0  0.64249926373E+01  0.31238189061E+01  0.55606586319E+01  0.90531596345E+01  0.00000000000E+00 0.  1.
</event>
<event>
 7    1  0.2250716E-008  0.4614232E+02  0.7816164E-02  0.1320468E+00
        -11   -1    0    0    0    0  0.00000000000E+00  0.00000000000E+00  0.45593999997E+02  0.45594000000E+02  0.51100000000E-03 0.  1.
         11   -1    0    0    0    0 -0.00000000000E+00 -0.00000000000E+00 -0.45593999997E+02  0.45594000000E+02  0.51100000000E-03 0. -1.
    9900012    2    1    2    0    0 -0.29032681182E+02 -0.29809573674E+02  0.17251267822E+02  0.46142317624E+02  0.99999987498E+01 0.  0.
         12    1    1    2    0    0  0.29032681182E+02  0.29809573674E+02 -0.17251267822E+02  0.45045682376E+02  0.00000000000E+00 0. -1.
         11    1    3    3    0    0 -0.35860411692E+01 -0.39356165583E+01 -0.94333680712E-01  0.53251918337E+01  0.51100000000E-03 0. -1.
        -11    1    3    3    0    0 -0.85754191193E+01 -0.13362347027E+02  0.62587258328E+01  0.17066393305E+02  0.51100000000E-03 0.  1.
        -12    1    3    3    0    0 -0.16871220893E+02 -0.12511610089E+02  0.11086875670E+02  0.23750732485E+02  0.00000000000E+00 0.  1.
</event>
<event>
 7    1  0.2250716E-008  0.4614232E+02  0.7816164E-02  0.1320468E+00
        -11   -1    0    0    0    0  0.00000000000E+00  0.00000000000E+00  0.45593999997E+02  0.45594000000E+02  0.51100000000E-03 0.  1.
         11   -1    0    0    0    0 -0.00000000000E+00 -0.00000000000E+00 -0.45593999997E+02  0.45594000000E+02  0.51100000000E-03 0. -1.
    9900012    2    1    2    0    0 -0.24339524152E+02 -0.15603420162E+02  0.34543221442E+02  0.46142319804E+02  0.10000018631E+02 0.  0.
         12    1    1    2    0    0  0.24339524152E+02  0.15603420162E+02 -0.34543221442E+02  0.45045680196E+02  0.00000000000E+00 0. -1.
         11    1    3    3    0    0 -0.35889809018E+01 -0.44666339984E+01  0.81092273129E+01  0.99293086901E+01  0.51100000000E-03 0. -1.
        -11    1    3    3    0    0 -0.21988644473E+00 -0.23992553677E+01  0.31255992179E+01  0.39464093933E+01  0.51100000000E-03 0.  1.
        -12    1    3    3    0    0 -0.20530656806E+02 -0.87375307964E+01  0.23308394911E+02  0.32266601721E+02  0.00000000000E+00 0.  1.
</event>
<event>
 7    1  0.2250716E-008  0.4614232E+02  0.7816164E-02  0.1320468E+00
        -11   -1    0    0    0    0  0.00000000000E+00  0.00000000000E+00  0.45593999997E+02  0.45594000000E+02  0.51100000000E-03 0.  1.
         11   -1    0    0    0    0 -0.00000000000E+00 -0.00000000000E+00 -0.45593999997E+02  0.45594000000E+02  0.51100000000E-03 0. -1.
    9900012    2    1    2    0    0 -0.28445652406E+01  0.83857093011E+01  0.44166750544E+02  0.46142317349E+02  0.99999962408E+01 0.  0.
         12    1    1    2    0    0  0.28445652406E+01 -0.83857093011E+01 -0.44166750544E+02  0.45045682651E+02  0.00000000000E+00 0. -1.
         11    1    3    3    0    0  0.76001884598E+00  0.17643629695E+01  0.37158186526E+01  0.41830507832E+01  0.51100000000E-03 0. -1.
        -11    1    3    3    0    0 -0.51858475089E+00  0.58105917065E+01  0.36074757798E+02  0.36543399631E+02  0.51100000000E-03 0.  1.
        -12    1    3    3    0    0 -0.30859993357E+01  0.81075462507E+00  0.43761740935E+01  0.54158669351E+01  0.00000000000E+00 0.  1.
</event>
<event>
 7    1  0.2250716E-008  0.4614232E+02  0.7816164E-02  0.1320468E+00
        -11   -1    0    0    0    0  0.00000000000E+00  0.00000000000E+00  0.45593999997E+02  0.45594000000E+02  0.51100000000E-03 0.  1.
         11   -1    0    0    0    0 -0.00000000000E+00 -0.00000000000E+00 -0.45593999997E+02  0.45594000000E+02  0.51100000000E-03 0. -1.
    9900012    2    1    2    0    0 -0.38164467989E+02  0.18707543760E+02  0.14920275475E+02  0.46142318402E+02  0.10000005843E+02 0.  0.
         12    1    1    2    0    0  0.38164467989E+02 -0.18707543760E+02 -0.14920275475E+02  0.45045681598E+02  0.00000000000E+00 0. -1.
         11    1    3    3    0    0 -0.61593093534E+01  0.19553009113E+01  0.43924031755E+01  0.78136738658E+01  0.51100000000E-03 0. -1.
        -11    1    3    3    0    0 -0.14903526182E+02  0.77614563998E+01  0.86981225305E+01  0.18921221787E+02  0.51100000000E-03 0.  1.
         12    1    3    3    0    0 -0.17101632453E+02  0.89907864488E+01  0.18297497687E+01  0.19407422749E+02  0.00000000000E+00 0. -1.
</event>
<event>
 7    1  0.2250716E-008  0.4614232E+02  0.7816164E-02  0.1320468E+00
        -11   -1    0    0    0    0  0.00000000000E+00  0.00000000000E+00  0.45593999997E+02  0.45594000000E+02  0.51100000000E-03 0. -1.
         11   -1    0    0    0    0 -0.00000000000E+00 -0.00000000000E+00 -0.45593999997E+02  0.45594000000E+02  0.51100000000E-03 0.  1.
    9900012    2    1    2    0    0 -0.44986447212E+02 -0.64219380571E+00 -0.22182346243E+01  0.46142318625E+02  0.10000007881E+02 0.  0.
         12    1    1    2    0    0  0.44986447212E+02  0.64219380571E+00  0.22182346243E+01  0.45045681375E+02  0.00000000000E+00 0. -1.
         11    1    3    3    0    0 -0.39407223314E+02 -0.90434515283E+00 -0.13239900186E+01  0.39439828084E+02  0.51100000000E-03 0. -1.
        -11    1    3    3    0    0 -0.50488785815E+01  0.14791866505E+01 -0.36643090112E+00  0.52738448919E+01  0.51100000000E-03 0.  1.
         12    1    3    3    0    0 -0.53034531668E+00 -0.12170353034E+01 -0.52781370454E+00  0.14286456493E+01  0.00000000000E+00 0. -1.
</event>
<event>
 7    1  0.2250716E-008  0.4614232E+02  0.7816164E-02  0.1320468E+00
        -11   -1    0    0    0    0  0.00000000000E+00  0.00000000000E+00  0.45593999997E+02  0.45594000000E+02  0.51100000000E-03 0. -1.
         11   -1    0    0    0    0 -0.00000000000E+00 -0.00000000000E+00 -0.45593999997E+02  0.45594000000E+02  0.51100000000E-03 0.  1.
    9900012    2    1    2    0    0 -0.24046145766E+01 -0.31127889380E+02 -0.32471311104E+02  0.46142315264E+02  0.99999772298E+01 0.  0.
         12    1    1    2    0    0  0.24046145766E+01  0.31127889380E+02  0.32471311104E+02  0.45045684736E+02  0.00000000000E+00 0. -1.
         11    1    3    3    0    0 -0.31818727705E+01 -0.11093742107E+02 -0.15547977290E+02  0.19363239045E+02  0.51100000000E-03 0. -1.
        -11    1    3    3    0    0 -0.82258861674E+00 -0.90536224720E+01 -0.10758558111E+02  0.14085144826E+02  0.51100000000E-03 0.  1.
        -12    1    3    3    0    0  0.15998468106E+01 -0.10980524801E+02 -0.61647757041E+01  0.12693931392E+02  0.00000000000E+00 0.  1.
</event>
<event>
 7    1  0.2250716E-008  0.4614232E+02  0.7816164E-02  0.1320468E+00
        -11   -1    0    0    0    0  0.00000000000E+00  0.00000000000E+00  0.45593999997E+02  0.45594000000E+02  0.51100000000E-03 0.  1.
         11   -1    0    0    0    0 -0.00000000000E+00 -0.00000000000E+00 -0.45593999997E+02  0.45594000000E+02  0.51100000000E-03 0. -1.
    9900012    2    1    2    0    0  0.14861205483E+02  0.42421681760E+02  0.29426108584E+01  0.46142317960E+02  0.10000001817E+02 0.  0.
         12    1    1    2    0    0 -0.14861205483E+02 -0.42421681760E+02 -0.29426108584E+01  0.45045682040E+02  0.00000000000E+00 0. -1.
         11    1    3    3    0    0  0.24109615127E+01  0.13892537348E+02 -0.27923636736E+01  0.14374026037E+02  0.51100000000E-03 0. -1.
        -11    1    3    3    0    0  0.12061393867E+01  0.17807424943E+01 -0.17149200660E+00  0.21575972331E+01  0.51100000000E-03 0.  1.
         12    1    3    3    0    0  0.11244104584E+02  0.26748401918E+02  0.59064665386E+01  0.29610694690E+02  0.00000000000E+00 0. -1.
</event>
<event>
 7    1  0.2250716E-008  0.4614232E+02  0.7816164E-02  0.1320468E+00
        -11   -1    0    0    0    0  0.00000000000E+00  0.00000000000E+00  0.45593999997E+02  0.45594000000E+02  0.51100000000E-03 0.  1.
         11   -1    0    0    0    0 -0.00000000000E+00 -0.00000000000E+00 -0.45593999997E+02  0.45594000000E+02  0.51100000000E-03 0. -1.
    9900012    2    1    2    0    0  0.34006082780E+02  0.23928362003E+02  0.17324355677E+02  0.46142317923E+02  0.10000001477E+02 0.  0.
         12    1    1    2    0    0 -0.34006082780E+02 -0.23928362003E+02 -0.17324355677E+02  0.45045682077E+02  0.00000000000E+00 0. -1.
         11    1    3    3    0    0  0.40225692834E+00  0.13478073422E-01  0.78588473428E+00  0.88295377657E+00  0.51100000000E-03 0. -1.
        -11    1    3    3    0    0  0.13935247450E+02  0.11333885410E+02  0.28289483957E+01  0.18183812287E+02  0.51100000000E-03 0.  1.
        -12    1    3    3    0    0  0.19668578401E+02  0.12580998520E+02  0.13709522547E+02  0.27075551860E+02  0.00000000000E+00 0.  1.
</event>
<event>
 7    1  0.2250716E-008  0.4614232E+02  0.7816164E-02  0.1320468E+00
        -11   -1    0    0    0    0  0.00000000000E+00  0.00000000000E+00  0.45593999997E+02  0.45594000000E+02  0.51100000000E-03 0. -1.
         11   -1    0    0    0    0 -0.00000000000E+00 -0.00000000000E+00 -0.45593999997E+02  0.45594000000E+02  0.51100000000E-03 0.  1.
    9900012    2    1    2    0    0 -0.16759729108E+02  0.10168904256E+02 -0.40556359850E+02  0.46142318100E+02  0.10000003091E+02 0.  0.
         12    1    1    2    0    0  0.16759729108E+02 -0.10168904256E+02  0.40556359850E+02  0.45045681900E+02  0.00000000000E+00 0. -1.
         11    1    3    3    0    0 -0.21899293014E+01  0.21409578674E+01 -0.17903685404E+01  0.35475217697E+01  0.51100000000E-03 0. -1.
        -11    1    3    3    0    0 -0.13098917766E+02  0.52549084835E+01 -0.27645917989E+02  0.31040175443E+02  0.51100000000E-03 0.  1.
        -12    1    3    3    0    0 -0.14708820411E+01  0.27730379052E+01 -0.11120073320E+02  0.11554620887E+02  0.00000000000E+00 0.  1.
</event>
<event>
 7    1  0.2250716E-008  0.4614232E+02  0.7816164E-02  0.1320468E+00
        -11   -1    0    0    0    0  0.00000000000E+00  0.00000000000E+00  0.45593999997E+02  0.45594000000E+02  0.51100000000E-03 0.  1.
         11   -1    0    0    0    0 -0.00000000000E+00 -0.00000000000E+00 -0.45593999997E+02  0.45594000000E+02  0.51100000000E-03 0. -1.
    9900012    2    1    2    0    0  0.43865742373E+02  0.67062424952E+01  0.77418632646E+01  0.46142317753E+02  0.99999999230E+01 0.  0.
         12    1    1    2    0    0 -0.43865742373E+02 -0.67062424952E+01 -0.77418632646E+01  0.45045682247E+02  0.00000000000E+00 0. -1.
         11    1    3    3    0    0  0.11080987701E+02  0.14289338652E+01  0.40058191352E-01  0.11172812776E+02  0.51100000000E-03 0. -1.
        -11    1    3    3    0    0  0.16400475797E+02 -0.50310358873E+00  0.13228458405E+01  0.16461428886E+02  0.51100000000E-03 0.  1.
         12    1    3    3    0    0  0.16384278875E+02  0.57804122187E+01  0.63789592327E+01  0.18508076090E+02  0.00000000000E+00 0. -1.
</event>
<event>
 7    1  0.2250716E-008  0.4614231E+02  0.7816164E-02  0.1320468E+00
        -11   -1    0    0    0    0  0.00000000000E+00  0.00000000000E+00  0.45593999997E+02  0.45594000000E+02  0.51100000000E-03 0.  1.
         11   -1    0    0    0    0 -0.00000000000E+00 -0.00000000000E+00 -0.45593999997E+02  0.45594000000E+02  0.51100000000E-03 0. -1.
    9900012    2    1    2    0    0 -0.24399403192E+02 -0.30490192999E+02  0.22452863398E+02  0.46142314080E+02  0.99999664341E+01 0.  0.
         12    1    1    2    0    0  0.24399403192E+02  0.30490192999E+02 -0.22452863398E+02  0.45045685920E+02  0.00000000000E+00 0. -1.
         11    1    3    3    0    0 -0.10045258711E+02 -0.10748934326E+02  0.10623952217E+02  0.18147043084E+02  0.51100000000E-03 0. -1.
        -11    1    3    3    0    0 -0.12504603972E+02 -0.19730303306E+02  0.11740393672E+02  0.26143581103E+02  0.51100000000E-03 0.  1.
         12    1    3    3    0    0 -0.18495405086E+01 -0.10955367221E-01  0.88517508738E-01  0.18516898936E+01  0.00000000000E+00 0. -1.
</event>
<event>
 7    1  0.2250716E-008  0.4614232E+02  0.7816164E-02  0.1320468E+00
        -11   -1    0    0    0    0  0.00000000000E+00  0.00000000000E+00  0.45593999997E+02  0.45594000000E+02  0.51100000000E-03 0.  1.
         11   -1    0    0    0    0 -0.00000000000E+00 -0.00000000000E+00 -0.45593999997E+02  0.45594000000E+02  0.51100000000E-03 0. -1.
    9900012    2    1    2    0    0  0.42863177943E+02  0.13498863780E+02  0.31051694231E+01  0.46142318477E+02  0.10000006525E+02 0.  0.
         12    1    1    2    0    0 -0.42863177943E+02 -0.13498863780E+02 -0.31051694231E+01  0.45045681523E+02  0.00000000000E+00 0. -1.
         11    1    3    3    0    0  0.15083145518E+02  0.91122812782E+01  0.62304191978E+00  0.17633012514E+02  0.51100000000E-03 0. -1.
        -11    1    3    3    0    0  0.10760816319E+02  0.73695810869E+00  0.26320764895E+01  0.11102526830E+02  0.51100000000E-03 0.  1.
        -12    1    3    3    0    0  0.17019216106E+02  0.36496243934E+01 -0.14994898614E+00  0.17406779133E+02  0.00000000000E+00 0.  1.
</event>
<event>
 7    1  0.2250716E-008  0.4614232E+02  0.7816164E-02  0.1320468E+00
        -11   -1    0    0    0    0  0.00000000000E+00  0.00000000000E+00  0.45593999997E+02  0.45594000000E+02  0.51100000000E-03 0.  1.
         11   -1    0    0    0    0 -0.00000000000E+00 -0.00000000000E+00 -0.45593999997E+02  0.45594000000E+02  0.51100000000E-03 0. -1.
    9900012    2    1    2    0    0  0.85789287852E+01  0.36995212302E+02  0.24225395733E+02  0.46142317068E+02  0.99999936835E+01 0.  0.
         12    1    1    2    0    0 -0.85789287852E+01 -0.36995212302E+02 -0.24225395733E+02  0.45045682932E+02  0.00000000000E+00 0. -1.
         11    1    3    3    0    0  0.50697093866E+01  0.21033625427E+02  0.13056928572E+02  0.25270511191E+02  0.51100000000E-03 0. -1.
        -11    1    3    3    0    0 -0.12120620272E+01  0.93439776632E+01  0.69875379124E+01  0.11730502942E+02  0.51100000000E-03 0.  1.
         12    1    3    3    0    0  0.47212814258E+01  0.66176092118E+01  0.41809292492E+01  0.91413029360E+01  0.00000000000E+00 0. -1.
</event>
<event>
 7    1  0.2250716E-008  0.4614232E+02  0.7816164E-02  0.1320468E+00
        -11   -1    0    0    0    0  0.00000000000E+00  0.00000000000E+00  0.45593999997E+02  0.45594000000E+02  0.51100000000E-03 0.  1.
         11   -1    0    0    0    0 -0.00000000000E+00 -0.00000000000E+00 -0.45593999997E+02  0.45594000000E+02  0.51100000000E-03 0. -1.
    9900012    2    1    2    0    0  0.19545013947E+02 -0.10306454801E+02  0.39254081524E+02  0.46142317665E+02  0.99999991227E+01 0.  0.
         12    1    1    2    0    0 -0.19545013947E+02  0.10306454801E+02 -0.39254081524E+02  0.45045682335E+02  0.00000000000E+00 0. -1.
         11    1    3    3    0    0  0.26244764727E+01 -0.26491367004E+01  0.32715229139E+01  0.49607120911E+01  0.51100000000E-03 0. -1.
        -11    1    3    3    0    0  0.96871907770E+01 -0.62780515651E+01  0.28181279557E+02  0.30453901463E+02  0.51100000000E-03 0.  1.
        -12    1    3    3    0    0  0.72333466978E+01 -0.13792665359E+01  0.78012790527E+01  0.10727704111E+02  0.00000000000E+00 0.  1.
</event>
<event>
 7    1  0.2250716E-008  0.4614232E+02  0.7816164E-02  0.1320468E+00
        -11   -1    0    0    0    0  0.00000000000E+00  0.00000000000E+00  0.45593999997E+02  0.45594000000E+02  0.51100000000E-03 0.  1.
         11   -1    0    0    0    0 -0.00000000000E+00 -0.00000000000E+00 -0.45593999997E+02  0.45594000000E+02  0.51100000000E-03 0. -1.
    9900012    2    1    2    0    0 -0.38482307682E+02  0.20577457359E+02  0.11171107791E+02  0.46142318685E+02  0.10000008423E+02 0.  0.
         12    1    1    2    0    0  0.38482307682E+02 -0.20577457359E+02 -0.11171107791E+02  0.45045681315E+02  0.00000000000E+00 0. -1.
         11    1    3    3    0    0 -0.29773495512E+02  0.19616214548E+02  0.91045264664E+01  0.36798767787E+02  0.51100000000E-03 0. -1.
        -11    1    3    3    0    0 -0.59904195673E+01  0.11296169564E+00  0.31383773388E+00  0.59996984359E+01  0.51100000000E-03 0.  1.
         12    1    3    3    0    0 -0.27183926021E+01  0.84828111493E+00  0.17527435910E+01  0.33438524616E+01  0.00000000000E+00 0. -1.
</event>
<event>
 7    1  0.2250716E-008  0.4614232E+02  0.7816164E-02  0.1320468E+00
        -11   -1    0    0    0    0  0.00000000000E+00  0.00000000000E+00  0.45593999997E+02  0.45594000000E+02  0.51100000000E-03 0.  1.
         11   -1    0    0    0    0 -0.00000000000E+00 -0.00000000000E+00 -0.45593999997E+02  0.45594000000E+02  0.51100000000E-03 0. -1.
    9900012    2    1    2    0    0  0.15617490720E+01  0.23868005073E+02  0.38170573772E+02  0.46142318427E+02  0.10000006070E+02 0.  0.
         12    1    1    2    0    0 -0.15617490720E+01 -0.23868005073E+02 -0.38170573772E+02  0.45045681573E+02  0.00000000000E+00 0. -1.
         11    1    3    3    0    0  0.15297537021E+01  0.12064773232E+02  0.19906378367E+02  0.23327297303E+02  0.51100000000E-03 0.  1.
        -11    1    3    3    0    0  0.25292114609E+01  0.51530145739E+01  0.12168683074E+02  0.13454639268E+02  0.51100000000E-03 0. -1.
         12    1    3    3    0    0 -0.24972160911E+01  0.66502172672E+01  0.60955123310E+01  0.93603818557E+01  0.00000000000E+00 0. -1.
</event>
<event>
 7    1  0.2250716E-008  0.4614232E+02  0.7816164E-02  0.1320468E+00
        -11   -1    0    0    0    0  0.00000000000E+00  0.00000000000E+00  0.45593999997E+02  0.45594000000E+02  0.51100000000E-03 0.  1.
         11   -1    0    0    0    0 -0.00000000000E+00 -0.00000000000E+00 -0.45593999997E+02  0.45594000000E+02  0.51100000000E-03 0. -1.
    9900012    2    1    2    0    0 -0.44293223424E+02 -0.81855416966E+01 -0.46962031723E+00  0.46142320102E+02  0.10000021350E+02 0.  0.
         12    1    1    2    0    0  0.44293223424E+02  0.81855416966E+01  0.46962031723E+00  0.45045679898E+02  0.00000000000E+00 0. -1.
         11    1    3    3    0    0 -0.12179185967E+02 -0.62451954334E+00 -0.26081774813E+01  0.12470973719E+02  0.51100000000E-03 0. -1.
        -11    1    3    3    0    0 -0.27714824933E+02 -0.42135879607E+01  0.24101552225E+01  0.28136714325E+02  0.51100000000E-03 0.  1.
        -12    1    3    3    0    0 -0.43992125252E+01 -0.33474341926E+01 -0.27159805845E+00  0.55346320583E+01  0.00000000000E+00 0.  1.
</event>
<event>
 7    1  0.2901854E-008  0.4614232E+02  0.7816164E-02  0.1320468E+00
        -11   -1    0    0    0    0  0.00000000000E+00  0.00000000000E+00  0.45593999997E+02  0.45594000000E+02  0.51100000000E-03 0.  1.
         11   -1    0    0    0    0 -0.00000000000E+00 -0.00000000000E+00 -0.45593999997E+02  0.45594000000E+02  0.51100000000E-03 0. -1.
    9900012    2    1    2    0    0  0.22253195408E+02 -0.39054089709E+02 -0.29473448109E+01  0.46142317961E+02  0.10000001827E+02 0.  0.
         12    1    1    2    0    0 -0.22253195408E+02  0.39054089709E+02  0.29473448109E+01  0.45045682039E+02  0.00000000000E+00 0. -1.
         11    1    3    3    0    0  0.26332590175E+01 -0.13124787218E+01  0.50236669083E+00  0.29847991560E+01  0.51100000000E-03 0. -1.
        -11    1    3    3    0    0  0.36324664035E+01 -0.34405612221E+01  0.83283687793E+00  0.50720697178E+01  0.51100000000E-03 0.  1.
        -12    1    3    3    0    0  0.15987469987E+02 -0.34301049765E+02 -0.42825483797E+01  0.38085449088E+02  0.00000000000E+00 0.  1.
</event>
<event>
 7    1  0.2250716E-008  0.4614232E+02  0.7816164E-02  0.1320468E+00
        -11   -1    0    0    0    0  0.00000000000E+00  0.00000000000E+00  0.45593999997E+02  0.45594000000E+02  0.51100000000E-03 0.  1.
         11   -1    0    0    0    0 -0.00000000000E+00 -0.00000000000E+00 -0.45593999997E+02  0.45594000000E+02  0.51100000000E-03 0. -1.
    9900012    2    1    2    0    0 -0.15339426785E+02  0.40739289031E+02  0.11581269603E+02  0.46142317739E+02  0.99999997943E+01 0.  0.
         12    1    1    2    0    0  0.15339426785E+02 -0.40739289031E+02 -0.11581269603E+02  0.45045682261E+02  0.00000000000E+00 0. -1.
         11    1    3    3    0    0 -0.47008630207E+00  0.22489203689E+00  0.17795065769E+00  0.55065802214E+00  0.51100000000E-03 0. -1.
        -11    1    3    3    0    0 -0.15587136877E+02  0.32687316714E+02  0.10335334607E+02  0.37659509446E+02  0.51100000000E-03 0.  1.
         12    1    3    3    0    0  0.71779639500E+00  0.78270802800E+01  0.10679843377E+01  0.79321502708E+01  0.00000000000E+00 0. -1.
</event>
<event>
 7    1  0.2250716E-008  0.4614232E+02  0.7816164E-02  0.1320468E+00
        -11   -1    0    0    0    0  0.00000000000E+00  0.00000000000E+00  0.45593999997E+02  0.45594000000E+02  0.51100000000E-03 0.  1.
         11   -1    0    0    0    0 -0.00000000000E+00 -0.00000000000E+00 -0.45593999997E+02  0.45594000000E+02  0.51100000000E-03 0. -1.
    9900012    2    1    2    0    0  0.41083399289E+02 -0.89741899580E+01 -0.16147189444E+02  0.46142317526E+02  0.99999978578E+01 0.  0.
         12    1    1    2    0    0 -0.41083399289E+02  0.89741899580E+01  0.16147189444E+02  0.45045682474E+02  0.00000000000E+00 0. -1.
         11    1    3    3    0    0  0.27528773045E+01 -0.15698768950E+01 -0.80919109783E+00  0.32707242949E+01  0.51100000000E-03 0. -1.
        -11    1    3    3    0    0  0.32634102843E+02 -0.78203397228E+01 -0.15896522003E+02  0.37132759038E+02  0.51100000000E-03 0.  1.
         12    1    3    3    0    0  0.56964191418E+01  0.41602665978E+00  0.55852365600E+00  0.57388341930E+01  0.00000000000E+00 0. -1.
</event>
<event>
 7    1  0.2250716E-008  0.4614232E+02  0.7816164E-02  0.1320468E+00
        -11   -1    0    0    0    0  0.00000000000E+00  0.00000000000E+00  0.45593999997E+02  0.45594000000E+02  0.51100000000E-03 0. -1.
         11   -1    0    0    0    0 -0.00000000000E+00 -0.00000000000E+00 -0.45593999997E+02  0.45594000000E+02  0.51100000000E-03 0.  1.
    9900012    2    1    2    0    0  0.17989669825E+01  0.16421308264E+02  0.41907248594E+02  0.46142321716E+02  0.10000036064E+02 0.  0.
         12    1    1    2    0    0 -0.17989669825E+01 -0.16421308264E+02 -0.41907248594E+02  0.45045678284E+02  0.00000000000E+00 0. -1.
         11    1    3    3    0    0 -0.17429355562E+01  0.71876737374E+01  0.25435715516E+02  0.26489169526E+02  0.51100000000E-03 0. -1.
        -11    1    3    3    0    0  0.11673297871E+01  0.77069931074E+01  0.10815272002E+02  0.13331560686E+02  0.51100000000E-03 0.  1.
        -12    1    3    3    0    0  0.23745727516E+01  0.15266414196E+01  0.56562610765E+01  0.63215915039E+01  0.00000000000E+00 0.  1.
</event>
<event>
 7    1  0.2250716E-008  0.4614232E+02  0.7816164E-02  0.1320468E+00
        -11   -1    0    0    0    0  0.00000000000E+00  0.00000000000E+00  0.45593999997E+02  0.45594000000E+02  0.51100000000E-03 0.  1.
         11   -1    0    0    0    0 -0.00000000000E+00 -0.00000000000E+00 -0.45593999997E+02  0.45594000000E+02  0.51100000000E-03 0. -1.
    9900012    2    1    2    0    0 -0.14840930929E+02 -0.41850506861E+02  0.75759640997E+01  0.46142318882E+02  0.10000010222E+02 0.  0.
         12    1    1    2    0    0  0.14840930929E+02  0.41850506861E+02 -0.75759640997E+01  0.45045681118E+02  0.00000000000E+00 0. -1.
         11    1    3    3    0    0 -0.10886821456E+02 -0.22556710948E+02  0.57320147768E+01  0.25694047636E+02  0.51100000000E-03 0. -1.
        -11    1    3    3    0    0 -0.27617862643E+01 -0.49143265007E+01  0.21041658143E+01  0.60171074745E+01  0.51100000000E-03 0.  1.
         12    1    3    3    0    0 -0.11923232083E+01 -0.14379469412E+02 -0.26021649150E+00  0.14431163772E+02  0.00000000000E+00 0. -1.
</event>
<event>
 7    1  0.2250716E-008  0.4614232E+02  0.7816164E-02  0.1320468E+00
        -11   -1    0    0    0    0  0.00000000000E+00  0.00000000000E+00  0.45593999997E+02  0.45594000000E+02  0.51100000000E-03 0.  1.
         11   -1    0    0    0    0 -0.00000000000E+00 -0.00000000000E+00 -0.45593999997E+02  0.45594000000E+02  0.51100000000E-03 0. -1.
    9900012    2    1    2    0    0  0.41774231579E+02 -0.15007671023E+02  0.76679068737E+01  0.46142318638E+02  0.10000007996E+02 0.  0.
         12    1    1    2    0    0 -0.41774231579E+02  0.15007671023E+02 -0.76679068737E+01  0.45045681362E+02  0.00000000000E+00 0. -1.
         11    1    3    3    0    0  0.25815414908E+02 -0.86288393133E+01 -0.78427108597E-01  0.27219453812E+02  0.51100000000E-03 0. -1.
        -11    1    3    3    0    0  0.82274932723E+01 -0.31498859952E+01  0.48578726372E+01  0.10060435088E+02  0.51100000000E-03 0.  1.
         12    1    3    3    0    0  0.77313233987E+01 -0.32289457148E+01  0.28884613450E+01  0.88624297383E+01  0.00000000000E+00 0. -1.
</event>
<event>
 7    1  0.2250716E-008  0.4614232E+02  0.7816164E-02  0.1320468E+00
        -11   -1    0    0    0    0  0.00000000000E+00  0.00000000000E+00  0.45593999997E+02  0.45594000000E+02  0.51100000000E-03 0.  1.
         11   -1    0    0    0    0 -0.00000000000E+00 -0.00000000000E+00 -0.45593999997E+02  0.45594000000E+02  0.51100000000E-03 0. -1.
    9900012    2    1    2    0    0 -0.29368735446E+02 -0.24245689109E+02 -0.24056962651E+02  0.46142317476E+02  0.99999974031E+01 0.  0.
         12    1    1    2    0    0  0.29368735446E+02  0.24245689109E+02  0.24056962651E+02  0.45045682524E+02  0.00000000000E+00 0. -1.
         11    1    3    3    0    0 -0.66973965520E+01 -0.51724232510E+01 -0.16893288350E+01  0.86291897091E+01  0.51100000000E-03 0. -1.
        -11    1    3    3    0    0 -0.82101860193E+01 -0.10020924650E+02 -0.81537814510E+01  0.15307195613E+02  0.51100000000E-03 0.  1.
         12    1    3    3    0    0 -0.14461152874E+02 -0.90523412075E+01 -0.14213852365E+02  0.22205932154E+02  0.00000000000E+00 0. -1.
</event>
<event>
 7    1  0.2250716E-008  0.4614232E+02  0.7816164E-02  0.1320468E+00
        -11   -1    0    0    0    0  0.00000000000E+00  0.00000000000E+00  0.45593999997E+02  0.45594000000E+02  0.51100000000E-03 0.  1.
         11   -1    0    0    0    0 -0.00000000000E+00 -0.00000000000E+00 -0.45593999997E+02  0.45594000000E+02  0.51100000000E-03 0. -1.
    9900012    2    1    2    0    0  0.35788446874E+02 -0.27347945888E+02 -0.62482682991E+00  0.46142317826E+02  0.10000000591E+02 0.  0.
         12    1    1    2    0    0 -0.35788446874E+02  0.27347945888E+02  0.62482682991E+00  0.45045682174E+02  0.00000000000E+00 0. -1.
         11    1    3    3    0    0  0.43361736134E+01 -0.30797059168E+01 -0.19806316572E+01  0.56753759490E+01  0.51100000000E-03 0. -1.
        -11    1    3    3    0    0  0.30525926098E+02 -0.24079813626E+02  0.25265420107E+01  0.38962199671E+02  0.51100000000E-03 0.  1.
        -12    1    3    3    0    0  0.92634716233E+00 -0.18842634501E+00 -0.11707371834E+01  0.15047422056E+01  0.00000000000E+00 0.  1.
</event>
<event>
 7    1  0.2250716E-008  0.4614232E+02  0.7816164E-02  0.1320468E+00
        -11   -1    0    0    0    0  0.00000000000E+00  0.00000000000E+00  0.45593999997E+02  0.45594000000E+02  0.51100000000E-03 0.  1.
         11   -1    0    0    0    0 -0.00000000000E+00 -0.00000000000E+00 -0.45593999997E+02  0.45594000000E+02  0.51100000000E-03 0. -1.
    9900012    2    1    2    0    0  0.88136738423E+01  0.42746483109E+02 -0.11143196900E+02  0.46142317610E+02  0.99999986231E+01 0.  0.
         12    1    1    2    0    0 -0.88136738423E+01 -0.42746483109E+02  0.11143196900E+02  0.45045682390E+02  0.00000000000E+00 0. -1.
         11    1    3    3    0    0  0.34240956391E+01  0.70507700590E+01 -0.38547123173E+01  0.87347923090E+01  0.51100000000E-03 0. -1.
        -11    1    3    3    0    0  0.16219242043E+01  0.38215320105E+01  0.97565956380E+00  0.42645816767E+01  0.51100000000E-03 0.  1.
        -12    1    3    3    0    0  0.37676539989E+01  0.31874181040E+02 -0.82641441468E+01  0.33142943624E+02  0.00000000000E+00 0.  1.
</event>
<event>
 7    1  0.2250716E-008  0.4614232E+02  0.7816164E-02  0.1320468E+00
        -11   -1    0    0    0    0  0.00000000000E+00  0.00000000000E+00  0.45593999997E+02  0.45594000000E+02  0.51100000000E-03 0. -1.
         11   -1    0    0    0    0 -0.00000000000E+00 -0.00000000000E+00 -0.45593999997E+02  0.45594000000E+02  0.51100000000E-03 0.  1.
    9900012    2    1    2    0    0 -0.38417500792E+02 -0.61209011426E+01 -0.22709990076E+02  0.46142318219E+02  0.10000004176E+02 0.  0.
         12    1    1    2    0    0  0.38417500792E+02  0.61209011426E+01  0.22709990076E+02  0.45045681781E+02  0.00000000000E+00 0. -1.
         11    1    3    3    0    0 -0.20570828256E+02 -0.21060973052E+01 -0.16463396351E+02  0.26431761967E+02  0.51100000000E-03 0. -1.
        -11    1    3    3    0    0 -0.11010989696E+02 -0.23993084619E+01 -0.57950700099E+01  0.12672072122E+02  0.51100000000E-03 0.  1.
         12    1    3    3    0    0 -0.68356828395E+01 -0.16154953754E+01 -0.45152371501E+00  0.70384841305E+01  0.00000000000E+00 0. -1.
</event>
<event>
 7    1  0.2250716E-008  0.4614232E+02  0.7816164E-02  0.1320468E+00
        -11   -1    0    0    0    0  0.00000000000E+00  0.00000000000E+00  0.45593999997E+02  0.45594000000E+02  0.51100000000E-03 0.  1.
         11   -1    0    0    0    0 -0.00000000000E+00 -0.00000000000E+00 -0.45593999997E+02  0.45594000000E+02  0.51100000000E-03 0. -1.
    9900012    2    1    2    0    0  0.13969584681E+02  0.72010782138E+01  0.42215031058E+02  0.46142315736E+02  0.99999815344E+01 0.  0.
         12    1    1    2    0    0 -0.13969584681E+02 -0.72010782138E+01 -0.42215031058E+02  0.45045684264E+02  0.00000000000E+00 0. -1.
         11    1    3    3    0    0  0.32855314588E+01  0.38187771404E+01  0.74277075561E+01  0.89748880558E+01  0.51100000000E-03 0. -1.
        -11    1    3    3    0    0  0.93504408449E+01  0.33907993055E+01  0.20166502349E+02  0.22485908503E+02  0.51100000000E-03 0.  1.
         12    1    3    3    0    0  0.13336123768E+01 -0.84982320646E-02  0.14620821152E+02  0.14681519178E+02  0.00000000000E+00 0. -1.
</event>
<event>
 7    1  0.2250716E-008  0.4614232E+02  0.7816164E-02  0.1320468E+00
        -11   -1    0    0    0    0  0.00000000000E+00  0.00000000000E+00  0.45593999997E+02  0.45594000000E+02  0.51100000000E-03 0.  1.
         11   -1    0    0    0    0 -0.00000000000E+00 -0.00000000000E+00 -0.45593999997E+02  0.45594000000E+02  0.51100000000E-03 0. -1.
    9900012    2    1    2    0    0  0.18874927414E+02  0.34878498122E+02  0.21362138386E+02  0.46142317937E+02  0.10000001604E+02 0.  0.
         12    1    1    2    0    0 -0.18874927414E+02 -0.34878498122E+02 -0.21362138386E+02  0.45045682063E+02  0.00000000000E+00 0. -1.
         11    1    3    3    0    0  0.83077338029E+00  0.52628195591E+01  0.24466720398E+01  0.58629052911E+01  0.51100000000E-03 0. -1.
        -11    1    3    3    0    0  0.12293091642E+02  0.13765270926E+02  0.75220721152E+01  0.19929484563E+02  0.51100000000E-03 0.  1.
        -12    1    3    3    0    0  0.57510623915E+01  0.15850407637E+02  0.11393394231E+02  0.20349928083E+02  0.00000000000E+00 0.  1.
</event>
<event>
 7    1  0.2250716E-008  0.4614232E+02  0.7816164E-02  0.1320468E+00
        -11   -1    0    0    0    0  0.00000000000E+00  0.00000000000E+00  0.45593999997E+02  0.45594000000E+02  0.51100000000E-03 0. -1.
         11   -1    0    0    0    0 -0.00000000000E+00 -0.00000000000E+00 -0.45593999997E+02  0.45594000000E+02  0.51100000000E-03 0.  1.
    9900012    2    1    2    0    0  0.10780389263E+02 -0.30243574168E+02 -0.31594664450E+02  0.46142318822E+02  0.10000009674E+02 0.  0.
         12    1    1    2    0    0 -0.10780389263E+02  0.30243574168E+02  0.31594664450E+02  0.45045681178E+02  0.00000000000E+00 0. -1.
         11    1    3    3    0    0  0.39659415509E+01 -0.10242900065E+02 -0.93776925322E+01  0.14442534806E+02  0.51100000000E-03 0. -1.
        -11    1    3    3    0    0  0.42537775712E+00 -0.11945578331E+02 -0.90413247997E+01  0.14987439484E+02  0.51100000000E-03 0.  1.
         12    1    3    3    0    0  0.63890699545E+01 -0.80550957714E+01 -0.13175647118E+02  0.16712344532E+02  0.00000000000E+00 0. -1.
</event>
<event>
 7    1  0.2250716E-008  0.4614232E+02  0.7816164E-02  0.1320468E+00
        -11   -1    0    0    0    0  0.00000000000E+00  0.00000000000E+00  0.45593999997E+02  0.45594000000E+02  0.51100000000E-03 0.  1.
         11   -1    0    0    0    0 -0.00000000000E+00 -0.00000000000E+00 -0.45593999997E+02  0.45594000000E+02  0.51100000000E-03 0. -1.
    9900012    2    1    2    0    0 -0.75660871582E+00 -0.40659636274E+02 -0.19373566796E+02  0.46142316865E+02  0.99999918254E+01 0.  0.
         12    1    1    2    0    0  0.75660871582E+00  0.40659636274E+02  0.19373566796E+02  0.45045683135E+02  0.00000000000E+00 0. -1.
         11    1    3    3    0    0 -0.16437815525E+01 -0.19395585856E+02 -0.86151984762E+01  0.21286437314E+02  0.51100000000E-03 0. -1.
        -11    1    3    3    0    0 -0.59087759147E+00 -0.20211225641E+02 -0.84372578553E+01  0.21909589193E+02  0.51100000000E-03 0.  1.
         12    1    3    3    0    0  0.14780504281E+01 -0.10528247778E+01 -0.23211104647E+01  0.29462903574E+01  0.00000000000E+00 0. -1.
</event>
<event>
 7    1  0.2250716E-008  0.4614232E+02  0.7816164E-02  0.1320468E+00
        -11   -1    0    0    0    0  0.00000000000E+00  0.00000000000E+00  0.45593999997E+02  0.45594000000E+02  0.51100000000E-03 0.  1.
         11   -1    0    0    0    0 -0.00000000000E+00 -0.00000000000E+00 -0.45593999997E+02  0.45594000000E+02  0.51100000000E-03 0. -1.
    9900012    2    1    2    0    0 -0.12720948463E+02  0.16237316418E+02  0.40045479311E+02  0.46142318881E+02  0.10000010209E+02 0.  0.
         12    1    1    2    0    0  0.12720948463E+02 -0.16237316418E+02 -0.40045479311E+02  0.45045681119E+02  0.00000000000E+00 0. -1.
         11    1    3    3    0    0 -0.42091947766E+01  0.59509765324E+01  0.23012285474E+02  0.24139111942E+02  0.51100000000E-03 0. -1.
        -11    1    3    3    0    0 -0.57616787443E+01  0.62631391911E+01  0.13595662133E+02  0.16039510079E+02  0.51100000000E-03 0.  1.
         12    1    3    3    0    0 -0.27500749419E+01  0.40232006947E+01  0.34375317037E+01  0.59636968593E+01  0.00000000000E+00 0. -1.
</event>
<event>
 7    1  0.2250716E-008  0.4614232E+02  0.7816164E-02  0.1320468E+00
        -11   -1    0    0    0    0  0.00000000000E+00  0.00000000000E+00  0.45593999997E+02  0.45594000000E+02  0.51100000000E-03 0. -1.
         11   -1    0    0    0    0 -0.00000000000E+00 -0.00000000000E+00 -0.45593999997E+02  0.45594000000E+02  0.51100000000E-03 0.  1.
    9900012    2    1    2    0    0  0.13648778547E+02  0.35332327629E+02 -0.24381365405E+02  0.46142317515E+02  0.99999977535E+01 0.  0.
         12    1    1    2    0    0 -0.13648778547E+02 -0.35332327629E+02  0.24381365405E+02  0.45045682485E+02  0.00000000000E+00 0. -1.
         11    1    3    3    0    0  0.13550030213E+01  0.22019497947E+01  0.70506559998E+00  0.26798757149E+01  0.51100000000E-03 0. -1.
        -11    1    3    3    0    0  0.89114514979E+00  0.90821799460E+00 -0.13073882131E+01  0.18243529825E+01  0.51100000000E-03 0.  1.
        -12    1    3    3    0    0  0.11402630376E+02  0.32222159840E+02 -0.23779042792E+02  0.41638088817E+02  0.00000000000E+00 0.  1.
</event>
<event>
 7    1  0.2250716E-008  0.4614232E+02  0.7816164E-02  0.1320468E+00
        -11   -1    0    0    0    0  0.00000000000E+00  0.00000000000E+00  0.45593999997E+02  0.45594000000E+02  0.51100000000E-03 0.  1.
         11   -1    0    0    0    0 -0.00000000000E+00 -0.00000000000E+00 -0.45593999997E+02  0.45594000000E+02  0.51100000000E-03 0. -1.
    9900012    2    1    2    0    0  0.13607785625E+02  0.32470589632E+02  0.28099867163E+02  0.46142317019E+02  0.99999932351E+01 0.  0.
         12    1    1    2    0    0 -0.13607785625E+02 -0.32470589632E+02 -0.28099867163E+02  0.45045682981E+02  0.00000000000E+00 0. -1.
         11    1    3    3    0    0  0.17134406450E+01  0.25307004065E+01 -0.13951091795E+00  0.30593768890E+01  0.51100000000E-03 0. -1.
        -11    1    3    3    0    0  0.33892495847E+01  0.41247559166E+01  0.41067538493E+01  0.67354325443E+01  0.51100000000E-03 0.  1.
        -12    1    3    3    0    0  0.85050953952E+01  0.25815133309E+02  0.24132624231E+02  0.36347507586E+02  0.00000000000E+00 0.  1.
</event>
<event>
 7    1  0.2250716E-008  0.4614232E+02  0.7816164E-02  0.1320468E+00
        -11   -1    0    0    0    0  0.00000000000E+00  0.00000000000E+00  0.45593999997E+02  0.45594000000E+02  0.51100000000E-03 0.  1.
         11   -1    0    0    0    0 -0.00000000000E+00 -0.00000000000E+00 -0.45593999997E+02  0.45594000000E+02  0.51100000000E-03 0. -1.
    9900012    2    1    2    0    0 -0.19677775677E+02 -0.15664046187E+02  0.37370259813E+02  0.46142317443E+02  0.99999970969E+01 0.  0.
         12    1    1    2    0    0  0.19677775677E+02  0.15664046187E+02 -0.37370259813E+02  0.45045682557E+02  0.00000000000E+00 0. -1.
         11    1    3    3    0    0 -0.86191137041E+01 -0.28734463182E+01  0.16173336380E+02  0.18550542437E+02  0.51100000000E-03 0.  1.
        -11    1    3    3    0    0 -0.30386718670E+01 -0.30798292556E+01  0.93435389270E+01  0.10296630269E+02  0.51100000000E-03 0. -1.
         12    1    3    3    0    0 -0.80199901064E+01 -0.97107706130E+01  0.11853384506E+02  0.17295144736E+02  0.00000000000E+00 0. -1.
</event>
<event>
 7    1  0.2250716E-008  0.4614232E+02  0.7816164E-02  0.1320468E+00
        -11   -1    0    0    0    0  0.00000000000E+00  0.00000000000E+00  0.45593999997E+02  0.45594000000E+02  0.51100000000E-03 0.  1.
         11   -1    0    0    0    0 -0.00000000000E+00 -0.00000000000E+00 -0.45593999997E+02  0.45594000000E+02  0.51100000000E-03 0. -1.
    9900012    2    1    2    0    0 -0.40732379667E+02  0.17361007507E+02  0.82814331994E+01  0.46142317956E+02  0.10000001774E+02 0.  0.
         12    1    1    2    0    0  0.40732379667E+02 -0.17361007507E+02 -0.82814331994E+01  0.45045682044E+02  0.00000000000E+00 0. -1.
         11    1    3    3    0    0 -0.28835522267E+01 -0.48281804152E+00  0.16359166838E+01  0.33502552684E+01  0.51100000000E-03 0. -1.
        -11    1    3    3    0    0 -0.43981699721E+01  0.99569766604E+00 -0.86688147110E+00  0.45920362250E+01  0.51100000000E-03 0.  1.
         12    1    3    3    0    0 -0.33450657468E+02  0.16848127882E+02  0.75123979866E+01  0.38200026462E+02  0.00000000000E+00 0. -1.
</event>
<event>
 7    1  0.2250716E-008  0.4614232E+02  0.7816164E-02  0.1320468E+00
        -11   -1    0    0    0    0  0.00000000000E+00  0.00000000000E+00  0.45593999997E+02  0.45594000000E+02  0.51100000000E-03 0.  1.
         11   -1    0    0    0    0 -0.00000000000E+00 -0.00000000000E+00 -0.45593999997E+02  0.45594000000E+02  0.51100000000E-03 0. -1.
    9900012    2    1    2    0    0 -0.17613058240E+02 -0.77380193867E+01  0.40731029033E+02  0.46142317736E+02  0.99999997669E+01 0.  0.
         12    1    1    2    0    0  0.17613058240E+02  0.77380193867E+01 -0.40731029033E+02  0.45045682264E+02  0.00000000000E+00 0. -1.
         11    1    3    3    0    0 -0.24535990481E+00 -0.29363243849E+01  0.38905351136E+01  0.48804165916E+01  0.51100000000E-03 0. -1.
        -11    1    3    3    0    0 -0.77988121394E+01 -0.76846680175E+00  0.11929404139E+02  0.14273145953E+02  0.51100000000E-03 0.  1.
         12    1    3    3    0    0 -0.95688861958E+01 -0.40332282000E+01  0.24911089780E+02  0.26988755191E+02  0.00000000000E+00 0. -1.
</event>
<event>
 7    1  0.2250716E-008  0.4614232E+02  0.7816164E-02  0.1320468E+00
        -11   -1    0    0    0    0  0.00000000000E+00  0.00000000000E+00  0.45593999997E+02  0.45594000000E+02  0.51100000000E-03 0.  1.
         11   -1    0    0    0    0 -0.00000000000E+00 -0.00000000000E+00 -0.45593999997E+02  0.45594000000E+02  0.51100000000E-03 0. -1.
    9900012    2    1    2    0    0  0.12555041287E+02 -0.36125485778E+02  0.23799866308E+02  0.46142318512E+02  0.10000006848E+02 0.  0.
         12    1    1    2    0    0 -0.12555041287E+02  0.36125485778E+02 -0.23799866308E+02  0.45045681488E+02  0.00000000000E+00 0. -1.
         11    1    3    3    0    0  0.90702562226E+00  0.36041473085E+00  0.58201888266E+00  0.11363716375E+01  0.51100000000E-03 0. -1.
        -11    1    3    3    0    0  0.11667786344E+01 -0.46339389259E+01  0.13219726195E+01  0.49580615384E+01  0.51100000000E-03 0.  1.
        -12    1    3    3    0    0  0.10481237030E+02 -0.31851961583E+02  0.21895874806E+02  0.40047885336E+02  0.00000000000E+00 0.  1.
</event>
<event>
 7    1  0.2250716E-008  0.4614232E+02  0.7816164E-02  0.1320468E+00
        -11   -1    0    0    0    0  0.00000000000E+00  0.00000000000E+00  0.45593999997E+02  0.45594000000E+02  0.51100000000E-03 0.  1.
         11   -1    0    0    0    0 -0.00000000000E+00 -0.00000000000E+00 -0.45593999997E+02  0.45594000000E+02  0.51100000000E-03 0. -1.
    9900012    2    1    2    0    0  0.25082721651E+02 -0.26226726662E+02  0.26685752172E+02  0.46142317790E+02  0.10000000261E+02 0.  0.
         12    1    1    2    0    0 -0.25082721651E+02  0.26226726662E+02 -0.26685752172E+02  0.45045682210E+02  0.00000000000E+00 0. -1.
         11    1    3    3    0    0  0.21220272121E+01  0.30523153994E+00  0.92928869605E+00  0.23366094076E+01  0.51100000000E-03 0. -1.
        -11    1    3    3    0    0  0.15463320098E+02 -0.16267126324E+02  0.19022332875E+02  0.29420788833E+02  0.51100000000E-03 0.  1.
        -12    1    3    3    0    0  0.74973743407E+01 -0.10264831878E+02  0.67341306013E+01  0.14384919549E+02  0.00000000000E+00 0.  1.
</event>
<event>
 7    1  0.2250716E-008  0.4614232E+02  0.7816164E-02  0.1320468E+00
        -11   -1    0    0    0    0  0.00000000000E+00  0.00000000000E+00  0.45593999997E+02  0.45594000000E+02  0.51100000000E-03 0.  1.
         11   -1    0    0    0    0 -0.00000000000E+00 -0.00000000000E+00 -0.45593999997E+02  0.45594000000E+02  0.51100000000E-03 0. -1.
    9900012    2    1    2    0    0  0.14331507192E+02 -0.38532052013E+02  0.18412019456E+02  0.46142316620E+02  0.99999895937E+01 0.  0.
         12    1    1    2    0    0 -0.14331507192E+02  0.38532052013E+02 -0.18412019456E+02  0.45045683380E+02  0.00000000000E+00 0. -1.
         11    1    3    3    0    0  0.16278939311E+01 -0.54818604229E+01 -0.71603799451E+00  0.57631192090E+01  0.51100000000E-03 0. -1.
        -11    1    3    3    0    0  0.93735645445E+01 -0.21528837829E+02  0.11308202219E+02  0.26062041520E+02  0.51100000000E-03 0.  1.
         12    1    3    3    0    0  0.33300487162E+01 -0.11521353762E+02  0.78198552315E+01  0.14317155891E+02  0.00000000000E+00 0. -1.
</event>
<event>
 7    1  0.2250716E-008  0.4614232E+02  0.7816164E-02  0.1320468E+00
        -11   -1    0    0    0    0  0.00000000000E+00  0.00000000000E+00  0.45593999997E+02  0.45594000000E+02  0.51100000000E-03 0.  1.
         11   -1    0    0    0    0 -0.00000000000E+00 -0.00000000000E+00 -0.45593999997E+02  0.45594000000E+02  0.51100000000E-03 0. -1.
    9900012    2    1    2    0    0  0.38967691489E+02 -0.14975914867E+02  0.16922013170E+02  0.46142317235E+02  0.99999952000E+01 0.  0.
         12    1    1    2    0    0 -0.38967691489E+02  0.14975914867E+02 -0.16922013170E+02  0.45045682765E+02  0.00000000000E+00 0. -1.
         11    1    3    3    0    0  0.62166590581E+01 -0.37481660791E+01  0.33596956305E+01  0.79989470427E+01  0.51100000000E-03 0. -1.
        -11    1    3    3    0    0  0.13440628751E+02 -0.31906841302E+00  0.58509068515E+01  0.14662381018E+02  0.51100000000E-03 0.  1.
        -12    1    3    3    0    0  0.19310403680E+02 -0.10908680374E+02  0.77114106881E+01  0.23480989174E+02  0.00000000000E+00 0.  1.
</event>
<event>
 7    1  0.2250716E-008  0.4614232E+02  0.7816164E-02  0.1320468E+00
        -11   -1    0    0    0    0  0.00000000000E+00  0.00000000000E+00  0.45593999997E+02  0.45594000000E+02  0.51100000000E-03 0.  1.
         11   -1    0    0    0    0 -0.00000000000E+00 -0.00000000000E+00 -0.45593999997E+02  0.45594000000E+02  0.51100000000E-03 0. -1.
    9900012    2    1    2    0    0 -0.24767022585E+02  0.35719788586E+02 -0.11823907361E+02  0.46142317747E+02  0.99999998692E+01 0.  0.
         12    1    1    2    0    0  0.24767022585E+02 -0.35719788586E+02  0.11823907361E+02  0.45045682253E+02  0.00000000000E+00 0. -1.
         11    1    3    3    0    0 -0.60872355768E+00  0.32958684779E+01 -0.12416016527E+01  0.35741947790E+01  0.51100000000E-03 0. -1.
        -11    1    3    3    0    0 -0.15162361329E+01  0.36495536135E+01 -0.34911984237E+01  0.52732039865E+01  0.51100000000E-03 0.  1.
        -12    1    3    3    0    0 -0.22642062894E+02  0.28774366495E+02 -0.70911072849E+01  0.37294918981E+02  0.00000000000E+00 0.  1.
</event>
<event>
 7    1  0.2250716E-008  0.4614232E+02  0.7816164E-02  0.1320468E+00
        -11   -1    0    0    0    0  0.00000000000E+00  0.00000000000E+00  0.45593999997E+02  0.45594000000E+02  0.51100000000E-03 0. -1.
         11   -1    0    0    0    0 -0.00000000000E+00 -0.00000000000E+00 -0.45593999997E+02  0.45594000000E+02  0.51100000000E-03 0.  1.
    9900012    2    1    2    0    0 -0.14722504864E+02 -0.42052244375E+02 -0.66309961398E+01  0.46142317452E+02  0.99999971792E+01 0.  0.
         12    1    1    2    0    0  0.14722504864E+02  0.42052244375E+02  0.66309961398E+01  0.45045682548E+02  0.00000000000E+00 0. -1.
         11    1    3    3    0    0 -0.85260365769E+00 -0.61050832047E+01  0.22717588361E+00  0.61685154679E+01  0.51100000000E-03 0. -1.
        -11    1    3    3    0    0 -0.29521318653E+01 -0.39183291026E+01 -0.33787911296E+01  0.59568964457E+01  0.51100000000E-03 0.  1.
        -12    1    3    3    0    0 -0.10917769341E+02 -0.32028832068E+02 -0.34793808938E+01  0.34016905538E+02  0.00000000000E+00 0.  1.
</event>
<event>
 7    1  0.2250716E-008  0.4614232E+02  0.7816164E-02  0.1320468E+00
        -11   -1    0    0    0    0  0.00000000000E+00  0.00000000000E+00  0.45593999997E+02  0.45594000000E+02  0.51100000000E-03 0. -1.
         11   -1    0    0    0    0 -0.00000000000E+00 -0.00000000000E+00 -0.45593999997E+02  0.45594000000E+02  0.51100000000E-03 0.  1.
    9900012    2    1    2    0    0  0.49171988084E+01  0.34177481140E+02 -0.28928090874E+02  0.46142317601E+02  0.99999985433E+01 0.  0.
         12    1    1    2    0    0 -0.49171988084E+01 -0.34177481140E+02  0.28928090874E+02  0.45045682399E+02  0.00000000000E+00 0. -1.
         11    1    3    3    0    0  0.62625681140E+01  0.25030821625E+02 -0.21805119550E+02  0.33782022282E+02  0.51100000000E-03 0.  1.
        -11    1    3    3    0    0  0.84723822402E+00  0.36573156549E+00 -0.13149431231E+01  0.16064394991E+01  0.51100000000E-03 0. -1.
         12    1    3    3    0    0 -0.21926075296E+01  0.87809279495E+01 -0.58080282006E+01  0.10753855821E+02  0.00000000000E+00 0. -1.
</event>
<event>
 7    1  0.2250716E-008  0.4614232E+02  0.7816164E-02  0.1320468E+00
        -11   -1    0    0    0    0  0.00000000000E+00  0.00000000000E+00  0.45593999997E+02  0.45594000000E+02  0.51100000000E-03 0.  1.
         11   -1    0    0    0    0 -0.00000000000E+00 -0.00000000000E+00 -0.45593999997E+02  0.45594000000E+02  0.51100000000E-03 0. -1.
    9900012    2    1    2    0    0  0.24653919424E+02  0.18764195146E+01  0.37653377191E+02  0.46142317554E+02  0.99999981117E+01 0.  0.
         12    1    1    2    0    0 -0.24653919424E+02 -0.18764195146E+01 -0.37653377191E+02  0.45045682446E+02  0.00000000000E+00 0. -1.
         11    1    3    3    0    0  0.12572406278E+02 -0.30644484453E+00  0.11582345240E+02  0.17097076639E+02  0.51100000000E-03 0. -1.
        -11    1    3    3    0    0  0.22415918123E+01 -0.10042373369E+01  0.52923476075E+01  0.58345668170E+01  0.51100000000E-03 0.  1.
         12    1    3    3    0    0  0.98399213331E+01  0.31871016961E+01  0.20778684343E+02  0.23210674098E+02  0.00000000000E+00 0. -1.
</event>
<event>
 7    1  0.2250716E-008  0.4614232E+02  0.7816164E-02  0.1320468E+00
        -11   -1    0    0    0    0  0.00000000000E+00  0.00000000000E+00  0.45593999997E+02  0.45594000000E+02  0.51100000000E-03 0.  1.
         11   -1    0    0    0    0 -0.00000000000E+00 -0.00000000000E+00 -0.45593999997E+02  0.45594000000E+02  0.51100000000E-03 0. -1.
    9900012    2    1    2    0    0 -0.70081381906E+01  0.44489937758E+02  0.80307605595E+00  0.46142317701E+02  0.99999994511E+01 0.  0.
         12    1    1    2    0    0  0.70081381906E+01 -0.44489937758E+02 -0.80307605595E+00  0.45045682299E+02  0.00000000000E+00 0. -1.
         11    1    3    3    0    0  0.10414853014E+01  0.34480158072E+01 -0.67736746152E+00  0.36650145401E+01  0.51100000000E-03 0. -1.
        -11    1    3    3    0    0  0.65373774078E+00  0.19052339311E+00 -0.32118939691E-01  0.68169207451E+00  0.51100000000E-03 0.  1.
        -12    1    3    3    0    0 -0.87033612328E+01  0.40851398558E+02  0.15125624572E+01  0.41795611086E+02  0.00000000000E+00 0.  1.
</event>
<event>
 7    1  0.2250716E-008  0.4614232E+02  0.7816164E-02  0.1320468E+00
        -11   -1    0    0    0    0  0.00000000000E+00  0.00000000000E+00  0.45593999997E+02  0.45594000000E+02  0.51100000000E-03 0. -1.
         11   -1    0    0    0    0 -0.00000000000E+00 -0.00000000000E+00 -0.45593999997E+02  0.45594000000E+02  0.51100000000E-03 0.  1.
    9900012    2    1    2    0    0 -0.44241455974E+02 -0.25357321248E+01 -0.80856096229E+01  0.46142318219E+02  0.10000004176E+02 0.  0.
         12    1    1    2    0    0  0.44241455974E+02  0.25357321248E+01  0.80856096229E+01  0.45045681781E+02  0.00000000000E+00 0. -1.
         11    1    3    3    0    0 -0.14214062054E+02  0.19082131222E+01 -0.16302755568E+01  0.14433940419E+02  0.51100000000E-03 0. -1.
        -11    1    3    3    0    0 -0.15893714512E+02 -0.29945351130E+01 -0.17473421252E+00  0.16174298557E+02  0.51100000000E-03 0.  1.
        -12    1    3    3    0    0 -0.14133679409E+02 -0.14494101340E+01 -0.62805998536E+01  0.15534079242E+02  0.00000000000E+00 0.  1.
</event>
<event>
 7    1  0.2250716E-008  0.4614232E+02  0.7816164E-02  0.1320468E+00
        -11   -1    0    0    0    0  0.00000000000E+00  0.00000000000E+00  0.45593999997E+02  0.45594000000E+02  0.51100000000E-03 0.  1.
         11   -1    0    0    0    0 -0.00000000000E+00 -0.00000000000E+00 -0.45593999997E+02  0.45594000000E+02  0.51100000000E-03 0. -1.
    9900012    2    1    2    0    0 -0.14206091458E+02  0.30536103118E+02 -0.29913990474E+02  0.46142318140E+02  0.10000003453E+02 0.  0.
         12    1    1    2    0    0  0.14206091458E+02 -0.30536103118E+02  0.29913990474E+02  0.45045681860E+02  0.00000000000E+00 0. -1.
         11    1    3    3    0    0 -0.17782979979E+01  0.55643229287E+01 -0.99468775797E+01  0.11535354666E+02  0.51100000000E-03 0. -1.
        -11    1    3    3    0    0  0.31423038644E+00  0.17079444689E+01 -0.10829354313E+01  0.20465982640E+01  0.51100000000E-03 0.  1.
        -12    1    3    3    0    0 -0.12742023846E+02  0.23263835720E+02 -0.18884177463E+02  0.32560365210E+02  0.00000000000E+00 0.  1.
</event>
<event>
 7    1  0.2250716E-008  0.4614232E+02  0.7816164E-02  0.1320468E+00
        -11   -1    0    0    0    0  0.00000000000E+00  0.00000000000E+00  0.45593999997E+02  0.45594000000E+02  0.51100000000E-03 0.  1.
         11   -1    0    0    0    0 -0.00000000000E+00 -0.00000000000E+00 -0.45593999997E+02  0.45594000000E+02  0.51100000000E-03 0. -1.
    9900012    2    1    2    0    0 -0.23853538227E+02 -0.72254733234E+01  0.37522189910E+02  0.46142317784E+02  0.10000000207E+02 0.  0.
         12    1    1    2    0    0  0.23853538227E+02  0.72254733234E+01 -0.37522189910E+02  0.45045682216E+02  0.00000000000E+00 0. -1.
         11    1    3    3    0    0 -0.45521897478E+01 -0.15674005272E+01  0.56658353550E+01  0.74351103854E+01  0.51100000000E-03 0. -1.
        -11    1    3    3    0    0 -0.11041238084E+02 -0.76707148927E+01  0.20649983331E+02  0.24640832316E+02  0.51100000000E-03 0.  1.
         12    1    3    3    0    0 -0.82601103952E+01  0.20126420966E+01  0.11206371224E+02  0.14066375082E+02  0.00000000000E+00 0. -1.
</event>
<event>
 7    1  0.2250716E-008  0.4614232E+02  0.7816164E-02  0.1320468E+00
        -11   -1    0    0    0    0  0.00000000000E+00  0.00000000000E+00  0.45593999997E+02  0.45594000000E+02  0.51100000000E-03 0.  1.
         11   -1    0    0    0    0 -0.00000000000E+00 -0.00000000000E+00 -0.45593999997E+02  0.45594000000E+02  0.51100000000E-03 0. -1.
    9900012    2    1    2    0    0 -0.23371660805E+02  0.14267351021E+02  0.35767606516E+02  0.46142317522E+02  0.99999978237E+01 0.  0.
         12    1    1    2    0    0  0.23371660805E+02 -0.14267351021E+02 -0.35767606516E+02  0.45045682478E+02  0.00000000000E+00 0. -1.
         11    1    3    3    0    0 -0.15621921360E+02  0.71806284656E+01  0.21683207137E+02  0.27672501226E+02  0.51100000000E-03 0.  1.
        -11    1    3    3    0    0 -0.64185514688E+01  0.69307624398E+01  0.84370100309E+01  0.12665559975E+02  0.51100000000E-03 0. -1.
         12    1    3    3    0    0 -0.13311879771E+01  0.15596011578E+00  0.56473893485E+01  0.58042563212E+01  0.00000000000E+00 0. -1.
</event>
<event>
 7    1  0.2250716E-008  0.4614232E+02  0.7816164E-02  0.1320468E+00
        -11   -1    0    0    0    0  0.00000000000E+00  0.00000000000E+00  0.45593999997E+02  0.45594000000E+02  0.51100000000E-03 0.  1.
         11   -1    0    0    0    0 -0.00000000000E+00 -0.00000000000E+00 -0.45593999997E+02  0.45594000000E+02  0.51100000000E-03 0. -1.
    9900012    2    1    2    0    0  0.20620973611E+02  0.21929817759E+02  0.33510773746E+02  0.46142318557E+02  0.10000007254E+02 0.  0.
         12    1    1    2    0    0 -0.20620973611E+02 -0.21929817759E+02 -0.33510773746E+02  0.45045681443E+02  0.00000000000E+00 0. -1.
         11    1    3    3    0    0  0.53106017709E+01  0.10364340995E+02  0.91104476260E+01  0.14785882173E+02  0.51100000000E-03 0. -1.
        -11    1    3    3    0    0  0.48049277830E+01  0.53358965026E+01  0.11764581397E+02  0.13782760906E+02  0.51100000000E-03 0.  1.
         12    1    3    3    0    0  0.10505444057E+02  0.62295802614E+01  0.12635744724E+02  0.17573675477E+02  0.00000000000E+00 0. -1.
</event>
<event>
 7    1  0.2250716E-008  0.4614232E+02  0.7816164E-02  0.1320468E+00
        -11   -1    0    0    0    0  0.00000000000E+00  0.00000000000E+00  0.45593999997E+02  0.45594000000E+02  0.51100000000E-03 0.  1.
         11   -1    0    0    0    0 -0.00000000000E+00 -0.00000000000E+00 -0.45593999997E+02  0.45594000000E+02  0.51100000000E-03 0. -1.
    9900012    2    1    2    0    0 -0.19270004677E+02  0.15389349831E+02  0.37695469590E+02  0.46142316566E+02  0.99999890987E+01 0.  0.
         12    1    1    2    0    0  0.19270004677E+02 -0.15389349831E+02 -0.37695469590E+02  0.45045683434E+02  0.00000000000E+00 0. -1.
         11    1    3    3    0    0 -0.48555163653E+01  0.26932556847E+01  0.52937571384E+01  0.76716054550E+01  0.51100000000E-03 0. -1.
        -11    1    3    3    0    0 -0.88749272534E+01  0.43458553235E+01  0.10687594108E+02  0.14555942440E+02  0.51100000000E-03 0.  1.
         12    1    3    3    0    0 -0.55395610581E+01  0.83502388229E+01  0.21714118344E+02  0.23914768671E+02  0.00000000000E+00 0. -1.
</event>
<event>
 7    1  0.2250716E-008  0.4614232E+02  0.7816164E-02  0.1320468E+00
        -11   -1    0    0    0    0  0.00000000000E+00  0.00000000000E+00  0.45593999997E+02  0.45594000000E+02  0.51100000000E-03 0.  1.
         11   -1    0    0    0    0 -0.00000000000E+00 -0.00000000000E+00 -0.45593999997E+02  0.45594000000E+02  0.51100000000E-03 0. -1.
    9900012    2    1    2    0    0  0.10595159175E+02 -0.16389297399E+02  0.40598609817E+02  0.46142316675E+02  0.99999900939E+01 0.  0.
         12    1    1    2    0    0 -0.10595159175E+02  0.16389297399E+02 -0.40598609817E+02  0.45045683325E+02  0.00000000000E+00 0. -1.
         11    1    3    3    0    0 -0.30546498347E+00 -0.23875353325E+01  0.53007907370E+01  0.58216850240E+01  0.51100000000E-03 0. -1.
        -11    1    3    3    0    0  0.24951164892E+01 -0.51830815200E+01  0.48435847567E+01  0.75199902855E+01  0.51100000000E-03 0.  1.
         12    1    3    3    0    0  0.84055076691E+01 -0.88186805461E+01  0.30454234323E+02  0.32800641365E+02  0.00000000000E+00 0. -1.
</event>
<event>
 7    1  0.2250716E-008  0.4614232E+02  0.7816164E-02  0.1320468E+00
        -11   -1    0    0    0    0  0.00000000000E+00  0.00000000000E+00  0.45593999997E+02  0.45594000000E+02  0.51100000000E-03 0.  1.
         11   -1    0    0    0    0 -0.00000000000E+00 -0.00000000000E+00 -0.45593999997E+02  0.45594000000E+02  0.51100000000E-03 0. -1.
    9900012    2    1    2    0    0  0.35970165414E+02  0.95574235673E+01  0.25375501716E+02  0.46142320602E+02  0.10000025901E+02 0.  0.
         12    1    1    2    0    0 -0.35970165414E+02 -0.95574235673E+01 -0.25375501716E+02  0.45045679398E+02  0.00000000000E+00 0. -1.
         11    1    3    3    0    0  0.15949265328E+02  0.56150397539E+01  0.14888574566E+02  0.22529478219E+02  0.51100000000E-03 0. -1.
        -11    1    3    3    0    0  0.31987912293E+01  0.13913327457E+00  0.41438259529E+01  0.52366895255E+01  0.51100000000E-03 0.  1.
         12    1    3    3    0    0  0.16822108856E+02  0.38032505388E+01  0.63431011969E+01  0.18376152857E+02  0.00000000000E+00 0. -1.
</event>
<event>
 7    1  0.2250716E-008  0.4614232E+02  0.7816164E-02  0.1320468E+00
        -11   -1    0    0    0    0  0.00000000000E+00  0.00000000000E+00  0.45593999997E+02  0.45594000000E+02  0.51100000000E-03 0.  1.
         11   -1    0    0    0    0 -0.00000000000E+00 -0.00000000000E+00 -0.45593999997E+02  0.45594000000E+02  0.51100000000E-03 0. -1.
    9900012    2    1    2    0    0 -0.38819816343E+01 -0.17301954239E+02  0.41408768035E+02  0.46142317942E+02  0.10000001654E+02 0.  0.
         12    1    1    2    0    0  0.38819816343E+01  0.17301954239E+02 -0.41408768035E+02  0.45045682058E+02  0.00000000000E+00 0. -1.
         11    1    3    3    0    0 -0.98423578491E-01 -0.81844814273E+00  0.13356273157E+02  0.13381688140E+02  0.51100000000E-03 0. -1.
        -11    1    3    3    0    0 -0.14806273198E+01 -0.73890263923E+01  0.12825331710E+02  0.14875453002E+02  0.51100000000E-03 0.  1.
         12    1    3    3    0    0 -0.23029307360E+01 -0.90944797037E+01  0.15227163167E+02  0.17885176800E+02  0.00000000000E+00 0. -1.
</event>
<event>
 7    1  0.2250716E-008  0.4614232E+02  0.7816164E-02  0.1320468E+00
        -11   -1    0    0    0    0  0.00000000000E+00  0.00000000000E+00  0.45593999997E+02  0.45594000000E+02  0.51100000000E-03 0.  1.
         11   -1    0    0    0    0 -0.00000000000E+00 -0.00000000000E+00 -0.45593999997E+02  0.45594000000E+02  0.51100000000E-03 0. -1.
    9900012    2    1    2    0    0  0.14094608422E+02 -0.90564667877E-01  0.42783727724E+02  0.46142317116E+02  0.99999941171E+01 0.  0.
         12    1    1    2    0    0 -0.14094608422E+02  0.90564667877E-01 -0.42783727724E+02  0.45045682884E+02  0.00000000000E+00 0. -1.
         11    1    3    3    0    0 -0.15663455610E+00 -0.12614844454E+01  0.62315962403E+00  0.14156996745E+01  0.51100000000E-03 0. -1.
        -11    1    3    3    0    0  0.18102174993E+01  0.15482358898E+01  0.89060213178E+01  0.92190638212E+01  0.51100000000E-03 0.  1.
        -12    1    3    3    0    0  0.12441025479E+02 -0.37731611228E+00  0.33254546782E+02  0.35507553620E+02  0.00000000000E+00 0.  1.
</event>
<event>
 7    1  0.2250716E-008  0.4614232E+02  0.7816164E-02  0.1320468E+00
        -11   -1    0    0    0    0  0.00000000000E+00  0.00000000000E+00  0.45593999997E+02  0.45594000000E+02  0.51100000000E-03 0.  1.
         11   -1    0    0    0    0 -0.00000000000E+00 -0.00000000000E+00 -0.45593999997E+02  0.45594000000E+02  0.51100000000E-03 0. -1.
    9900012    2    1    2    0    0 -0.44774322153E+02  0.47601083603E+01  0.13095771702E+01  0.46142317097E+02  0.99999939448E+01 0.  0.
         12    1    1    2    0    0  0.44774322153E+02 -0.47601083603E+01 -0.13095771702E+01  0.45045682903E+02  0.00000000000E+00 0. -1.
         11    1    3    3    0    0 -0.11351041075E+02 -0.23986599544E+01  0.10161423538E+01  0.11646125906E+02  0.51100000000E-03 0. -1.
        -11    1    3    3    0    0 -0.28302065199E+02  0.47046215721E+01 -0.85144450016E+00  0.28703054135E+02  0.51100000000E-03 0.  1.
        -12    1    3    3    0    0 -0.51212158782E+01  0.24541467425E+01  0.11448793166E+01  0.57931370564E+01  0.00000000000E+00 0.  1.
</event>
<event>
 7    1  0.2250716E-008  0.4614232E+02  0.7816164E-02  0.1320468E+00
        -11   -1    0    0    0    0  0.00000000000E+00  0.00000000000E+00  0.45593999997E+02  0.45594000000E+02  0.51100000000E-03 0. -1.
         11   -1    0    0    0    0 -0.00000000000E+00 -0.00000000000E+00 -0.45593999997E+02  0.45594000000E+02  0.51100000000E-03 0.  1.
    9900012    2    1    2    0    0  0.20544477424E+02 -0.25882212622E+01 -0.40004237340E+02  0.46142318219E+02  0.10000004179E+02 0.  0.
         12    1    1    2    0    0 -0.20544477424E+02  0.25882212622E+01  0.40004237340E+02  0.45045681781E+02  0.00000000000E+00 0. -1.
         11    1    3    3    0    0  0.10271498605E+01  0.19374632380E+01 -0.17661214469E+01  0.28156679244E+01  0.51100000000E-03 0. -1.
        -11    1    3    3    0    0  0.11205917423E+02 -0.75281783189E+00 -0.20298084596E+02  0.23198093856E+02  0.51100000000E-03 0.  1.
         12    1    3    3    0    0  0.83114101405E+01 -0.37728666682E+01 -0.17940031296E+02  0.20128556439E+02  0.00000000000E+00 0. -1.
</event>
<event>
 7    1  0.2250716E-008  0.4614232E+02  0.7816164E-02  0.1320468E+00
        -11   -1    0    0    0    0  0.00000000000E+00  0.00000000000E+00  0.45593999997E+02  0.45594000000E+02  0.51100000000E-03 0.  1.
         11   -1    0    0    0    0 -0.00000000000E+00 -0.00000000000E+00 -0.45593999997E+02  0.45594000000E+02  0.51100000000E-03 0. -1.
    9900012    2    1    2    0    0  0.11830793214E+02  0.36547187821E+02  0.23525492240E+02  0.46142318844E+02  0.10000009871E+02 0.  0.
         12    1    1    2    0    0 -0.11830793214E+02 -0.36547187821E+02 -0.23525492240E+02  0.45045681156E+02  0.00000000000E+00 0. -1.
         11    1    3    3    0    0  0.50372844763E+00  0.53523162494E+00  0.11986096833E+00  0.74470272870E+00  0.51100000000E-03 0. -1.
        -11    1    3    3    0    0  0.81280462177E+01  0.33339393640E+02  0.22764459956E+02  0.41180103703E+02  0.51100000000E-03 0.  1.
        -12    1    3    3    0    0  0.31990185487E+01  0.26725625565E+01  0.64117131514E+00  0.42175124124E+01  0.00000000000E+00 0.  1.
</event>
<event>
 7    1  0.2250716E-008  0.4614232E+02  0.7816164E-02  0.1320468E+00
        -11   -1    0    0    0    0  0.00000000000E+00  0.00000000000E+00  0.45593999997E+02  0.45594000000E+02  0.51100000000E-03 0. -1.
         11   -1    0    0    0    0 -0.00000000000E+00 -0.00000000000E+00 -0.45593999997E+02  0.45594000000E+02  0.51100000000E-03 0.  1.
    9900012    2    1    2    0    0 -0.15638224274E+01 -0.44266240302E+02  0.81956075047E+01  0.46142317039E+02  0.99999934143E+01 0.  0.
         12    1    1    2    0    0  0.15638224274E+01  0.44266240302E+02 -0.81956075047E+01  0.45045682961E+02  0.00000000000E+00 0. -1.
         11    1    3    3    0    0  0.23012833967E+01 -0.18441151036E+02  0.15930568610E+01  0.18652339994E+02  0.51100000000E-03 0.  1.
        -11    1    3    3    0    0 -0.10482972693E+00 -0.52464364621E+01 -0.78208548070E+00  0.53054446357E+01  0.51100000000E-03 0. -1.
         12    1    3    3    0    0 -0.37602760971E+01 -0.20578652804E+02  0.73846361244E+01  0.22184532410E+02  0.00000000000E+00 0. -1.
</event>
<event>
 7    1  0.2250716E-008  0.4614232E+02  0.7816164E-02  0.1320468E+00
        -11   -1    0    0    0    0  0.00000000000E+00  0.00000000000E+00  0.45593999997E+02  0.45594000000E+02  0.51100000000E-03 0.  1.
         11   -1    0    0    0    0 -0.00000000000E+00 -0.00000000000E+00 -0.45593999997E+02  0.45594000000E+02  0.51100000000E-03 0. -1.
    9900012    2    1    2    0    0 -0.48866470101E+01  0.33688367228E+02  0.29501327360E+02  0.46142315173E+02  0.99999763993E+01 0.  0.
         12    1    1    2    0    0  0.48866470101E+01 -0.33688367228E+02 -0.29501327360E+02  0.45045684827E+02  0.00000000000E+00 0. -1.
         11    1    3    3    0    0  0.19298852829E+00  0.24401291166E+01  0.21488813795E-01  0.24478432769E+01  0.51100000000E-03 0. -1.
        -11    1    3    3    0    0 -0.50435231627E+01  0.17613268803E+02  0.13944498216E+02  0.23024191508E+02  0.51100000000E-03 0.  1.
        -12    1    3    3    0    0 -0.36112375757E-01  0.13634969308E+02  0.15535340331E+02  0.20670280389E+02  0.00000000000E+00 0.  1.
</event>
<event>
 7    1  0.2250716E-008  0.4614232E+02  0.7816164E-02  0.1320468E+00
        -11   -1    0    0    0    0  0.00000000000E+00  0.00000000000E+00  0.45593999997E+02  0.45594000000E+02  0.51100000000E-03 0. -1.
         11   -1    0    0    0    0 -0.00000000000E+00 -0.00000000000E+00 -0.45593999997E+02  0.45594000000E+02  0.51100000000E-03 0.  1.
    9900012    2    1    2    0    0 -0.36294806384E+02  0.13376343956E+02 -0.23084062176E+02  0.46142317914E+02  0.10000001391E+02 0.  0.
         12    1    1    2    0    0  0.36294806384E+02 -0.13376343956E+02  0.23084062176E+02  0.45045682086E+02  0.00000000000E+00 0. -1.
         11    1    3    3    0    0 -0.55021389037E+00  0.22899664595E+01 -0.17524575600E+01  0.29356071725E+01  0.51100000000E-03 0. -1.
        -11    1    3    3    0    0 -0.59234493384E+01  0.31666092239E+01 -0.39881959682E+01  0.78115538393E+01  0.51100000000E-03 0.  1.
         12    1    3    3    0    0 -0.29821143155E+02  0.79197682721E+01 -0.17343408648E+02  0.35395156902E+02  0.00000000000E+00 0. -1.
</event>
<event>
 7    1  0.2250716E-008  0.4614232E+02  0.7816164E-02  0.1320468E+00
        -11   -1    0    0    0    0  0.00000000000E+00  0.00000000000E+00  0.45593999997E+02  0.45594000000E+02  0.51100000000E-03 0.  1.
         11   -1    0    0    0    0 -0.00000000000E+00 -0.00000000000E+00 -0.45593999997E+02  0.45594000000E+02  0.51100000000E-03 0. -1.
    9900012    2    1    2    0    0 -0.63812062399E+00 -0.24707365384E+02  0.37659692322E+02  0.46142317322E+02  0.99999959928E+01 0.  0.
         12    1    1    2    0    0  0.63812062399E+00  0.24707365384E+02 -0.37659692322E+02  0.45045682678E+02  0.00000000000E+00 0. -1.
         11    1    3    3    0    0  0.29221747271E+01 -0.11409724302E+02  0.17255712805E+02  0.20892116658E+02  0.51100000000E-03 0. -1.
        -11    1    3    3    0    0 -0.98090605201E+00 -0.80553388844E+01  0.15977781919E+02  0.17920384386E+02  0.51100000000E-03 0.  1.
        -12    1    3    3    0    0 -0.25793892991E+01 -0.52423021977E+01  0.44261975984E+01  0.73298162780E+01  0.00000000000E+00 0.  1.
</event>
<event>
 7    1  0.2250716E-008  0.4614232E+02  0.7816164E-02  0.1320468E+00
        -11   -1    0    0    0    0  0.00000000000E+00  0.00000000000E+00  0.45593999997E+02  0.45594000000E+02  0.51100000000E-03 0. -1.
         11   -1    0    0    0    0 -0.00000000000E+00 -0.00000000000E+00 -0.45593999997E+02  0.45594000000E+02  0.51100000000E-03 0.  1.
    9900012    2    1    2    0    0 -0.38115526333E+02 -0.21257364816E+02  0.11155472102E+02  0.46142318027E+02  0.10000002425E+02 0.  0.
         12    1    1    2    0    0  0.38115526333E+02  0.21257364816E+02 -0.11155472102E+02  0.45045681973E+02  0.00000000000E+00 0. -1.
         11    1    3    3    0    0 -0.10303111653E+02 -0.94425699739E+01  0.43989016824E+01  0.14651504145E+02  0.51100000000E-03 0. -1.
        -11    1    3    3    0    0 -0.12845721611E+02 -0.61349735733E+01  0.60477808167E+01  0.15466936268E+02  0.51100000000E-03 0.  1.
         12    1    3    3    0    0 -0.14966693069E+02 -0.56798212687E+01  0.70878960322E+00  0.16023877614E+02  0.00000000000E+00 0. -1.
</event>
<event>
 7    1  0.2250716E-008  0.4614232E+02  0.7816164E-02  0.1320468E+00
        -11   -1    0    0    0    0  0.00000000000E+00  0.00000000000E+00  0.45593999997E+02  0.45594000000E+02  0.51100000000E-03 0.  1.
         11   -1    0    0    0    0 -0.00000000000E+00 -0.00000000000E+00 -0.45593999997E+02  0.45594000000E+02  0.51100000000E-03 0. -1.
    9900012    2    1    2    0    0 -0.44547233577E+02 -0.54422231572E+01 -0.38781095447E+01  0.46142317122E+02  0.99999941738E+01 0.  0.
         12    1    1    2    0    0  0.44547233577E+02  0.54422231572E+01  0.38781095447E+01  0.45045682878E+02  0.00000000000E+00 0. -1.
         11    1    3    3    0    0 -0.19292370154E+01  0.10992632994E+01 -0.10737633203E+01  0.24664353209E+01  0.51100000000E-03 0. -1.
        -11    1    3    3    0    0 -0.16880343893E+02  0.54535018292E+00 -0.12379778161E+01  0.16934462085E+02  0.51100000000E-03 0.  1.
        -12    1    3    3    0    0 -0.25737652669E+02 -0.70868366396E+01 -0.15663684084E+01  0.26741419717E+02  0.00000000000E+00 0.  1.
</event>
<event>
 7    1  0.2282914E-008  0.4614232E+02  0.7816164E-02  0.1320468E+00
        -11   -1    0    0    0    0  0.00000000000E+00  0.00000000000E+00  0.45593999997E+02  0.45594000000E+02  0.51100000000E-03 0. -1.
         11   -1    0    0    0    0 -0.00000000000E+00 -0.00000000000E+00 -0.45593999997E+02  0.45594000000E+02  0.51100000000E-03 0.  1.
    9900012    2    1    2    0    0 -0.21271220388E+02  0.39429955288E+02  0.46826613927E+01  0.46142317538E+02  0.99999979617E+01 0.  0.
         12    1    1    2    0    0  0.21271220388E+02 -0.39429955288E+02 -0.46826613927E+01  0.45045682462E+02  0.00000000000E+00 0. -1.
         11    1    3    3    0    0 -0.60246759738E+01  0.67660977110E+01  0.32953864217E+01  0.96403511738E+01  0.51100000000E-03 0. -1.
        -11    1    3    3    0    0 -0.14831557808E+01  0.60886629614E+01  0.19683176408E+01  0.65685494841E+01  0.51100000000E-03 0.  1.
        -12    1    3    3    0    0 -0.13763388633E+02  0.26575194615E+02 -0.58104266984E+00  0.29933416880E+02  0.00000000000E+00 0.  1.
</event>
<event>
 7    1  0.2250716E-008  0.4614232E+02  0.7816164E-02  0.1320468E+00
        -11   -1    0    0    0    0  0.00000000000E+00  0.00000000000E+00  0.45593999997E+02  0.45594000000E+02  0.51100000000E-03 0.  1.
         11   -1    0    0    0    0 -0.00000000000E+00 -0.00000000000E+00 -0.45593999997E+02  0.45594000000E+02  0.51100000000E-03 0. -1.
    9900012    2    1    2    0    0  0.56178885268E+01 -0.41249841549E+02  0.17204749047E+02  0.46142317753E+02  0.99999999258E+01 0.  0.
         12    1    1    2    0    0 -0.56178885268E+01  0.41249841549E+02 -0.17204749047E+02  0.45045682247E+02  0.00000000000E+00 0. -1.
         11    1    3    3    0    0  0.27525060777E+01 -0.10060430758E+02  0.97814118327E+00  0.10475939918E+02  0.51100000000E-03 0. -1.
        -11    1    3    3    0    0  0.22444545999E+01 -0.20292235907E+02  0.77149463785E+01  0.21825050113E+02  0.51100000000E-03 0.  1.
         12    1    3    3    0    0  0.62092784910E+00 -0.10897174885E+02  0.85116614850E+01  0.13841327722E+02  0.00000000000E+00 0. -1.
</event>
<event>
 7    1  0.2250716E-008  0.4614232E+02  0.7816164E-02  0.1320468E+00
        -11   -1    0    0    0    0  0.00000000000E+00  0.00000000000E+00  0.45593999997E+02  0.45594000000E+02  0.51100000000E-03 0. -1.
         11   -1    0    0    0    0 -0.00000000000E+00 -0.00000000000E+00 -0.45593999997E+02  0.45594000000E+02  0.51100000000E-03 0.  1.
    9900012    2    1    2    0    0 -0.25440226962E+02 -0.39869968754E+01 -0.36959602855E+02  0.46142317241E+02  0.99999952614E+01 0.  0.
         12    1    1    2    0    0  0.25440226962E+02  0.39869968754E+01  0.36959602855E+02  0.45045682759E+02  0.00000000000E+00 0. -1.
         11    1    3    3    0    0 -0.56184203011E+01 -0.16872825772E+01 -0.35755616527E+01  0.68700953828E+01  0.51100000000E-03 0. -1.
        -11    1    3    3    0    0 -0.16789865357E+02 -0.39069457412E+01 -0.27296740044E+02  0.32284296818E+02  0.51100000000E-03 0.  1.
        -12    1    3    3    0    0 -0.30319413041E+01  0.16072314430E+01 -0.60873011587E+01  0.69879250411E+01  0.00000000000E+00 0.  1.
</event>
<event>
 7    1  0.2250716E-008  0.4614232E+02  0.7816164E-02  0.1320468E+00
        -11   -1    0    0    0    0  0.00000000000E+00  0.00000000000E+00  0.45593999997E+02  0.45594000000E+02  0.51100000000E-03 0.  1.
         11   -1    0    0    0    0 -0.00000000000E+00 -0.00000000000E+00 -0.45593999997E+02  0.45594000000E+02  0.51100000000E-03 0. -1.
    9900012    2    1    2    0    0  0.44508103394E+01  0.43648693488E+02 -0.10202710545E+02  0.46142318094E+02  0.10000003034E+02 0.  0.
         12    1    1    2    0    0 -0.44508103394E+01 -0.43648693488E+02  0.10202710545E+02  0.45045681906E+02  0.00000000000E+00 0. -1.
         11    1    3    3    0    0  0.34477181729E+01  0.11492598067E+02 -0.54131527598E+01  0.13163160487E+02  0.51100000000E-03 0. -1.
        -11    1    3    3    0    0  0.25402167007E+01  0.15251427949E+02 -0.40759749418E+01  0.15989756951E+02  0.51100000000E-03 0.  1.
         12    1    3    3    0    0 -0.15371245342E+01  0.16904667472E+02 -0.71358284380E+00  0.16989400656E+02  0.00000000000E+00 0. -1.
</event>
<event>
 7    1  0.2250716E-008  0.4614232E+02  0.7816164E-02  0.1320468E+00
        -11   -1    0    0    0    0  0.00000000000E+00  0.00000000000E+00  0.45593999997E+02  0.45594000000E+02  0.51100000000E-03 0.  1.
         11   -1    0    0    0    0 -0.00000000000E+00 -0.00000000000E+00 -0.45593999997E+02  0.45594000000E+02  0.51100000000E-03 0. -1.
    9900012    2    1    2    0    0 -0.37434673697E+02  0.41183426642E+01  0.24714326811E+02  0.46142317734E+02  0.99999997507E+01 0.  0.
         12    1    1    2    0    0  0.37434673697E+02 -0.41183426642E+01 -0.24714326811E+02  0.45045682266E+02  0.00000000000E+00 0. -1.
         11    1    3    3    0    0 -0.24482396049E+01 -0.89634123216E+00  0.23471075629E+01  0.35080220838E+01  0.51100000000E-03 0. -1.
        -11    1    3    3    0    0 -0.13573122478E+02  0.29970561942E+01  0.13478211930E+02  0.19361668232E+02  0.51100000000E-03 0.  1.
         12    1    3    3    0    0 -0.21413311615E+02  0.20176277021E+01  0.88890073181E+01  0.23272627418E+02  0.00000000000E+00 0. -1.
</event>
<event>
 7    1  0.2250716E-008  0.4614232E+02  0.7816164E-02  0.1320468E+00
        -11   -1    0    0    0    0  0.00000000000E+00  0.00000000000E+00  0.45593999997E+02  0.45594000000E+02  0.51100000000E-03 0.  1.
         11   -1    0    0    0    0 -0.00000000000E+00 -0.00000000000E+00 -0.45593999997E+02  0.45594000000E+02  0.51100000000E-03 0. -1.
    9900012    2    1    2    0    0 -0.13063781494E+01 -0.16044478576E+01  0.44998139817E+02  0.46142318034E+02  0.10000002485E+02 0.  0.
         12    1    1    2    0    0  0.13063781494E+01  0.16044478576E+01 -0.44998139817E+02  0.45045681966E+02  0.00000000000E+00 0. -1.
         11    1    3    3    0    0  0.33410534421E+00  0.65143705823E+00  0.17816797558E+00  0.75348570691E+00  0.51100000000E-03 0. -1.
        -11    1    3    3    0    0 -0.33959097703E+01 -0.35545136483E+01  0.33679466429E+02  0.34036351591E+02  0.51100000000E-03 0.  1.
         12    1    3    3    0    0  0.17554262767E+01  0.12986287325E+01  0.11140505413E+02  0.11352480736E+02  0.00000000000E+00 0. -1.
</event>
<event>
 7    1  0.2250716E-008  0.4614232E+02  0.7816164E-02  0.1320468E+00
        -11   -1    0    0    0    0  0.00000000000E+00  0.00000000000E+00  0.45593999997E+02  0.45594000000E+02  0.51100000000E-03 0.  1.
         11   -1    0    0    0    0 -0.00000000000E+00 -0.00000000000E+00 -0.45593999997E+02  0.45594000000E+02  0.51100000000E-03 0. -1.
    9900012    2    1    2    0    0  0.94204207562E+01  0.37893780414E+02  0.22459533158E+02  0.46142317066E+02  0.99999936638E+01 0.  0.
         12    1    1    2    0    0 -0.94204207562E+01 -0.37893780414E+02 -0.22459533158E+02  0.45045682934E+02  0.00000000000E+00 0. -1.
         11    1    3    3    0    0  0.18814754643E+01  0.91230467342E+00  0.11192853310E+01  0.23717187129E+01  0.51100000000E-03 0. -1.
        -11    1    3    3    0    0  0.46381637352E+01  0.11166440291E+02  0.50209993353E+01  0.13092455315E+02  0.51100000000E-03 0.  1.
        -12    1    3    3    0    0  0.29007815567E+01  0.25815035450E+02  0.16319248492E+02  0.30678143038E+02  0.00000000000E+00 0.  1.
</event>
<event>
 7    1  0.2250716E-008  0.4614232E+02  0.7816164E-02  0.1320468E+00
        -11   -1    0    0    0    0  0.00000000000E+00  0.00000000000E+00  0.45593999997E+02  0.45594000000E+02  0.51100000000E-03 0.  1.
         11   -1    0    0    0    0 -0.00000000000E+00 -0.00000000000E+00 -0.45593999997E+02  0.45594000000E+02  0.51100000000E-03 0. -1.
    9900012    2    1    2    0    0 -0.12003780050E+02 -0.40728095645E+02  0.15041442882E+02  0.46142317473E+02  0.99999973683E+01 0.  0.
         12    1    1    2    0    0  0.12003780050E+02  0.40728095645E+02 -0.15041442882E+02  0.45045682527E+02  0.00000000000E+00 0. -1.
         11    1    3    3    0    0 -0.36483508057E+00 -0.16179213512E+01 -0.33746285844E+00  0.16925293429E+01  0.51100000000E-03 0. -1.
        -11    1    3    3    0    0 -0.75372001002E+01 -0.22684833778E+02  0.44946057983E+01  0.24323086778E+02  0.51100000000E-03 0.  1.
        -12    1    3    3    0    0 -0.41017448694E+01 -0.16425340516E+02  0.10884299943E+02  0.20126701351E+02  0.00000000000E+00 0.  1.
</event>
<event>
 7    1  0.2250716E-008  0.4614231E+02  0.7816164E-02  0.1320468E+00
        -11   -1    0    0    0    0  0.00000000000E+00  0.00000000000E+00  0.45593999997E+02  0.45594000000E+02  0.51100000000E-03 0.  1.
         11   -1    0    0    0    0 -0.00000000000E+00 -0.00000000000E+00 -0.45593999997E+02  0.45594000000E+02  0.51100000000E-03 0. -1.
    9900012    2    1    2    0    0  0.40858293267E+02  0.16656674988E+02  0.90702178118E+01  0.46142314285E+02  0.99999683025E+01 0.  0.
         12    1    1    2    0    0 -0.40858293267E+02 -0.16656674988E+02 -0.90702178118E+01  0.45045685715E+02  0.00000000000E+00 0. -1.
         11    1    3    3    0    0  0.20468528967E+01  0.24103034786E+01  0.19261664373E+01  0.37026054401E+01  0.51100000000E-03 0. -1.
        -11    1    3    3    0    0  0.36880324412E+02  0.12466614813E+02  0.54387733076E+01  0.39308460527E+02  0.51100000000E-03 0.  1.
        -12    1    3    3    0    0  0.19311159584E+01  0.17797566966E+01  0.17052780669E+01  0.31312483180E+01  0.00000000000E+00 0.  1.
</event>
<event>
 7    1  0.2250716E-008  0.4614232E+02  0.7816164E-02  0.1320468E+00
        -11   -1    0    0    0    0  0.00000000000E+00  0.00000000000E+00  0.45593999997E+02  0.45594000000E+02  0.51100000000E-03 0.  1.
         11   -1    0    0    0    0 -0.00000000000E+00 -0.00000000000E+00 -0.45593999997E+02  0.45594000000E+02  0.51100000000E-03 0. -1.
    9900012    2    1    2    0    0  0.28877743552E+02 -0.14290011627E+02  0.31479914123E+02  0.46142317652E+02  0.99999990094E+01 0.  0.
         12    1    1    2    0    0 -0.28877743552E+02  0.14290011627E+02 -0.31479914123E+02  0.45045682348E+02  0.00000000000E+00 0. -1.
         11    1    3    3    0    0  0.46916461927E+01 -0.16495007702E+01  0.11645745725E+01  0.51077031026E+01  0.51100000000E-03 0. -1.
        -11    1    3    3    0    0  0.24379310622E+02 -0.12415325023E+02  0.30001051409E+02  0.40602391158E+02  0.51100000000E-03 0.  1.
        -12    1    3    3    0    0 -0.19321326269E+00 -0.22518583403E+00  0.31428814105E+00  0.43222339169E+00  0.00000000000E+00 0.  1.
</event>
<event>
 7    1  0.2250716E-008  0.4614232E+02  0.7816164E-02  0.1320468E+00
        -11   -1    0    0    0    0  0.00000000000E+00  0.00000000000E+00  0.45593999997E+02  0.45594000000E+02  0.51100000000E-03 0.  1.
         11   -1    0    0    0    0 -0.00000000000E+00 -0.00000000000E+00 -0.45593999997E+02  0.45594000000E+02  0.51100000000E-03 0. -1.
    9900012    2    1    2    0    0 -0.15455901224E+02 -0.74463538399E+01  0.41650695132E+02  0.46142317931E+02  0.10000001545E+02 0.  0.
         12    1    1    2    0    0  0.15455901224E+02  0.74463538399E+01 -0.41650695132E+02  0.45045682069E+02  0.00000000000E+00 0. -1.
         11    1    3    3    0    0 -0.26386113536E+00 -0.91182127753E+00 -0.27816834208E+00  0.98915045800E+00  0.51100000000E-03 0. -1.
        -11    1    3    3    0    0 -0.56357118363E+01 -0.35800430972E+01  0.14701283604E+02  0.16146383383E+02  0.51100000000E-03 0.  1.
        -12    1    3    3    0    0 -0.95563282519E+01 -0.29544894651E+01  0.27227579870E+02  0.29006784090E+02  0.00000000000E+00 0.  1.
</event>
<event>
 7    1  0.2250716E-008  0.4614232E+02  0.7816164E-02  0.1320468E+00
        -11   -1    0    0    0    0  0.00000000000E+00  0.00000000000E+00  0.45593999997E+02  0.45594000000E+02  0.51100000000E-03 0.  1.
         11   -1    0    0    0    0 -0.00000000000E+00 -0.00000000000E+00 -0.45593999997E+02  0.45594000000E+02  0.51100000000E-03 0. -1.
    9900012    2    1    2    0    0  0.10922229587E+02 -0.39274408766E+02  0.19166095115E+02  0.46142317798E+02  0.10000000335E+02 0.  0.
         12    1    1    2    0    0 -0.10922229587E+02  0.39274408766E+02 -0.19166095115E+02  0.45045682202E+02  0.00000000000E+00 0. -1.
         11    1    3    3    0    0  0.58583956930E+00 -0.37134150982E+01 -0.99569370568E+00  0.38889672034E+01  0.51100000000E-03 0. -1.
        -11    1    3    3    0    0  0.64229512721E+01 -0.18540974865E+02  0.11723710813E+02  0.22857546838E+02  0.51100000000E-03 0.  1.
        -12    1    3    3    0    0  0.39134387457E+01 -0.17020018803E+02  0.84380780078E+01  0.19395803756E+02  0.00000000000E+00 0.  1.
</event>
<event>
 7    1  0.2250716E-008  0.4614232E+02  0.7816164E-02  0.1320468E+00
        -11   -1    0    0    0    0  0.00000000000E+00  0.00000000000E+00  0.45593999997E+02  0.45594000000E+02  0.51100000000E-03 0.  1.
         11   -1    0    0    0    0 -0.00000000000E+00 -0.00000000000E+00 -0.45593999997E+02  0.45594000000E+02  0.51100000000E-03 0. -1.
    9900012    2    1    2    0    0 -0.78787864473E+01 -0.26359279184E+02  0.35668287154E+02  0.46142316705E+02  0.99999903704E+01 0.  0.
         12    1    1    2    0    0  0.78787864473E+01  0.26359279184E+02 -0.35668287154E+02  0.45045683295E+02  0.00000000000E+00 0. -1.
         11    1    3    3    0    0 -0.58032624394E+01 -0.56705635058E+01  0.10612430299E+02  0.13358773242E+02  0.51100000000E-03 0.  1.
        -11    1    3    3    0    0 -0.28138663048E+00 -0.34137435083E-01  0.93568338108E+00  0.97767451180E+00  0.51100000000E-03 0. -1.
        -12    1    3    3    0    0 -0.17941373775E+01 -0.20654578243E+02  0.24120173474E+02  0.31805868951E+02  0.00000000000E+00 0.  1.
</event>
<event>
 7    1  0.2250716E-008  0.4614232E+02  0.7816164E-02  0.1320468E+00
        -11   -1    0    0    0    0  0.00000000000E+00  0.00000000000E+00  0.45593999997E+02  0.45594000000E+02  0.51100000000E-03 0.  1.
         11   -1    0    0    0    0 -0.00000000000E+00 -0.00000000000E+00 -0.45593999997E+02  0.45594000000E+02  0.51100000000E-03 0. -1.
    9900012    2    1    2    0    0  0.25568259490E+02  0.81105440693E+01  0.36188350578E+02  0.46142317233E+02  0.99999951804E+01 0.  0.
         12    1    1    2    0    0 -0.25568259490E+02 -0.81105440693E+01 -0.36188350578E+02  0.45045682767E+02  0.00000000000E+00 0. -1.
         11    1    3    3    0    0  0.47751069081E+01 -0.13340529008E+01  0.45085508145E+01  0.67013710413E+01  0.51100000000E-03 0. -1.
        -11    1    3    3    0    0  0.86775202020E+01  0.31108912321E+01  0.85503820459E+01  0.12573226893E+02  0.51100000000E-03 0.  1.
        -12    1    3    3    0    0  0.12115632380E+02  0.63337057381E+01  0.23129417717E+02  0.26867719298E+02  0.00000000000E+00 0.  1.
</event>
<event>
 7    1  0.2250716E-008  0.4614232E+02  0.7816164E-02  0.1320468E+00
        -11   -1    0    0    0    0  0.00000000000E+00  0.00000000000E+00  0.45593999997E+02  0.45594000000E+02  0.51100000000E-03 0.  1.
         11   -1    0    0    0    0 -0.00000000000E+00 -0.00000000000E+00 -0.45593999997E+02  0.45594000000E+02  0.51100000000E-03 0. -1.
    9900012    2    1    2    0    0 -0.39994852868E+02  0.11377869840E+02  0.17322515215E+02  0.46142315285E+02  0.99999774253E+01 0.  0.
         12    1    1    2    0    0  0.39994852868E+02 -0.11377869840E+02 -0.17322515215E+02  0.45045684715E+02  0.00000000000E+00 0. -1.
         11    1    3    3    0    0 -0.69585945095E+01  0.87469963139E+00 -0.10659536791E+00  0.70141642286E+01  0.51100000000E-03 0. -1.
        -11    1    3    3    0    0 -0.15866470432E+02  0.76559096595E+01  0.92513646688E+01  0.19898381471E+02  0.51100000000E-03 0.  1.
        -12    1    3    3    0    0 -0.17169787927E+02  0.28472605491E+01  0.81777459136E+01  0.19229769586E+02  0.00000000000E+00 0.  1.
</event>
<event>
 7    1  0.2250716E-008  0.4614231E+02  0.7816164E-02  0.1320468E+00
        -11   -1    0    0    0    0  0.00000000000E+00  0.00000000000E+00  0.45593999997E+02  0.45594000000E+02  0.51100000000E-03 0.  1.
         11   -1    0    0    0    0 -0.00000000000E+00 -0.00000000000E+00 -0.45593999997E+02  0.45594000000E+02  0.51100000000E-03 0. -1.
    9900012    2    1    2    0    0 -0.20754268542E+01 -0.27263122356E+02  0.35798454723E+02  0.46142305447E+02  0.99998877077E+01 0.  0.
         12    1    1    2    0    0  0.20754268542E+01  0.27263122356E+02 -0.35798454723E+02  0.45045694553E+02  0.00000000000E+00 0. -1.
         11    1    3    3    0    0 -0.10000175630E+01 -0.15031931120E+01  0.73640419100E+00  0.19498502639E+01  0.51100000000E-03 0. -1.
        -11    1    3    3    0    0  0.25829165602E+00 -0.20791781141E+02  0.22599307531E+02  0.30709828699E+02  0.51100000000E-03 0.  1.
         12    1    3    3    0    0 -0.13337009473E+01 -0.49681481036E+01  0.12462743001E+02  0.13482626484E+02  0.00000000000E+00 0. -1.
</event>
<event>
 7    1  0.2250716E-008  0.4614232E+02  0.7816164E-02  0.1320468E+00
        -11   -1    0    0    0    0  0.00000000000E+00  0.00000000000E+00  0.45593999997E+02  0.45594000000E+02  0.51100000000E-03 0.  1.
         11   -1    0    0    0    0 -0.00000000000E+00 -0.00000000000E+00 -0.45593999997E+02  0.45594000000E+02  0.51100000000E-03 0. -1.
    9900012    2    1    2    0    0  0.14102414764E+01 -0.43142116426E+02  0.12879535968E+02  0.46142318325E+02  0.10000005147E+02 0.  0.
         12    1    1    2    0    0 -0.14102414764E+01  0.43142116426E+02 -0.12879535968E+02  0.45045681675E+02  0.00000000000E+00 0. -1.
         11    1    3    3    0    0 -0.12795291257E+01 -0.16296392683E+02  0.53239421545E+01  0.17191683152E+02  0.51100000000E-03 0. -1.
        -11    1    3    3    0    0  0.18486593633E+01 -0.23126578657E+02  0.89836099765E+01  0.24878935474E+02  0.51100000000E-03 0.  1.
        -12    1    3    3    0    0  0.84111123881E+00 -0.37191450857E+01 -0.14280161627E+01  0.40716996998E+01  0.00000000000E+00 0.  1.
</event>
<event>
 7    1  0.2250716E-008  0.4614232E+02  0.7816164E-02  0.1320468E+00
        -11   -1    0    0    0    0  0.00000000000E+00  0.00000000000E+00  0.45593999997E+02  0.45594000000E+02  0.51100000000E-03 0.  1.
         11   -1    0    0    0    0 -0.00000000000E+00 -0.00000000000E+00 -0.45593999997E+02  0.45594000000E+02  0.51100000000E-03 0. -1.
    9900012    2    1    2    0    0  0.21772294120E+02 -0.29592152548E+01  0.39323323809E+02  0.46142317170E+02  0.99999946138E+01 0.  0.
         12    1    1    2    0    0 -0.21772294120E+02  0.29592152548E+01 -0.39323323809E+02  0.45045682830E+02  0.00000000000E+00 0. -1.
         11    1    3    3    0    0  0.26423147787E+01 -0.29777716185E+01  0.82693294987E+01  0.91777318451E+01  0.51100000000E-03 0. -1.
        -11    1    3    3    0    0  0.14970211509E+02 -0.24309699376E+01  0.22317624107E+02  0.26983202062E+02  0.51100000000E-03 0.  1.
        -12    1    3    3    0    0  0.41597678322E+01  0.24495263013E+01  0.87363702039E+01  0.99813832638E+01  0.00000000000E+00 0.  1.
</event>
<event>
 7    1  0.2250716E-008  0.4614231E+02  0.7816164E-02  0.1320468E+00
        -11   -1    0    0    0    0  0.00000000000E+00  0.00000000000E+00  0.45593999997E+02  0.45594000000E+02  0.51100000000E-03 0. -1.
         11   -1    0    0    0    0 -0.00000000000E+00 -0.00000000000E+00 -0.45593999997E+02  0.45594000000E+02  0.51100000000E-03 0.  1.
    9900012    2    1    2    0    0  0.20670717915E+00  0.31497839678E+02 -0.32201818698E+02  0.46142314750E+02  0.99999725378E+01 0.  0.
         12    1    1    2    0    0 -0.20670717915E+00 -0.31497839678E+02  0.32201818698E+02  0.45045685250E+02  0.00000000000E+00 0. -1.
         11    1    3    3    0    0  0.21320237492E+01  0.17612373286E+02 -0.14347326427E+02  0.22816375564E+02  0.51100000000E-03 0. -1.
        -11    1    3    3    0    0 -0.14432671566E+01  0.13978694844E+02 -0.15505731905E+02  0.20926410390E+02  0.51100000000E-03 0.  1.
        -12    1    3    3    0    0 -0.48204941347E+00 -0.93228452437E-01 -0.23487603665E+01  0.23995287955E+01  0.00000000000E+00 0.  1.
</event>
<event>
 7    1  0.2250716E-008  0.4614232E+02  0.7816164E-02  0.1320468E+00
        -11   -1    0    0    0    0  0.00000000000E+00  0.00000000000E+00  0.45593999997E+02  0.45594000000E+02  0.51100000000E-03 0.  1.
         11   -1    0    0    0    0 -0.00000000000E+00 -0.00000000000E+00 -0.45593999997E+02  0.45594000000E+02  0.51100000000E-03 0. -1.
    9900012    2    1    2    0    0  0.18892826076E+01 -0.21162805708E+02  0.39720017064E+02  0.46142317746E+02  0.99999998592E+01 0.  0.
         12    1    1    2    0    0 -0.18892826076E+01  0.21162805708E+02 -0.39720017064E+02  0.45045682254E+02  0.00000000000E+00 0. -1.
         11    1    3    3    0    0  0.11478135058E+01 -0.10380512521E+02  0.16787287341E+02  0.19770825288E+02  0.51100000000E-03 0. -1.
        -11    1    3    3    0    0  0.12312220324E+01 -0.63897085002E+01  0.59307954729E+01  0.88044657768E+01  0.51100000000E-03 0.  1.
         12    1    3    3    0    0 -0.48975293068E+00 -0.43925846867E+01  0.17001934250E+02  0.17567026681E+02  0.00000000000E+00 0. -1.
</event>
<event>
 7    1  0.2250716E-008  0.4614232E+02  0.7816164E-02  0.1320468E+00
        -11   -1    0    0    0    0  0.00000000000E+00  0.00000000000E+00  0.45593999997E+02  0.45594000000E+02  0.51100000000E-03 0.  1.
         11   -1    0    0    0    0 -0.00000000000E+00 -0.00000000000E+00 -0.45593999997E+02  0.45594000000E+02  0.51100000000E-03 0. -1.
    9900012    2    1    2    0    0 -0.20518372874E+02 -0.23726518155E+02  0.32328968294E+02  0.46142317853E+02  0.10000000837E+02 0.  0.
         12    1    1    2    0    0  0.20518372874E+02  0.23726518155E+02 -0.32328968294E+02  0.45045682147E+02  0.00000000000E+00 0. -1.
         11    1    3    3    0    0 -0.22745276875E+01 -0.34013345522E+01  0.22483174980E+01  0.46687776526E+01  0.51100000000E-03 0. -1.
        -11    1    3    3    0    0 -0.83134822111E+01 -0.12229450911E+02  0.21343722705E+02  0.25965899854E+02  0.51100000000E-03 0.  1.
        -12    1    3    3    0    0 -0.99303629754E+01 -0.80957326920E+01  0.87369280907E+01  0.15507640346E+02  0.00000000000E+00 0.  1.
</event>
<event>
 7    1  0.2250716E-008  0.4614232E+02  0.7816164E-02  0.1320468E+00
        -11   -1    0    0    0    0  0.00000000000E+00  0.00000000000E+00  0.45593999997E+02  0.45594000000E+02  0.51100000000E-03 0.  1.
         11   -1    0    0    0    0 -0.00000000000E+00 -0.00000000000E+00 -0.45593999997E+02  0.45594000000E+02  0.51100000000E-03 0. -1.
    9900012    2    1    2    0    0  0.43675668976E+01  0.40219488671E+02  0.19809864962E+02  0.46142315863E+02  0.99999826907E+01 0.  0.
         12    1    1    2    0    0 -0.43675668976E+01 -0.40219488671E+02 -0.19809864962E+02  0.45045684137E+02  0.00000000000E+00 0. -1.
         11    1    3    3    0    0 -0.93163198690E+00  0.84285463894E+01  0.53372048149E+01  0.10019685020E+02  0.51100000000E-03 0.  1.
        -11    1    3    3    0    0  0.71274152149E+00  0.90266591057E+01  0.60428680895E+00  0.90748960267E+01  0.51100000000E-03 0. -1.
        -12    1    3    3    0    0  0.45864573630E+01  0.22764283176E+02  0.13868373338E+02  0.27047734817E+02  0.00000000000E+00 0.  1.
</event>
<event>
 7    1  0.2250716E-008  0.4614231E+02  0.7816164E-02  0.1320468E+00
        -11   -1    0    0    0    0  0.00000000000E+00  0.00000000000E+00  0.45593999997E+02  0.45594000000E+02  0.51100000000E-03 0.  1.
         11   -1    0    0    0    0 -0.00000000000E+00 -0.00000000000E+00 -0.45593999997E+02  0.45594000000E+02  0.51100000000E-03 0. -1.
    9900012    2    1    2    0    0  0.44957709461E+01  0.35268896857E+02  0.27658768437E+02  0.46142306384E+02  0.99998962575E+01 0.  0.
         12    1    1    2    0    0 -0.44957709461E+01 -0.35268896857E+02 -0.27658768437E+02  0.45045693616E+02  0.00000000000E+00 0. -1.
         11    1    3    3    0    0 -0.30447038489E+00  0.16305609053E+02  0.79929415680E+01  0.18161847483E+02  0.51100000000E-03 0. -1.
        -11    1    3    3    0    0  0.34662944380E+00  0.76175716794E+01  0.88811596673E+01  0.11705663055E+02  0.51100000000E-03 0.  1.
         12    1    3    3    0    0  0.44536118871E+01  0.11345716124E+02  0.10784667201E+02  0.16274795847E+02  0.00000000000E+00 0. -1.
</event>
<event>
 7    1  0.2250716E-008  0.4614232E+02  0.7816164E-02  0.1320468E+00
        -11   -1    0    0    0    0  0.00000000000E+00  0.00000000000E+00  0.45593999997E+02  0.45594000000E+02  0.51100000000E-03 0.  1.
         11   -1    0    0    0    0 -0.00000000000E+00 -0.00000000000E+00 -0.45593999997E+02  0.45594000000E+02  0.51100000000E-03 0. -1.
    9900012    2    1    2    0    0  0.27142575104E+02 -0.25061659045E+02  0.25774160328E+02  0.46142317876E+02  0.10000001047E+02 0.  0.
         12    1    1    2    0    0 -0.27142575104E+02  0.25061659045E+02 -0.25774160328E+02  0.45045682124E+02  0.00000000000E+00 0. -1.
         11    1    3    3    0    0  0.15067435642E+02 -0.10452632909E+02  0.95060529862E+01  0.20655512465E+02  0.51100000000E-03 0. -1.
        -11    1    3    3    0    0  0.62654619199E+01 -0.78606636582E+01  0.53152207920E+01  0.11370911069E+02  0.51100000000E-03 0.  1.
        -12    1    3    3    0    0  0.58096775419E+01 -0.67483624781E+01  0.10952886550E+02  0.14115894341E+02  0.00000000000E+00 0.  1.
</event>
<event>
 7    1  0.2250716E-008  0.4614232E+02  0.7816164E-02  0.1320468E+00
        -11   -1    0    0    0    0  0.00000000000E+00  0.00000000000E+00  0.45593999997E+02  0.45594000000E+02  0.51100000000E-03 0. -1.
         11   -1    0    0    0    0 -0.00000000000E+00 -0.00000000000E+00 -0.45593999997E+02  0.45594000000E+02  0.51100000000E-03 0.  1.
    9900012    2    1    2    0    0  0.44075770333E+01  0.87026506438E+01 -0.43976705574E+02  0.46142317669E+02  0.99999991629E+01 0.  0.
         12    1    1    2    0    0 -0.44075770333E+01 -0.87026506438E+01  0.43976705574E+02  0.45045682331E+02  0.00000000000E+00 0. -1.
         11    1    3    3    0    0 -0.54459069209E-01  0.15447560910E+01 -0.12213877147E+01  0.19700318225E+01  0.51100000000E-03 0. -1.
        -11    1    3    3    0    0 -0.60033818257E+00  0.49093976997E+01 -0.27527031040E+02  0.27967839206E+02  0.51100000000E-03 0.  1.
        -12    1    3    3    0    0  0.50623742851E+01  0.22484968531E+01 -0.15228286819E+02  0.16204446641E+02  0.00000000000E+00 0.  1.
</event>
<event>
 7    1  0.2250716E-008  0.4614232E+02  0.7816164E-02  0.1320468E+00
        -11   -1    0    0    0    0  0.00000000000E+00  0.00000000000E+00  0.45593999997E+02  0.45594000000E+02  0.51100000000E-03 0.  1.
         11   -1    0    0    0    0 -0.00000000000E+00 -0.00000000000E+00 -0.45593999997E+02  0.45594000000E+02  0.51100000000E-03 0. -1.
    9900012    2    1    2    0    0 -0.20547881926E+02  0.34975785106E+02  0.19585517145E+02  0.46142317884E+02  0.10000001124E+02 0.  0.
         12    1    1    2    0    0  0.20547881926E+02 -0.34975785106E+02 -0.19585517145E+02  0.45045682116E+02  0.00000000000E+00 0. -1.
         11    1    3    3    0    0 -0.59174171860E+00  0.15095109204E+01 -0.80693922507E+00  0.18110584349E+01  0.51100000000E-03 0. -1.
        -11    1    3    3    0    0 -0.19324590641E+02  0.29997763775E+02  0.19621765182E+02  0.40722466822E+02  0.51100000000E-03 0.  1.
        -12    1    3    3    0    0 -0.63154956653E+00  0.34685104100E+01  0.77069118856E+00  0.36087926274E+01  0.00000000000E+00 0.  1.
</event>
<event>
 7    1  0.2250716E-008  0.4614232E+02  0.7816164E-02  0.1320468E+00
        -11   -1    0    0    0    0  0.00000000000E+00  0.00000000000E+00  0.45593999997E+02  0.45594000000E+02  0.51100000000E-03 0.  1.
         11   -1    0    0    0    0 -0.00000000000E+00 -0.00000000000E+00 -0.45593999997E+02  0.45594000000E+02  0.51100000000E-03 0. -1.
    9900012    2    1    2    0    0  0.37730485607E+02 -0.20035802887E+01  0.24525693408E+02  0.46142317463E+02  0.99999972791E+01 0.  0.
         12    1    1    2    0    0 -0.37730485607E+02  0.20035802887E+01 -0.24525693408E+02  0.45045682537E+02  0.00000000000E+00 0. -1.
         11    1    3    3    0    0  0.91763664720E+01 -0.17964601740E+00  0.52750520051E+01  0.10586035530E+02  0.51100000000E-03 0. -1.
        -11    1    3    3    0    0  0.27839862699E+02 -0.30967549219E+00  0.16580758821E+02  0.32404867186E+02  0.51100000000E-03 0.  1.
         12    1    3    3    0    0  0.71425643594E+00 -0.15142587791E+01  0.26698825815E+01  0.31514147466E+01  0.00000000000E+00 0. -1.
</event>
<event>
 7    1  0.2250716E-008  0.4614232E+02  0.7816164E-02  0.1320468E+00
        -11   -1    0    0    0    0  0.00000000000E+00  0.00000000000E+00  0.45593999997E+02  0.45594000000E+02  0.51100000000E-03 0.  1.
         11   -1    0    0    0    0 -0.00000000000E+00 -0.00000000000E+00 -0.45593999997E+02  0.45594000000E+02  0.51100000000E-03 0. -1.
    9900012    2    1    2    0    0 -0.24553409891E+02  0.31642179843E+02  0.20615916529E+02  0.46142317667E+02  0.99999991449E+01 0.  0.
         12    1    1    2    0    0  0.24553409891E+02 -0.31642179843E+02 -0.20615916529E+02  0.45045682333E+02  0.00000000000E+00 0. -1.
         11    1    3    3    0    0 -0.51586817214E+01  0.62619496711E+01  0.29250827756E+01  0.86243910099E+01  0.51100000000E-03 0. -1.
        -11    1    3    3    0    0 -0.16307601299E+02  0.14667580166E+02  0.11484002162E+02  0.24757990103E+02  0.51100000000E-03 0.  1.
         12    1    3    3    0    0 -0.30871268714E+01  0.10712650006E+02  0.62068315910E+01  0.12759936554E+02  0.00000000000E+00 0. -1.
</event>
<event>
 7    1  0.2250716E-008  0.4614232E+02  0.7816164E-02  0.1320468E+00
        -11   -1    0    0    0    0  0.00000000000E+00  0.00000000000E+00  0.45593999997E+02  0.45594000000E+02  0.51100000000E-03 0. -1.
         11   -1    0    0    0    0 -0.00000000000E+00 -0.00000000000E+00 -0.45593999997E+02  0.45594000000E+02  0.51100000000E-03 0.  1.
    9900012    2    1    2    0    0  0.30452017070E+02  0.26775651696E+02 -0.19617660150E+02  0.46142318107E+02  0.10000003157E+02 0.  0.
         12    1    1    2    0    0 -0.30452017070E+02 -0.26775651696E+02  0.19617660150E+02  0.45045681893E+02  0.00000000000E+00 0. -1.
         11    1    3    3    0    0  0.16980296737E+02  0.17702364543E+02 -0.76598222084E+01  0.25697802712E+02  0.51100000000E-03 0. -1.
        -11    1    3    3    0    0  0.11117985617E+02  0.78429478593E+01 -0.83475396838E+01  0.15962545359E+02  0.51100000000E-03 0.  1.
         12    1    3    3    0    0  0.23537347157E+01  0.12303392934E+01 -0.36102982582E+01  0.44819700358E+01  0.00000000000E+00 0. -1.
</event>
<event>
 7    1  0.2250716E-008  0.4614232E+02  0.7816164E-02  0.1320468E+00
        -11   -1    0    0    0    0  0.00000000000E+00  0.00000000000E+00  0.45593999997E+02  0.45594000000E+02  0.51100000000E-03 0.  1.
         11   -1    0    0    0    0 -0.00000000000E+00 -0.00000000000E+00 -0.45593999997E+02  0.45594000000E+02  0.51100000000E-03 0. -1.
    9900012    2    1    2    0    0 -0.19676192544E+02  0.48468490380E+00  0.40518216303E+02  0.46142319576E+02  0.10000016550E+02 0.  0.
         12    1    1    2    0    0  0.19676192544E+02 -0.48468490380E+00 -0.40518216303E+02  0.45045680424E+02  0.00000000000E+00 0. -1.
         11    1    3    3    0    0  0.66635622349E+00 -0.33812904963E+00  0.11561790369E+01  0.13766307047E+01  0.51100000000E-03 0. -1.
        -11    1    3    3    0    0 -0.71873906982E+01 -0.27108219466E+01  0.15090468729E+02  0.16933085584E+02  0.51100000000E-03 0.  1.
        -12    1    3    3    0    0 -0.13155158069E+02  0.35336359000E+01  0.24271568538E+02  0.27832603288E+02  0.00000000000E+00 0.  1.
</event>
<event>
 7    1  0.2250716E-008  0.4614232E+02  0.7816164E-02  0.1320468E+00
        -11   -1    0    0    0    0  0.00000000000E+00  0.00000000000E+00  0.45593999997E+02  0.45594000000E+02  0.51100000000E-03 0. -1.
         11   -1    0    0    0    0 -0.00000000000E+00 -0.00000000000E+00 -0.45593999997E+02  0.45594000000E+02  0.51100000000E-03 0.  1.
    9900012    2    1    2    0    0  0.39985460094E+01 -0.44180488127E+02 -0.78236573240E+01  0.46142317463E+02  0.99999972781E+01 0.  0.
         12    1    1    2    0    0 -0.39985460094E+01  0.44180488127E+02  0.78236573240E+01  0.45045682537E+02  0.00000000000E+00 0. -1.
         11    1    3    3    0    0  0.19684218781E+01 -0.49164965633E+01 -0.32486292109E+01  0.62129071423E+01  0.51100000000E-03 0. -1.
        -11    1    3    3    0    0  0.72486477091E+00 -0.23598531554E+02 -0.52838216292E+01  0.24193695289E+02  0.51100000000E-03 0.  1.
         12    1    3    3    0    0  0.13052593604E+01 -0.15665460009E+02  0.70879351614E+00  0.15735715031E+02  0.00000000000E+00 0. -1.
</event>
<event>
 7    1  0.2250716E-008  0.4614231E+02  0.7816164E-02  0.1320468E+00
        -11   -1    0    0    0    0  0.00000000000E+00  0.00000000000E+00  0.45593999997E+02  0.45594000000E+02  0.51100000000E-03 0. -1.
         11   -1    0    0    0    0 -0.00000000000E+00 -0.00000000000E+00 -0.45593999997E+02  0.45594000000E+02  0.51100000000E-03 0.  1.
    9900012    2    1    2    0    0  0.11712337449E+02  0.23829441889E+02 -0.36388085426E+02  0.46142313078E+02  0.99999572981E+01 0.  0.
         12    1    1    2    0    0 -0.11712337449E+02 -0.23829441889E+02  0.36388085426E+02  0.45045686922E+02  0.00000000000E+00 0. -1.
         11    1    3    3    0    0  0.27213644170E+01  0.26739867522E+01 -0.26334690244E+01  0.46358590148E+01  0.51100000000E-03 0. -1.
        -11    1    3    3    0    0  0.24817045868E+01  0.98879262024E+00 -0.61558933871E+01  0.67105582597E+01  0.51100000000E-03 0.  1.
        -12    1    3    3    0    0  0.65092684455E+01  0.20166662516E+02 -0.27598723015E+02  0.34795895804E+02  0.00000000000E+00 0.  1.
</event>
<event>
 7    1  0.2250716E-008  0.4614232E+02  0.7816164E-02  0.1320468E+00
        -11   -1    0    0    0    0  0.00000000000E+00  0.00000000000E+00  0.45593999997E+02  0.45594000000E+02  0.51100000000E-03 0.  1.
         11   -1    0    0    0    0 -0.00000000000E+00 -0.00000000000E+00 -0.45593999997E+02  0.45594000000E+02  0.51100000000E-03 0. -1.
    9900012    2    1    2    0    0  0.10007349428E+02 -0.19124155454E+02  0.39537742697E+02  0.46142318054E+02  0.10000002672E+02 0.  0.
         12    1    1    2    0    0 -0.10007349428E+02  0.19124155454E+02 -0.39537742697E+02  0.45045681946E+02  0.00000000000E+00 0. -1.
         11    1    3    3    0    0  0.70454856757E+00  0.71534951634E+00  0.22113355486E+01  0.24286042873E+01  0.51100000000E-03 0. -1.
        -11    1    3    3    0    0 -0.14696050070E+00  0.14414800993E-01 -0.18267731675E+00  0.23489665478E+00  0.51100000000E-03 0.  1.
        -12    1    3    3    0    0  0.94497613608E+01 -0.19853919771E+02  0.37509084465E+02  0.43478817112E+02  0.00000000000E+00 0.  1.
</event>
<event>
 7    1  0.2250716E-008  0.4614233E+02  0.7816164E-02  0.1320468E+00
        -11   -1    0    0    0    0  0.00000000000E+00  0.00000000000E+00  0.45593999997E+02  0.45594000000E+02  0.51100000000E-03 0. -1.
         11   -1    0    0    0    0 -0.00000000000E+00 -0.00000000000E+00 -0.45593999997E+02  0.45594000000E+02  0.51100000000E-03 0.  1.
    9900012    2    1    2    0    0 -0.11669865124E+02 -0.19431194556E+02 -0.38927567677E+02  0.46142327631E+02  0.10000090005E+02 0.  0.
         12    1    1    2    0    0  0.11669865124E+02  0.19431194556E+02  0.38927567677E+02  0.45045672369E+02  0.00000000000E+00 0. -1.
         11    1    3    3    0    0 -0.21827413935E+01 -0.66609546496E+01 -0.73368423569E+01  0.10147015959E+02  0.51100000000E-03 0. -1.
        -11    1    3    3    0    0 -0.43024047218E+01 -0.37502305128E+01 -0.55839346905E+01  0.79846879825E+01  0.51100000000E-03 0.  1.
         12    1    3    3    0    0 -0.51847190086E+01 -0.90200093937E+01 -0.26006790630E+02  0.28010623690E+02  0.00000000000E+00 0. -1.
</event>
<event>
 7    1  0.2250716E-008  0.4614232E+02  0.7816164E-02  0.1320468E+00
        -11   -1    0    0    0    0  0.00000000000E+00  0.00000000000E+00  0.45593999997E+02  0.45594000000E+02  0.51100000000E-03 0.  1.
         11   -1    0    0    0    0 -0.00000000000E+00 -0.00000000000E+00 -0.45593999997E+02  0.45594000000E+02  0.51100000000E-03 0. -1.
    9900012    2    1    2    0    0 -0.34559485331E+02  0.56597273895E+01  0.28332366855E+02  0.46142317054E+02  0.99999935504E+01 0.  0.
         12    1    1    2    0    0  0.34559485331E+02 -0.56597273895E+01 -0.28332366855E+02  0.45045682946E+02  0.00000000000E+00 0. -1.
         11    1    3    3    0    0 -0.11743377019E+01  0.70554647853E+00  0.33794661136E-01  0.13704040323E+01  0.51100000000E-03 0. -1.
        -11    1    3    3    0    0 -0.28197375707E+02  0.11146086781E+01  0.23628316385E+02  0.36805321418E+02  0.51100000000E-03 0.  1.
        -12    1    3    3    0    0 -0.51877719220E+01  0.38395722329E+01  0.46702558098E+01  0.79665916034E+01  0.00000000000E+00 0.  1.
</event>
<event>
 7    1  0.2931483E-008  0.4614232E+02  0.7816164E-02  0.1320468E+00
        -11   -1    0    0    0    0  0.00000000000E+00  0.00000000000E+00  0.45593999997E+02  0.45594000000E+02  0.51100000000E-03 0. -1.
         11   -1    0    0    0    0 -0.00000000000E+00 -0.00000000000E+00 -0.45593999997E+02  0.45594000000E+02  0.51100000000E-03 0.  1.
    9900012    2    1    2    0    0  0.11601364816E+02  0.15654073304E+02 -0.40613689788E+02  0.46142317912E+02  0.10000001377E+02 0.  0.
         12    1    1    2    0    0 -0.11601364816E+02 -0.15654073304E+02  0.40613689788E+02  0.45045682088E+02  0.00000000000E+00 0. -1.
         11    1    3    3    0    0  0.69671964984E-01 -0.18479108061E+00  0.16351798282E+00  0.25639874805E+00  0.51100000000E-03 0. -1.
        -11    1    3    3    0    0  0.64907730669E+01  0.10655923396E+02 -0.17364999849E+02  0.21382751424E+02  0.51100000000E-03 0.  1.
        -12    1    3    3    0    0  0.50409197840E+01  0.51829409885E+01 -0.23412207922E+02  0.24503167741E+02  0.00000000000E+00 0.  1.
</event>
<event>
 7    1  0.2250716E-008  0.4614232E+02  0.7816164E-02  0.1320468E+00
        -11   -1    0    0    0    0  0.00000000000E+00  0.00000000000E+00  0.45593999997E+02  0.45594000000E+02  0.51100000000E-03 0. -1.
         11   -1    0    0    0    0 -0.00000000000E+00 -0.00000000000E+00 -0.45593999997E+02  0.45594000000E+02  0.51100000000E-03 0.  1.
    9900012    2    1    2    0    0 -0.19280474617E+02  0.27508479297E+02 -0.30011004438E+02  0.46142317387E+02  0.99999965910E+01 0.  0.
         12    1    1    2    0    0  0.19280474617E+02 -0.27508479297E+02  0.30011004438E+02  0.45045682613E+02  0.00000000000E+00 0. -1.
         11    1    3    3    0    0  0.44692368333E+00  0.10396378471E+01 -0.25714791506E+01  0.28094648805E+01  0.51100000000E-03 0. -1.
        -11    1    3    3    0    0 -0.19222852390E+02  0.24197447586E+02 -0.26835564511E+02  0.40928987852E+02  0.51100000000E-03 0.  1.
        -12    1    3    3    0    0 -0.50454590971E+00  0.22713938636E+01 -0.60396077628E+00  0.24038646547E+01  0.00000000000E+00 0.  1.
</event>
<event>
 7    1  0.2250716E-008  0.4614232E+02  0.7816164E-02  0.1320468E+00
        -11   -1    0    0    0    0  0.00000000000E+00  0.00000000000E+00  0.45593999997E+02  0.45594000000E+02  0.51100000000E-03 0.  1.
         11   -1    0    0    0    0 -0.00000000000E+00 -0.00000000000E+00 -0.45593999997E+02  0.45594000000E+02  0.51100000000E-03 0. -1.
    9900012    2    1    2    0    0  0.42264600728E+02 -0.12257840488E+02  0.96209315367E+01  0.46142318167E+02  0.10000003706E+02 0.  0.
         12    1    1    2    0    0 -0.42264600728E+02  0.12257840488E+02 -0.96209315367E+01  0.45045681833E+02  0.00000000000E+00 0. -1.
         11    1    3    3    0    0  0.97542336928E+00  0.78136531998E+00  0.15229994716E+00  0.12590385410E+01  0.51100000000E-03 0. -1.
        -11    1    3    3    0    0  0.29175358115E+01  0.39995286328E+00  0.19633709081E+01  0.35393224053E+01  0.51100000000E-03 0.  1.
         12    1    3    3    0    0  0.38371641547E+02 -0.13439158672E+02  0.75052606814E+01  0.41343957221E+02  0.00000000000E+00 0. -1.
</event>
<event>
 7    1  0.2250716E-008  0.4614232E+02  0.7816164E-02  0.1320468E+00
        -11   -1    0    0    0    0  0.00000000000E+00  0.00000000000E+00  0.45593999997E+02  0.45594000000E+02  0.51100000000E-03 0. -1.
         11   -1    0    0    0    0 -0.00000000000E+00 -0.00000000000E+00 -0.45593999997E+02  0.45594000000E+02  0.51100000000E-03 0.  1.
    9900012    2    1    2    0    0  0.74011974581E+01 -0.38501807553E+01 -0.44266374231E+02  0.46142317596E+02  0.99999984961E+01 0.  0.
         12    1    1    2    0    0 -0.74011974581E+01  0.38501807553E+01  0.44266374231E+02  0.45045682404E+02  0.00000000000E+00 0. -1.
         11    1    3    3    0    0  0.29822563905E+00 -0.20155848665E+01 -0.31043649998E+01  0.37133008496E+01  0.51100000000E-03 0. -1.
        -11    1    3    3    0    0  0.60747409334E+01  0.76947709075E+00 -0.36347249565E+02  0.36859423810E+02  0.51100000000E-03 0.  1.
         12    1    3    3    0    0  0.10282308856E+01 -0.26040729795E+01 -0.48147596663E+01  0.55695929367E+01  0.00000000000E+00 0. -1.
</event>
<event>
 7    1  0.2250716E-008  0.4614232E+02  0.7816164E-02  0.1320468E+00
        -11   -1    0    0    0    0  0.00000000000E+00  0.00000000000E+00  0.45593999997E+02  0.45594000000E+02  0.51100000000E-03 0. -1.
         11   -1    0    0    0    0 -0.00000000000E+00 -0.00000000000E+00 -0.45593999997E+02  0.45594000000E+02  0.51100000000E-03 0.  1.
    9900012    2    1    2    0    0  0.94232462819E+01 -0.11267708136E+02 -0.42583502424E+02  0.46142317679E+02  0.99999992495E+01 0.  0.
         12    1    1    2    0    0 -0.94232462819E+01  0.11267708136E+02  0.42583502424E+02  0.45045682321E+02  0.00000000000E+00 0. -1.
         11    1    3    3    0    0 -0.12211475890E+01  0.47105664572E+00 -0.42036117908E+01  0.44026637558E+01  0.51100000000E-03 0. -1.
        -11    1    3    3    0    0  0.42525974259E+01 -0.56660389577E+01 -0.22339456046E+02  0.23435867362E+02  0.51100000000E-03 0.  1.
         12    1    3    3    0    0  0.63917964450E+01 -0.60727258236E+01 -0.16040434587E+02  0.18303786561E+02  0.00000000000E+00 0. -1.
</event>
<event>
 7    1  0.2250716E-008  0.4614232E+02  0.7816164E-02  0.1320468E+00
        -11   -1    0    0    0    0  0.00000000000E+00  0.00000000000E+00  0.45593999997E+02  0.45594000000E+02  0.51100000000E-03 0. -1.
         11   -1    0    0    0    0 -0.00000000000E+00 -0.00000000000E+00 -0.45593999997E+02  0.45594000000E+02  0.51100000000E-03 0.  1.
    9900012    2    1    2    0    0  0.40736507839E+02  0.19159500870E+02 -0.16011119950E+01  0.46142322026E+02  0.10000038889E+02 0.  0.
         12    1    1    2    0    0 -0.40736507839E+02 -0.19159500870E+02  0.16011119950E+01  0.45045677974E+02  0.00000000000E+00 0. -1.
         11    1    3    3    0    0  0.34297808233E+01  0.43261590988E+01  0.29753383565E-01  0.55208635710E+01  0.51100000000E-03 0. -1.
        -11    1    3    3    0    0  0.11567104196E+02  0.37925228684E+01  0.21447871185E+01  0.12360470915E+02  0.51100000000E-03 0.  1.
        -12    1    3    3    0    0  0.25739622820E+02  0.11040818903E+02 -0.37756524971E+01  0.28260987540E+02  0.00000000000E+00 0.  1.
</event>
<event>
 7    1  0.2250716E-008  0.4614232E+02  0.7816164E-02  0.1320468E+00
        -11   -1    0    0    0    0  0.00000000000E+00  0.00000000000E+00  0.45593999997E+02  0.45594000000E+02  0.51100000000E-03 0.  1.
         11   -1    0    0    0    0 -0.00000000000E+00 -0.00000000000E+00 -0.45593999997E+02  0.45594000000E+02  0.51100000000E-03 0. -1.
    9900012    2    1    2    0    0  0.21377033405E+02 -0.14275839453E+02  0.36991030277E+02  0.46142317962E+02  0.10000001834E+02 0.  0.
         12    1    1    2    0    0 -0.21377033405E+02  0.14275839453E+02 -0.36991030277E+02  0.45045682038E+02  0.00000000000E+00 0. -1.
         11    1    3    3    0    0  0.53391010143E+01 -0.53583154567E+01  0.77760854741E+01  0.10848274044E+02  0.51100000000E-03 0. -1.
        -11    1    3    3    0    0  0.69954930964E+01 -0.35366292680E+01  0.62224056925E+01  0.10008146837E+02  0.51100000000E-03 0.  1.
         12    1    3    3    0    0  0.90424392942E+01 -0.53808947285E+01  0.22992539110E+02  0.25285897081E+02  0.00000000000E+00 0. -1.
</event>
<event>
 7    1  0.2250716E-008  0.4614232E+02  0.7816164E-02  0.1320468E+00
        -11   -1    0    0    0    0  0.00000000000E+00  0.00000000000E+00  0.45593999997E+02  0.45594000000E+02  0.51100000000E-03 0.  1.
         11   -1    0    0    0    0 -0.00000000000E+00 -0.00000000000E+00 -0.45593999997E+02  0.45594000000E+02  0.51100000000E-03 0. -1.
    9900012    2    1    2    0    0 -0.51187479517E+01 -0.29636326744E+02  0.33535057209E+02  0.46142317570E+02  0.99999982618E+01 0.  0.
         12    1    1    2    0    0  0.51187479517E+01  0.29636326744E+02 -0.33535057209E+02  0.45045682430E+02  0.00000000000E+00 0. -1.
         11    1    3    3    0    0  0.43716226067E+00 -0.82409463337E+01  0.55274322167E+01  0.99326136786E+01  0.51100000000E-03 0. -1.
        -11    1    3    3    0    0 -0.36434808643E+01 -0.16131826612E+02  0.16245732349E+02  0.23182635796E+02  0.51100000000E-03 0.  1.
         12    1    3    3    0    0 -0.19124293480E+01 -0.52635537991E+01  0.11761892644E+02  0.13027068096E+02  0.00000000000E+00 0. -1.
</event>
<event>
 7    1  0.2250716E-008  0.4614232E+02  0.7816164E-02  0.1320468E+00
        -11   -1    0    0    0    0  0.00000000000E+00  0.00000000000E+00  0.45593999997E+02  0.45594000000E+02  0.51100000000E-03 0.  1.
         11   -1    0    0    0    0 -0.00000000000E+00 -0.00000000000E+00 -0.45593999997E+02  0.45594000000E+02  0.51100000000E-03 0. -1.
    9900012    2    1    2    0    0 -0.61488894124E+01  0.25558288768E+01  0.44550784151E+02  0.46142317957E+02  0.10000001787E+02 0.  0.
         12    1    1    2    0    0  0.61488894124E+01 -0.25558288768E+01 -0.44550784151E+02  0.45045682043E+02  0.00000000000E+00 0. -1.
         11    1    3    3    0    0  0.86932518876E+00  0.26487842405E+01  0.21463661665E+02  0.21643949652E+02  0.51100000000E-03 0. -1.
        -11    1    3    3    0    0 -0.35409936674E+01  0.19529386635E+01  0.13614911895E+02  0.14202761413E+02  0.51100000000E-03 0.  1.
         12    1    3    3    0    0 -0.34772209338E+01 -0.20458940272E+01  0.94722105912E+01  0.10295606892E+02  0.00000000000E+00 0. -1.
</event>
<event>
 7    1  0.2250716E-008  0.4614232E+02  0.7816164E-02  0.1320468E+00
        -11   -1    0    0    0    0  0.00000000000E+00  0.00000000000E+00  0.45593999997E+02  0.45594000000E+02  0.51100000000E-03 0.  1.
         11   -1    0    0    0    0 -0.00000000000E+00 -0.00000000000E+00 -0.45593999997E+02  0.45594000000E+02  0.51100000000E-03 0. -1.
    9900012    2    1    2    0    0  0.32542250130E+02 -0.12514110625E+02  0.28522140441E+02  0.46142317592E+02  0.99999984618E+01 0.  0.
         12    1    1    2    0    0 -0.32542250130E+02  0.12514110625E+02 -0.28522140441E+02  0.45045682408E+02  0.00000000000E+00 0. -1.
         11    1    3    3    0    0  0.11431571571E+02 -0.29060752450E+01  0.15037079306E+02  0.19111249468E+02  0.51100000000E-03 0. -1.
        -11    1    3    3    0    0  0.91849217004E+01 -0.24629358245E+01  0.49981694865E+01  0.10742929675E+02  0.51100000000E-03 0.  1.
         12    1    3    3    0    0  0.11925756858E+02 -0.71450995559E+01  0.84868916476E+01  0.16288138449E+02  0.00000000000E+00 0. -1.
</event>
<event>
 7    1  0.2250716E-008  0.4614232E+02  0.7816164E-02  0.1320468E+00
        -11   -1    0    0    0    0  0.00000000000E+00  0.00000000000E+00  0.45593999997E+02  0.45594000000E+02  0.51100000000E-03 0.  1.
         11   -1    0    0    0    0 -0.00000000000E+00 -0.00000000000E+00 -0.45593999997E+02  0.45594000000E+02  0.51100000000E-03 0. -1.
    9900012    2    1    2    0    0  0.16718668457E+02  0.36891075565E+02  0.19714166023E+02  0.46142315708E+02  0.99999812823E+01 0.  0.
         12    1    1    2    0    0 -0.16718668457E+02 -0.36891075565E+02 -0.19714166023E+02  0.45045684292E+02  0.00000000000E+00 0. -1.
         11    1    3    3    0    0  0.99503751300E+00  0.10312826744E+02  0.34267686954E+01  0.10912709977E+02  0.51100000000E-03 0. -1.
        -11    1    3    3    0    0  0.10571778025E+01  0.27171683089E+00  0.30653155551E+00  0.11337622317E+01  0.51100000000E-03 0.  1.
        -12    1    3    3    0    0  0.14666453141E+02  0.26306531990E+02  0.15980865772E+02  0.34095843499E+02  0.00000000000E+00 0.  1.
</event>
<event>
 7    1  0.2250716E-008  0.4614232E+02  0.7816164E-02  0.1320468E+00
        -11   -1    0    0    0    0  0.00000000000E+00  0.00000000000E+00  0.45593999997E+02  0.45594000000E+02  0.51100000000E-03 0.  1.
         11   -1    0    0    0    0 -0.00000000000E+00 -0.00000000000E+00 -0.45593999997E+02  0.45594000000E+02  0.51100000000E-03 0. -1.
    9900012    2    1    2    0    0  0.34731356978E+02 -0.11772602053E+02  0.26158202727E+02  0.46142324441E+02  0.10000060916E+02 0.  0.
         12    1    1    2    0    0 -0.34731356978E+02  0.11772602053E+02 -0.26158202727E+02  0.45045675559E+02  0.00000000000E+00 0. -1.
         11    1    3    3    0    0  0.27122969171E+02 -0.51275264886E+01  0.19934620994E+02  0.34049024935E+02  0.51100000000E-03 0.  1.
        -11    1    3    3    0    0  0.72902242179E+01 -0.60064202856E+01  0.50272839577E+01  0.10700375603E+02  0.51100000000E-03 0. -1.
        -12    1    3    3    0    0  0.31816358867E+00 -0.63865527841E+00  0.11962977754E+01  0.13929239036E+01  0.00000000000E+00 0.  1.
</event>
<event>
 7    1  0.2250716E-008  0.4614232E+02  0.7816164E-02  0.1320468E+00
        -11   -1    0    0    0    0  0.00000000000E+00  0.00000000000E+00  0.45593999997E+02  0.45594000000E+02  0.51100000000E-03 0. -1.
         11   -1    0    0    0    0 -0.00000000000E+00 -0.00000000000E+00 -0.45593999997E+02  0.45594000000E+02  0.51100000000E-03 0.  1.
    9900012    2    1    2    0    0 -0.23961272211E+02 -0.25127663340E+02 -0.28697933974E+02  0.46142318240E+02  0.10000004365E+02 0.  0.
         12    1    1    2    0    0  0.23961272211E+02  0.25127663340E+02  0.28697933974E+02  0.45045681760E+02  0.00000000000E+00 0. -1.
         11    1    3    3    0    0 -0.62799941156E+01 -0.32785382378E+01 -0.26798506426E+01  0.75742153915E+01  0.51100000000E-03 0. -1.
        -11    1    3    3    0    0 -0.11501841348E+02 -0.12585577573E+02 -0.13020933108E+02  0.21453060772E+02  0.51100000000E-03 0.  1.
         12    1    3    3    0    0 -0.61794367473E+01 -0.92635475287E+01 -0.12997150223E+02  0.17115042076E+02  0.00000000000E+00 0. -1.
</event>
<event>
 7    1  0.2250716E-008  0.4614232E+02  0.7816164E-02  0.1320468E+00
        -11   -1    0    0    0    0  0.00000000000E+00  0.00000000000E+00  0.45593999997E+02  0.45594000000E+02  0.51100000000E-03 0. -1.
         11   -1    0    0    0    0 -0.00000000000E+00 -0.00000000000E+00 -0.45593999997E+02  0.45594000000E+02  0.51100000000E-03 0.  1.
    9900012    2    1    2    0    0  0.30995883692E+02  0.14998590239E+02 -0.29041538531E+02  0.46142317906E+02  0.10000001324E+02 0.  0.
         12    1    1    2    0    0 -0.30995883692E+02 -0.14998590239E+02  0.29041538531E+02  0.45045682094E+02  0.00000000000E+00 0. -1.
         11    1    3    3    0    0  0.22640162807E+01  0.28011886660E+01 -0.26211232014E+01  0.44545162207E+01  0.51100000000E-03 0. -1.
        -11    1    3    3    0    0  0.24028822895E+02  0.11536765930E+02 -0.25423149152E+02  0.36835007953E+02  0.51100000000E-03 0.  1.
        -12    1    3    3    0    0  0.47030445169E+01  0.66063564323E+00 -0.99726617717E+00  0.48527937324E+01  0.00000000000E+00 0.  1.
</event>
<event>
 7    1  0.2250716E-008  0.4614232E+02  0.7816164E-02  0.1320468E+00
        -11   -1    0    0    0    0  0.00000000000E+00  0.00000000000E+00  0.45593999997E+02  0.45594000000E+02  0.51100000000E-03 0.  1.
         11   -1    0    0    0    0 -0.00000000000E+00 -0.00000000000E+00 -0.45593999997E+02  0.45594000000E+02  0.51100000000E-03 0. -1.
    9900012    2    1    2    0    0  0.25137566943E+02 -0.10946385054E+02  0.35740632833E+02  0.46142318155E+02  0.10000003595E+02 0.  0.
         12    1    1    2    0    0 -0.25137566943E+02  0.10946385054E+02 -0.35740632833E+02  0.45045681845E+02  0.00000000000E+00 0. -1.
         11    1    3    3    0    0  0.41151158625E+00  0.73340584739E+00  0.21372830229E+00  0.86770154484E+00  0.51100000000E-03 0. -1.
        -11    1    3    3    0    0  0.15746607551E+01 -0.12091472788E+01  0.58272953526E+00  0.20690982596E+01  0.51100000000E-03 0.  1.
        -12    1    3    3    0    0  0.23151394601E+02 -0.10470643623E+02  0.34944174995E+02  0.43205518351E+02  0.00000000000E+00 0.  1.
</event>
<event>
 7    1  0.2250716E-008  0.4614233E+02  0.7816164E-02  0.1320468E+00
        -11   -1    0    0    0    0  0.00000000000E+00  0.00000000000E+00  0.45593999997E+02  0.45594000000E+02  0.51100000000E-03 0.  1.
         11   -1    0    0    0    0 -0.00000000000E+00 -0.00000000000E+00 -0.45593999997E+02  0.45594000000E+02  0.51100000000E-03 0. -1.
    9900012    2    1    2    0    0  0.19255477072E+02 -0.31995354087E+02  0.25191995629E+02  0.46142326244E+02  0.10000077349E+02 0.  0.
         12    1    1    2    0    0 -0.19255477072E+02  0.31995354087E+02 -0.25191995629E+02  0.45045673756E+02  0.00000000000E+00 0. -1.
         11    1    3    3    0    0  0.24612402352E+01 -0.45500585251E+01  0.61257331611E+01  0.80178141098E+01  0.51100000000E-03 0.  1.
        -11    1    3    3    0    0  0.30225587224E+01 -0.73694037031E+01  0.83033942730E+01  0.11506099638E+02  0.51100000000E-03 0. -1.
        -12    1    3    3    0    0  0.13771678114E+02 -0.20075891858E+02  0.10762868195E+02  0.26618412495E+02  0.00000000000E+00 0.  1.
</event>
<event>
 7    1  0.2250716E-008  0.4614232E+02  0.7816164E-02  0.1320468E+00
        -11   -1    0    0    0    0  0.00000000000E+00  0.00000000000E+00  0.45593999997E+02  0.45594000000E+02  0.51100000000E-03 0.  1.
         11   -1    0    0    0    0 -0.00000000000E+00 -0.00000000000E+00 -0.45593999997E+02  0.45594000000E+02  0.51100000000E-03 0. -1.
    9900012    2    1    2    0    0 -0.18705957291E+02 -0.31818604902E+02  0.25822026471E+02  0.46142317553E+02  0.99999981015E+01 0.  0.
         12    1    1    2    0    0  0.18705957291E+02  0.31818604902E+02 -0.25822026471E+02  0.45045682447E+02  0.00000000000E+00 0. -1.
         11    1    3    3    0    0 -0.10636890389E+02 -0.10249944696E+02  0.77546986611E+01  0.16683529453E+02  0.51100000000E-03 0. -1.
        -11    1    3    3    0    0 -0.60026530328E+01 -0.16023442668E+02  0.11487816747E+02  0.20609524309E+02  0.51100000000E-03 0.  1.
         12    1    3    3    0    0 -0.20664138693E+01 -0.55452175375E+01  0.65795110630E+01  0.88492637911E+01  0.00000000000E+00 0. -1.
</event>
<event>
 7    1  0.2250716E-008  0.4614232E+02  0.7816164E-02  0.1320468E+00
        -11   -1    0    0    0    0  0.00000000000E+00  0.00000000000E+00  0.45593999997E+02  0.45594000000E+02  0.51100000000E-03 0. -1.
         11   -1    0    0    0    0 -0.00000000000E+00 -0.00000000000E+00 -0.45593999997E+02  0.45594000000E+02  0.51100000000E-03 0.  1.
    9900012    2    1    2    0    0 -0.30092283830E+02 -0.21703864301E+02 -0.25544279444E+02  0.46142317809E+02  0.10000000440E+02 0.  0.
         12    1    1    2    0    0  0.30092283830E+02  0.21703864301E+02  0.25544279444E+02  0.45045682191E+02  0.00000000000E+00 0. -1.
         11    1    3    3    0    0 -0.45304767369E+01 -0.65932940495E+01 -0.58298495155E+01  0.98986813021E+01  0.51100000000E-03 0. -1.
        -11    1    3    3    0    0 -0.19094804570E+02 -0.14227277582E+02 -0.14410134913E+02  0.27833055481E+02  0.51100000000E-03 0.  1.
        -12    1    3    3    0    0 -0.64670025234E+01 -0.88329266917E+00 -0.53042950161E+01  0.84105810260E+01  0.00000000000E+00 0.  1.
</event>
<event>
 7    1  0.2250716E-008  0.4614231E+02  0.7816164E-02  0.1320468E+00
        -11   -1    0    0    0    0  0.00000000000E+00  0.00000000000E+00  0.45593999997E+02  0.45594000000E+02  0.51100000000E-03 0.  1.
         11   -1    0    0    0    0 -0.00000000000E+00 -0.00000000000E+00 -0.45593999997E+02  0.45594000000E+02  0.51100000000E-03 0. -1.
    9900012    2    1    2    0    0  0.41150544966E+02 -0.17909774536E+02  0.38712663253E+01  0.46142311217E+02  0.99999403299E+01 0.  0.
         12    1    1    2    0    0 -0.41150544966E+02  0.17909774536E+02 -0.38712663253E+01  0.45045688783E+02  0.00000000000E+00 0. -1.
         11    1    3    3    0    0  0.86831216353E+01 -0.40640883119E+01  0.43572213450E+01  0.10530849598E+02  0.51100000000E-03 0. -1.
        -11    1    3    3    0    0  0.13900976204E+01 -0.89407806577E+00  0.96165503959E+00  0.19122049205E+01  0.51100000000E-03 0.  1.
        -12    1    3    3    0    0  0.31077325710E+02 -0.12951608158E+02 -0.14476100593E+01  0.33699256699E+02  0.00000000000E+00 0.  1.
</event>
<event>
 7    1  0.2488443E-008  0.4614232E+02  0.7816164E-02  0.1320468E+00
        -11   -1    0    0    0    0  0.00000000000E+00  0.00000000000E+00  0.45593999997E+02  0.45594000000E+02  0.51100000000E-03 0. -1.
         11   -1    0    0    0    0 -0.00000000000E+00 -0.00000000000E+00 -0.45593999997E+02  0.45594000000E+02  0.51100000000E-03 0.  1.
    9900012    2    1    2    0    0  0.77575476865E+01 -0.34558487668E+02 -0.27832445222E+02  0.46142316266E+02  0.99999863685E+01 0.  0.
         12    1    1    2    0    0 -0.77575476865E+01  0.34558487668E+02  0.27832445222E+02  0.45045683734E+02  0.00000000000E+00 0. -1.
         11    1    3    3    0    0  0.17392478661E+01 -0.24854896751E+01 -0.53226335153E+01  0.61264239050E+01  0.51100000000E-03 0. -1.
        -11    1    3    3    0    0  0.11368353075E+01 -0.38034150204E+01 -0.50838350770E+01  0.64500960989E+01  0.51100000000E-03 0.  1.
        -12    1    3    3    0    0  0.48814645129E+01 -0.28269582972E+02 -0.17425976630E+02  0.33565796262E+02  0.00000000000E+00 0.  1.
</event>
<event>
 7    1  0.2250716E-008  0.4614232E+02  0.7816164E-02  0.1320468E+00
        -11   -1    0    0    0    0  0.00000000000E+00  0.00000000000E+00  0.45593999997E+02  0.45594000000E+02  0.51100000000E-03 0.  1.
         11   -1    0    0    0    0 -0.00000000000E+00 -0.00000000000E+00 -0.45593999997E+02  0.45594000000E+02  0.51100000000E-03 0. -1.
    9900012    2    1    2    0    0  0.29282201309E+02 -0.27661106923E+02  0.20162571369E+02  0.46142318365E+02  0.10000005509E+02 0.  0.
         12    1    1    2    0    0 -0.29282201309E+02  0.27661106923E+02 -0.20162571369E+02  0.45045681635E+02  0.00000000000E+00 0. -1.
         11    1    3    3    0    0  0.48461685597E+01 -0.65618885622E+01  0.11558077875E+01  0.82389090974E+01  0.51100000000E-03 0. -1.
        -11    1    3    3    0    0  0.54219220606E+00 -0.31289862993E+00  0.17032673426E+01  0.18146619086E+01  0.51100000000E-03 0.  1.
        -12    1    3    3    0    0  0.23893840544E+02 -0.20786319730E+02  0.17303496239E+02  0.36088747359E+02  0.00000000000E+00 0.  1.
</event>
<event>
 7    1  0.2250716E-008  0.4614232E+02  0.7816164E-02  0.1320468E+00
        -11   -1    0    0    0    0  0.00000000000E+00  0.00000000000E+00  0.45593999997E+02  0.45594000000E+02  0.51100000000E-03 0. -1.
         11   -1    0    0    0    0 -0.00000000000E+00 -0.00000000000E+00 -0.45593999997E+02  0.45594000000E+02  0.51100000000E-03 0.  1.
    9900012    2    1    2    0    0 -0.20658855230E+02  0.60243341434E+01 -0.39573130917E+02  0.46142316612E+02  0.99999895246E+01 0.  0.
         12    1    1    2    0    0  0.20658855230E+02 -0.60243341434E+01  0.39573130917E+02  0.45045683388E+02  0.00000000000E+00 0. -1.
         11    1    3    3    0    0 -0.48528494437E+01  0.54753304060E+01 -0.15166638382E+02  0.16839130347E+02  0.51100000000E-03 0. -1.
        -11    1    3    3    0    0 -0.97399562976E+01  0.17738902814E+01 -0.16766798768E+02  0.19471491381E+02  0.51100000000E-03 0.  1.
         12    1    3    3    0    0 -0.60660494882E+01 -0.12248865440E+01 -0.76396937674E+01  0.98316948844E+01  0.00000000000E+00 0. -1.
</event>
<event>
 7    1  0.2250716E-008  0.4614232E+02  0.7816164E-02  0.1320468E+00
        -11   -1    0    0    0    0  0.00000000000E+00  0.00000000000E+00  0.45593999997E+02  0.45594000000E+02  0.51100000000E-03 0.  1.
         11   -1    0    0    0    0 -0.00000000000E+00 -0.00000000000E+00 -0.45593999997E+02  0.45594000000E+02  0.51100000000E-03 0. -1.
    9900012    2    1    2    0    0 -0.20062724374E+02 -0.36189456732E+02  0.17802353641E+02  0.46142317820E+02  0.10000000540E+02 0.  0.
         12    1    1    2    0    0  0.20062724374E+02  0.36189456732E+02 -0.17802353641E+02  0.45045682180E+02  0.00000000000E+00 0. -1.
         11    1    3    3    0    0 -0.13283291557E+02 -0.19218836834E+02  0.12757532760E+02  0.26618868613E+02  0.51100000000E-03 0.  1.
        -11    1    3    3    0    0 -0.16344337070E+01 -0.12061539078E+01 -0.39867269610E+00  0.20700533741E+01  0.51100000000E-03 0. -1.
        -12    1    3    3    0    0 -0.51449991109E+01 -0.15764465990E+02  0.54434935770E+01  0.17453395833E+02  0.00000000000E+00 0.  1.
</event>
<event>
 7    1  0.2250716E-008  0.4614232E+02  0.7816164E-02  0.1320468E+00
        -11   -1    0    0    0    0  0.00000000000E+00  0.00000000000E+00  0.45593999997E+02  0.45594000000E+02  0.51100000000E-03 0.  1.
         11   -1    0    0    0    0 -0.00000000000E+00 -0.00000000000E+00 -0.45593999997E+02  0.45594000000E+02  0.51100000000E-03 0. -1.
    9900012    2    1    2    0    0 -0.21672350254E+02  0.16571451911E+02  0.35844242829E+02  0.46142317322E+02  0.99999959948E+01 0.  0.
         12    1    1    2    0    0  0.21672350254E+02 -0.16571451911E+02 -0.35844242829E+02  0.45045682678E+02  0.00000000000E+00 0. -1.
         11    1    3    3    0    0 -0.34337748582E+01  0.17876781858E+01  0.10243659049E+02  0.10950760432E+02  0.51100000000E-03 0. -1.
        -11    1    3    3    0    0 -0.96623976385E-01  0.11678029107E+00 -0.29833671435E+00  0.33463246323E+00  0.51100000000E-03 0.  1.
        -12    1    3    3    0    0 -0.18141951419E+02  0.14666993435E+02  0.25898920494E+02  0.34856924426E+02  0.00000000000E+00 0.  1.
</event>
<event>
 7    1  0.2250716E-008  0.4614232E+02  0.7816164E-02  0.1320468E+00
        -11   -1    0    0    0    0  0.00000000000E+00  0.00000000000E+00  0.45593999997E+02  0.45594000000E+02  0.51100000000E-03 0.  1.
         11   -1    0    0    0    0 -0.00000000000E+00 -0.00000000000E+00 -0.45593999997E+02  0.45594000000E+02  0.51100000000E-03 0. -1.
    9900012    2    1    2    0    0 -0.43964477348E+02 -0.75519675984E+01  0.62614867365E+01  0.46142315421E+02  0.99999786576E+01 0.  0.
         12    1    1    2    0    0  0.43964477348E+02  0.75519675984E+01 -0.62614867365E+01  0.45045684579E+02  0.00000000000E+00 0. -1.
         11    1    3    3    0    0 -0.34393566585E+02 -0.88338672763E+01  0.34786869435E+01  0.35679908865E+02  0.51100000000E-03 0.  1.
        -11    1    3    3    0    0 -0.10481957668E+01 -0.34491070575E+00 -0.46557725274E+00  0.11976811762E+01  0.51100000000E-03 0. -1.
         12    1    3    3    0    0 -0.85227149963E+01  0.16268103837E+01  0.32483770457E+01  0.92647253799E+01  0.00000000000E+00 0. -1.
</event>
<event>
 7    1  0.2250716E-008  0.4614232E+02  0.7816164E-02  0.1320468E+00
        -11   -1    0    0    0    0  0.00000000000E+00  0.00000000000E+00  0.45593999997E+02  0.45594000000E+02  0.51100000000E-03 0.  1.
         11   -1    0    0    0    0 -0.00000000000E+00 -0.00000000000E+00 -0.45593999997E+02  0.45594000000E+02  0.51100000000E-03 0. -1.
    9900012    2    1    2    0    0  0.34472842306E+02  0.12744951310E+02  0.26044248141E+02  0.46142317612E+02  0.99999986407E+01 0.  0.
         12    1    1    2    0    0 -0.34472842306E+02 -0.12744951310E+02 -0.26044248141E+02  0.45045682388E+02  0.00000000000E+00 0. -1.
         11    1    3    3    0    0  0.60816892863E+01  0.19505838886E+01  0.14476633574E+01  0.65488511618E+01  0.51100000000E-03 0. -1.
        -11    1    3    3    0    0  0.24251754112E+02  0.10049073065E+02  0.18219863765E+02  0.31954575304E+02  0.51100000000E-03 0.  1.
         12    1    3    3    0    0  0.41393989078E+01  0.74529435609E+00  0.63767210184E+01  0.76388911460E+01  0.00000000000E+00 0. -1.
</event>
<event>
 7    1  0.2250716E-008  0.4614232E+02  0.7816164E-02  0.1320468E+00
        -11   -1    0    0    0    0  0.00000000000E+00  0.00000000000E+00  0.45593999997E+02  0.45594000000E+02  0.51100000000E-03 0.  1.
         11   -1    0    0    0    0 -0.00000000000E+00 -0.00000000000E+00 -0.45593999997E+02  0.45594000000E+02  0.51100000000E-03 0. -1.
    9900012    2    1    2    0    0 -0.33433110970E+02 -0.22124086491E+02  0.20539366783E+02  0.46142315412E+02  0.99999785755E+01 0.  0.
         12    1    1    2    0    0  0.33433110970E+02  0.22124086491E+02 -0.20539366783E+02  0.45045684588E+02  0.00000000000E+00 0. -1.
         11    1    3    3    0    0 -0.10851398377E+02 -0.80164344767E+01  0.70234460582E+01  0.15210025091E+02  0.51100000000E-03 0. -1.
        -11    1    3    3    0    0 -0.10775601420E+02 -0.66862814219E+01  0.19817703037E+01  0.12835394774E+02  0.51100000000E-03 0.  1.
         12    1    3    3    0    0 -0.11806111173E+02 -0.74213705921E+01  0.11534150422E+02  0.18096895547E+02  0.00000000000E+00 0. -1.
</event>
<event>
 7    1  0.2250716E-008  0.4614232E+02  0.7816164E-02  0.1320468E+00
        -11   -1    0    0    0    0  0.00000000000E+00  0.00000000000E+00  0.45593999997E+02  0.45594000000E+02  0.51100000000E-03 0.  1.
         11   -1    0    0    0    0 -0.00000000000E+00 -0.00000000000E+00 -0.45593999997E+02  0.45594000000E+02  0.51100000000E-03 0. -1.
    9900012    2    1    2    0    0  0.39882707373E+02 -0.43351433016E+00  0.20935503242E+02  0.46142316765E+02  0.99999909198E+01 0.  0.
         12    1    1    2    0    0 -0.39882707373E+02  0.43351433016E+00 -0.20935503242E+02  0.45045683235E+02  0.00000000000E+00 0. -1.
         11    1    3    3    0    0  0.25227310593E+01  0.48701370398E+00  0.20619944007E+01  0.32944158079E+01  0.51100000000E-03 0. -1.
        -11    1    3    3    0    0  0.18325525662E+01 -0.18917454795E+01  0.27918503668E+01  0.38381478084E+01  0.51100000000E-03 0.  1.
        -12    1    3    3    0    0  0.35527423747E+02  0.97121744533E+00  0.16081658475E+02  0.39009753149E+02  0.00000000000E+00 0.  1.
</event>
<event>
 7    1  0.2250716E-008  0.4614232E+02  0.7816164E-02  0.1320468E+00
        -11   -1    0    0    0    0  0.00000000000E+00  0.00000000000E+00  0.45593999997E+02  0.45594000000E+02  0.51100000000E-03 0. -1.
         11   -1    0    0    0    0 -0.00000000000E+00 -0.00000000000E+00 -0.45593999997E+02  0.45594000000E+02  0.51100000000E-03 0.  1.
    9900012    2    1    2    0    0  0.37503319398E+02 -0.23497999827E+02 -0.83939578091E+01  0.46142317750E+02  0.99999998962E+01 0.  0.
         12    1    1    2    0    0 -0.37503319398E+02  0.23497999827E+02  0.83939578091E+01  0.45045682250E+02  0.00000000000E+00 0. -1.
         11    1    3    3    0    0  0.25703222915E+02 -0.14528805374E+02 -0.30336766428E+01  0.29680718456E+02  0.51100000000E-03 0. -1.
        -11    1    3    3    0    0  0.67821501526E+01 -0.31004073387E+01 -0.44563865768E+01  0.86873164983E+01  0.51100000000E-03 0.  1.
        -12    1    3    3    0    0  0.50179463300E+01 -0.58687871137E+01 -0.90389458941E+00  0.77742827956E+01  0.00000000000E+00 0.  1.
</event>
<event>
 7    1  0.2250716E-008  0.4614232E+02  0.7816164E-02  0.1320468E+00
        -11   -1    0    0    0    0  0.00000000000E+00  0.00000000000E+00  0.45593999997E+02  0.45594000000E+02  0.51100000000E-03 0.  1.
         11   -1    0    0    0    0 -0.00000000000E+00 -0.00000000000E+00 -0.45593999997E+02  0.45594000000E+02  0.51100000000E-03 0. -1.
    9900012    2    1    2    0    0 -0.10950810392E+02 -0.57685253037E+01  0.43311863104E+02  0.46142316323E+02  0.99999868859E+01 0.  0.
         12    1    1    2    0    0  0.10950810392E+02  0.57685253037E+01 -0.43311863104E+02  0.45045683677E+02  0.00000000000E+00 0. -1.
         11    1    3    3    0    0 -0.97632710446E+00 -0.34431965518E+01  0.18045573328E+02  0.18397052321E+02  0.51100000000E-03 0. -1.
        -11    1    3    3    0    0 -0.55573947129E+01 -0.33794484045E+01  0.18375742835E+02  0.19492902106E+02  0.51100000000E-03 0.  1.
         12    1    3    3    0    0 -0.44170885747E+01  0.10541196526E+01  0.68905469404E+01  0.82523618956E+01  0.00000000000E+00 0. -1.
</event>
<event>
 7    1  0.2250716E-008  0.4614232E+02  0.7816164E-02  0.1320468E+00
        -11   -1    0    0    0    0  0.00000000000E+00  0.00000000000E+00  0.45593999997E+02  0.45594000000E+02  0.51100000000E-03 0. -1.
         11   -1    0    0    0    0 -0.00000000000E+00 -0.00000000000E+00 -0.45593999997E+02  0.45594000000E+02  0.51100000000E-03 0.  1.
    9900012    2    1    2    0    0  0.39300711800E+02  0.20101067820E+02  0.89729859684E+01  0.46142319267E+02  0.10000013732E+02 0.  0.
         12    1    1    2    0    0 -0.39300711800E+02 -0.20101067820E+02 -0.89729859684E+01  0.45045680733E+02  0.00000000000E+00 0. -1.
         11    1    3    3    0    0  0.13123523561E+02  0.12061159535E+02  0.25429237267E+01  0.18004580010E+02  0.51100000000E-03 0. -1.
        -11    1    3    3    0    0  0.76573039745E+01  0.20384162429E+01  0.17416948817E+01  0.81131341823E+01  0.51100000000E-03 0.  1.
         12    1    3    3    0    0  0.18519884265E+02  0.60014920419E+01  0.46883673600E+01  0.20024605075E+02  0.00000000000E+00 0. -1.
</event>
<event>
 7    1  0.2250716E-008  0.4614232E+02  0.7816164E-02  0.1320468E+00
        -11   -1    0    0    0    0  0.00000000000E+00  0.00000000000E+00  0.45593999997E+02  0.45594000000E+02  0.51100000000E-03 0.  1.
         11   -1    0    0    0    0 -0.00000000000E+00 -0.00000000000E+00 -0.45593999997E+02  0.45594000000E+02  0.51100000000E-03 0. -1.
    9900012    2    1    2    0    0 -0.11053005124E+02  0.43307099614E+02 -0.56071078318E+01  0.46142318104E+02  0.10000003128E+02 0.  0.
         12    1    1    2    0    0  0.11053005124E+02 -0.43307099614E+02  0.56071078318E+01  0.45045681896E+02  0.00000000000E+00 0. -1.
         11    1    3    3    0    0 -0.88280314472E+01  0.22207860037E+02 -0.66329518668E+01  0.24801597477E+02  0.51100000000E-03 0. -1.
        -11    1    3    3    0    0 -0.23278052196E+01  0.12757547516E+02  0.86175714967E+00  0.12996781194E+02  0.51100000000E-03 0.  1.
         12    1    3    3    0    0  0.10283154275E+00  0.83416920608E+01  0.16408688538E+00  0.83439394335E+01  0.00000000000E+00 0. -1.
</event>
<event>
 7    1  0.2250716E-008  0.4614232E+02  0.7816164E-02  0.1320468E+00
        -11   -1    0    0    0    0  0.00000000000E+00  0.00000000000E+00  0.45593999997E+02  0.45594000000E+02  0.51100000000E-03 0.  1.
         11   -1    0    0    0    0 -0.00000000000E+00 -0.00000000000E+00 -0.45593999997E+02  0.45594000000E+02  0.51100000000E-03 0. -1.
    9900012    2    1    2    0    0 -0.20467572770E+02 -0.40027367024E+02 -0.28287282521E+01  0.46142319303E+02  0.10000014059E+02 0.  0.
         12    1    1    2    0    0  0.20467572770E+02  0.40027367024E+02  0.28287282521E+01  0.45045680697E+02  0.00000000000E+00 0. -1.
         11    1    3    3    0    0  0.92951781037E+00 -0.34479462196E+01 -0.47830749723E+00  0.36029314199E+01  0.51100000000E-03 0. -1.
        -11    1    3    3    0    0 -0.48531871963E+00 -0.12723928018E+01 -0.53783086855E+00  0.14641652933E+01  0.51100000000E-03 0.  1.
        -12    1    3    3    0    0 -0.20911771861E+02 -0.35307028002E+02 -0.18125898863E+01  0.41075222590E+02  0.00000000000E+00 0.  1.
</event>
<event>
 7    1  0.2250716E-008  0.4614232E+02  0.7816164E-02  0.1320468E+00
        -11   -1    0    0    0    0  0.00000000000E+00  0.00000000000E+00  0.45593999997E+02  0.45594000000E+02  0.51100000000E-03 0. -1.
         11   -1    0    0    0    0 -0.00000000000E+00 -0.00000000000E+00 -0.45593999997E+02  0.45594000000E+02  0.51100000000E-03 0.  1.
    9900012    2    1    2    0    0 -0.34172193881E+02 -0.25153906742E+02  0.15121363911E+02  0.46142317571E+02  0.99999982669E+01 0.  0.
         12    1    1    2    0    0  0.34172193881E+02  0.25153906742E+02 -0.15121363911E+02  0.45045682429E+02  0.00000000000E+00 0. -1.
         11    1    3    3    0    0 -0.10170866726E+02 -0.43098230368E+01  0.47698228025E+01  0.12032136735E+02  0.51100000000E-03 0. -1.
        -11    1    3    3    0    0 -0.17943140483E+02 -0.12861511656E+02  0.95607265854E+01  0.24057894038E+02  0.51100000000E-03 0.  1.
         12    1    3    3    0    0 -0.60581866716E+01 -0.79825720487E+01  0.79081452263E+00  0.10052286798E+02  0.00000000000E+00 0. -1.
</event>
<event>
 7    1  0.2250716E-008  0.4614232E+02  0.7816164E-02  0.1320468E+00
        -11   -1    0    0    0    0  0.00000000000E+00  0.00000000000E+00  0.45593999997E+02  0.45594000000E+02  0.51100000000E-03 0.  1.
         11   -1    0    0    0    0 -0.00000000000E+00 -0.00000000000E+00 -0.45593999997E+02  0.45594000000E+02  0.51100000000E-03 0. -1.
    9900012    2    1    2    0    0  0.93708368281E+01 -0.33725922025E+02  0.28352480259E+02  0.46142317231E+02  0.99999951674E+01 0.  0.
         12    1    1    2    0    0 -0.93708368281E+01  0.33725922025E+02 -0.28352480259E+02  0.45045682769E+02  0.00000000000E+00 0. -1.
         11    1    3    3    0    0 -0.86805249236E-01 -0.13860121511E+02  0.11850525334E+02  0.18235828865E+02  0.51100000000E-03 0.  1.
        -11    1    3    3    0    0  0.18525078843E+01 -0.24735257916E+01  0.44625938353E+01  0.54281543183E+01  0.51100000000E-03 0. -1.
        -12    1    3    3    0    0  0.76051341930E+01 -0.17392274723E+02  0.12039361089E+02  0.22478334048E+02  0.00000000000E+00 0.  1.
</event>
<event>
 7    1  0.2250716E-008  0.4614232E+02  0.7816164E-02  0.1320468E+00
        -11   -1    0    0    0    0  0.00000000000E+00  0.00000000000E+00  0.45593999997E+02  0.45594000000E+02  0.51100000000E-03 0.  1.
         11   -1    0    0    0    0 -0.00000000000E+00 -0.00000000000E+00 -0.45593999997E+02  0.45594000000E+02  0.51100000000E-03 0. -1.
    9900012    2    1    2    0    0 -0.96849146331E+01 -0.35076883377E+02  0.26550476316E+02  0.46142321944E+02  0.10000038146E+02 0.  0.
         12    1    1    2    0    0  0.96849146331E+01  0.35076883377E+02 -0.26550476316E+02  0.45045678056E+02  0.00000000000E+00 0. -1.
         11    1    3    3    0    0  0.30667323604E-01 -0.60674432041E+00 -0.10113693577E+00  0.61587993634E+00  0.51100000000E-03 0. -1.
        -11    1    3    3    0    0 -0.69826028633E+01 -0.18214285141E+02  0.19421426792E+02  0.27526509856E+02  0.51100000000E-03 0.  1.
        -12    1    3    3    0    0 -0.27329790934E+01 -0.16255853915E+02  0.72301864598E+01  0.17999932152E+02  0.00000000000E+00 0.  1.
</event>
<event>
 7    1  0.2250716E-008  0.4614232E+02  0.7816164E-02  0.1320468E+00
        -11   -1    0    0    0    0  0.00000000000E+00  0.00000000000E+00  0.45593999997E+02  0.45594000000E+02  0.51100000000E-03 0.  1.
         11   -1    0    0    0    0 -0.00000000000E+00 -0.00000000000E+00 -0.45593999997E+02  0.45594000000E+02  0.51100000000E-03 0. -1.
    9900012    2    1    2    0    0  0.38497650568E+02  0.21466746813E+02 -0.92856437078E+01  0.46142317665E+02  0.99999991196E+01 0.  0.
         12    1    1    2    0    0 -0.38497650568E+02 -0.21466746813E+02  0.92856437078E+01  0.45045682335E+02  0.00000000000E+00 0. -1.
         11    1    3    3    0    0  0.14482265114E+02  0.73299846052E+01 -0.57161576489E+01  0.17208693608E+02  0.51100000000E-03 0. -1.
        -11    1    3    3    0    0  0.99142215141E+01  0.64975883240E+01  0.18668699020E+01  0.11999818572E+02  0.51100000000E-03 0.  1.
        -12    1    3    3    0    0  0.14101163940E+02  0.76391738834E+01 -0.54363559610E+01  0.16933805485E+02  0.00000000000E+00 0.  1.
</event>
<event>
 7    1  0.2250716E-008  0.4614232E+02  0.7816164E-02  0.1320468E+00
        -11   -1    0    0    0    0  0.00000000000E+00  0.00000000000E+00  0.45593999997E+02  0.45594000000E+02  0.51100000000E-03 0.  1.
         11   -1    0    0    0    0 -0.00000000000E+00 -0.00000000000E+00 -0.45593999997E+02  0.45594000000E+02  0.51100000000E-03 0. -1.
    9900012    2    1    2    0    0  0.29658586156E+02 -0.11524766822E+02  0.31885129941E+02  0.46142317694E+02  0.99999993884E+01 0.  0.
         12    1    1    2    0    0 -0.29658586156E+02  0.11524766822E+02 -0.31885129941E+02  0.45045682306E+02  0.00000000000E+00 0. -1.
         11    1    3    3    0    0  0.32581284505E+01 -0.91286019861E+00  0.67902401227E+01  0.75865720802E+01  0.51100000000E-03 0. -1.
        -11    1    3    3    0    0  0.10424560926E+02 -0.30094285574E+01  0.55325040987E+01  0.12179356822E+02  0.51100000000E-03 0.  1.
         12    1    3    3    0    0  0.15975896779E+02 -0.76024780659E+01  0.19562385720E+02  0.26376388792E+02  0.00000000000E+00 0. -1.
</event>
<event>
 7    1  0.2250716E-008  0.4614232E+02  0.7816164E-02  0.1320468E+00
        -11   -1    0    0    0    0  0.00000000000E+00  0.00000000000E+00  0.45593999997E+02  0.45594000000E+02  0.51100000000E-03 0.  1.
         11   -1    0    0    0    0 -0.00000000000E+00 -0.00000000000E+00 -0.45593999997E+02  0.45594000000E+02  0.51100000000E-03 0. -1.
    9900012    2    1    2    0    0  0.20543293516E+02 -0.40074346087E+02  0.10646015467E+01  0.46142317640E+02  0.99999988989E+01 0.  0.
         12    1    1    2    0    0 -0.20543293516E+02  0.40074346087E+02 -0.10646015467E+01  0.45045682360E+02  0.00000000000E+00 0. -1.
         11    1    3    3    0    0  0.74809901027E-01 -0.74456777274E+00  0.13687805012E+01  0.15599801317E+01  0.51100000000E-03 0. -1.
        -11    1    3    3    0    0  0.14584141882E+02 -0.24605821820E+02  0.13827494669E+01  0.28636613944E+02  0.51100000000E-03 0.  1.
         12    1    3    3    0    0  0.58843417329E+01 -0.14723956495E+02 -0.16869284214E+01  0.15945723564E+02  0.00000000000E+00 0. -1.
</event>
<event>
 7    1  0.2250716E-008  0.4614232E+02  0.7816164E-02  0.1320468E+00
        -11   -1    0    0    0    0  0.00000000000E+00  0.00000000000E+00  0.45593999997E+02  0.45594000000E+02  0.51100000000E-03 0.  1.
         11   -1    0    0    0    0 -0.00000000000E+00 -0.00000000000E+00 -0.45593999997E+02  0.45594000000E+02  0.51100000000E-03 0. -1.
    9900012    2    1    2    0    0 -0.10578472203E+02 -0.86710576274E+01  0.42918786318E+02  0.46142317259E+02  0.99999954247E+01 0.  0.
         12    1    1    2    0    0  0.10578472203E+02  0.86710576274E+01 -0.42918786318E+02  0.45045682741E+02  0.00000000000E+00 0. -1.
         11    1    3    3    0    0 -0.50004850530E+01 -0.73192053066E+01  0.18696048065E+02  0.20691008448E+02  0.51100000000E-03 0. -1.
        -11    1    3    3    0    0 -0.26883707784E+01 -0.13368577272E+01  0.20598160705E+02  0.20815829331E+02  0.51100000000E-03 0.  1.
         12    1    3    3    0    0 -0.28896163717E+01 -0.14994593506E-01  0.36245775482E+01  0.46354794807E+01  0.00000000000E+00 0. -1.
</event>
<event>
 7    1  0.2250716E-008  0.4614232E+02  0.7816164E-02  0.1320468E+00
        -11   -1    0    0    0    0  0.00000000000E+00  0.00000000000E+00  0.45593999997E+02  0.45594000000E+02  0.51100000000E-03 0.  1.
         11   -1    0    0    0    0 -0.00000000000E+00 -0.00000000000E+00 -0.45593999997E+02  0.45594000000E+02  0.51100000000E-03 0. -1.
    9900012    2    1    2    0    0 -0.20877704194E+02  0.34157067097E+02  0.20652597646E+02  0.46142317026E+02  0.99999932950E+01 0.  0.
         12    1    1    2    0    0  0.20877704194E+02 -0.34157067097E+02 -0.20652597646E+02  0.45045682974E+02  0.00000000000E+00 0. -1.
         11    1    3    3    0    0 -0.19031751444E+01  0.88001614317E+01  0.45583547466E+01  0.10091754808E+02  0.51100000000E-03 0. -1.
        -11    1    3    3    0    0 -0.20499912401E+01  0.61276081784E+01  0.48283782377E+01  0.80661814224E+01  0.51100000000E-03 0.  1.
         12    1    3    3    0    0 -0.16924537809E+02  0.19229297487E+02  0.11265864662E+02  0.27984380795E+02  0.00000000000E+00 0. -1.
</event>
<event>
 7    1  0.2250716E-008  0.4614232E+02  0.7816164E-02  0.1320468E+00
        -11   -1    0    0    0    0  0.00000000000E+00  0.00000000000E+00  0.45593999997E+02  0.45594000000E+02  0.51100000000E-03 0.  1.
         11   -1    0    0    0    0 -0.00000000000E+00 -0.00000000000E+00 -0.45593999997E+02  0.45594000000E+02  0.51100000000E-03 0. -1.
    9900012    2    1    2    0    0  0.21306423853E+02  0.39566170202E+02  0.31093482277E+01  0.46142316874E+02  0.99999919138E+01 0.  0.
         12    1    1    2    0    0 -0.21306423853E+02 -0.39566170202E+02 -0.31093482277E+01  0.45045683126E+02  0.00000000000E+00 0. -1.
         11    1    3    3    0    0  0.48243399779E+01  0.14411613910E+02  0.30897363913E+01  0.15508557088E+02  0.51100000000E-03 0. -1.
        -11    1    3    3    0    0  0.46103035680E+01  0.48917087409E+01  0.21384988544E+01  0.70538564633E+01  0.51100000000E-03 0.  1.
         12    1    3    3    0    0  0.11871780307E+02  0.20262847551E+02 -0.21188870180E+01  0.23579903323E+02  0.00000000000E+00 0. -1.
</event>
<event>
 7    1  0.2250716E-008  0.4614232E+02  0.7816164E-02  0.1320468E+00
        -11   -1    0    0    0    0  0.00000000000E+00  0.00000000000E+00  0.45593999997E+02  0.45594000000E+02  0.51100000000E-03 0. -1.
         11   -1    0    0    0    0 -0.00000000000E+00 -0.00000000000E+00 -0.45593999997E+02  0.45594000000E+02  0.51100000000E-03 0.  1.
    9900012    2    1    2    0    0  0.26815568630E+02  0.35110734860E+02  0.87906272970E+01  0.46142317059E+02  0.99999935938E+01 0.  0.
         12    1    1    2    0    0 -0.26815568630E+02 -0.35110734860E+02 -0.87906272970E+01  0.45045682941E+02  0.00000000000E+00 0. -1.
         11    1    3    3    0    0  0.12105242928E+02  0.18663451179E+02  0.23775420878E+01  0.22372170724E+02  0.51100000000E-03 0. -1.
        -11    1    3    3    0    0  0.12074593984E+02  0.14164258357E+02  0.75747119223E+01  0.20094733033E+02  0.51100000000E-03 0.  1.
         12    1    3    3    0    0  0.26357317178E+01  0.22830253236E+01 -0.11616267130E+01  0.36754133015E+01  0.00000000000E+00 0. -1.
</event>
<event>
 7    1  0.2250716E-008  0.4614231E+02  0.7816164E-02  0.1320468E+00
        -11   -1    0    0    0    0  0.00000000000E+00  0.00000000000E+00  0.45593999997E+02  0.45594000000E+02  0.51100000000E-03 0. -1.
         11   -1    0    0    0    0 -0.00000000000E+00 -0.00000000000E+00 -0.45593999997E+02  0.45594000000E+02  0.51100000000E-03 0.  1.
    9900012    2    1    2    0    0 -0.23571052947E+02  0.30448377011E+02 -0.23375533134E+02  0.46142314869E+02  0.99999736244E+01 0.  0.
         12    1    1    2    0    0  0.23571052947E+02 -0.30448377011E+02  0.23375533134E+02  0.45045685131E+02  0.00000000000E+00 0. -1.
         11    1    3    3    0    0 -0.53138580955E+00  0.14036816119E+01 -0.11363786816E+01  0.18825646643E+01  0.51100000000E-03 0. -1.
        -11    1    3    3    0    0 -0.16025588021E+02  0.22440265078E+02 -0.20752533175E+02  0.34511629948E+02  0.51100000000E-03 0.  1.
         12    1    3    3    0    0 -0.70140791167E+01  0.66044303207E+01 -0.14866212777E+01  0.97481202567E+01  0.00000000000E+00 0. -1.
</event>
<event>
 7    1  0.2250716E-008  0.4614232E+02  0.7816164E-02  0.1320468E+00
        -11   -1    0    0    0    0  0.00000000000E+00  0.00000000000E+00  0.45593999997E+02  0.45594000000E+02  0.51100000000E-03 0.  1.
         11   -1    0    0    0    0 -0.00000000000E+00 -0.00000000000E+00 -0.45593999997E+02  0.45594000000E+02  0.51100000000E-03 0. -1.
    9900012    2    1    2    0    0 -0.26397203333E+02 -0.40444048732E+01  0.36275944787E+02  0.46142315137E+02  0.99999760753E+01 0.  0.
         12    1    1    2    0    0  0.26397203333E+02  0.40444048732E+01 -0.36275944787E+02  0.45045684863E+02  0.00000000000E+00 0. -1.
         11    1    3    3    0    0 -0.72733936961E+01 -0.44910097312E+01  0.13021580027E+02  0.15576680357E+02  0.51100000000E-03 0. -1.
        -11    1    3    3    0    0 -0.11849620391E+02 -0.26357322011E+00  0.18048478918E+02  0.21592372861E+02  0.51100000000E-03 0.  1.
         12    1    3    3    0    0 -0.72741892461E+01  0.71017807814E+00  0.52058858410E+01  0.89732619197E+01  0.00000000000E+00 0. -1.
</event>
<event>
 7    1  0.2250716E-008  0.4614232E+02  0.7816164E-02  0.1320468E+00
        -11   -1    0    0    0    0  0.00000000000E+00  0.00000000000E+00  0.45593999997E+02  0.45594000000E+02  0.51100000000E-03 0.  1.
         11   -1    0    0    0    0 -0.00000000000E+00 -0.00000000000E+00 -0.45593999997E+02  0.45594000000E+02  0.51100000000E-03 0. -1.
    9900012    2    1    2    0    0  0.17335842626E+01  0.31978683189E+02  0.31677625749E+02  0.46142318009E+02  0.10000002264E+02 0.  0.
         12    1    1    2    0    0 -0.17335842626E+01 -0.31978683189E+02 -0.31677625749E+02  0.45045681991E+02  0.00000000000E+00 0. -1.
         11    1    3    3    0    0 -0.12398641276E+01  0.20616410760E+01  0.14366914935E+01  0.28020902358E+01  0.51100000000E-03 0. -1.
        -11    1    3    3    0    0 -0.25976818377E+01  0.11302426571E+02  0.12033154896E+02  0.16711960218E+02  0.51100000000E-03 0.  1.
         12    1    3    3    0    0  0.55711302280E+01  0.18614615542E+02  0.18207779359E+02  0.26628267555E+02  0.00000000000E+00 0. -1.
</event>
<event>
 7    1  0.2250716E-008  0.4614232E+02  0.7816164E-02  0.1320468E+00
        -11   -1    0    0    0    0  0.00000000000E+00  0.00000000000E+00  0.45593999997E+02  0.45594000000E+02  0.51100000000E-03 0.  1.
         11   -1    0    0    0    0 -0.00000000000E+00 -0.00000000000E+00 -0.45593999997E+02  0.45594000000E+02  0.51100000000E-03 0. -1.
    9900012    2    1    2    0    0  0.38490661571E+02 -0.16252305204E+02  0.16835829244E+02  0.46142316534E+02  0.99999888095E+01 0.  0.
         12    1    1    2    0    0 -0.38490661571E+02  0.16252305204E+02 -0.16835829244E+02  0.45045683466E+02  0.00000000000E+00 0. -1.
         11    1    3    3    0    0  0.54180986098E+01 -0.52526707631E+01  0.41943669763E+01  0.86336004821E+01  0.51100000000E-03 0. -1.
        -11    1    3    3    0    0  0.87244817626E+01 -0.33743189510E+01  0.61060791077E+01  0.11170801795E+02  0.51100000000E-03 0.  1.
         12    1    3    3    0    0  0.24348081198E+02 -0.76253154903E+01  0.65353831595E+01  0.26337914257E+02  0.00000000000E+00 0. -1.
</event>
<event>
 7    1  0.2250716E-008  0.4614232E+02  0.7816164E-02  0.1320468E+00
        -11   -1    0    0    0    0  0.00000000000E+00  0.00000000000E+00  0.45593999997E+02  0.45594000000E+02  0.51100000000E-03 0.  1.
         11   -1    0    0    0    0 -0.00000000000E+00 -0.00000000000E+00 -0.45593999997E+02  0.45594000000E+02  0.51100000000E-03 0. -1.
    9900012    2    1    2    0    0  0.93142878947E+00  0.44999650860E+02 -0.18103406052E+01  0.46142317963E+02  0.10000001839E+02 0.  0.
         12    1    1    2    0    0 -0.93142878947E+00 -0.44999650860E+02  0.18103406052E+01  0.45045682037E+02  0.00000000000E+00 0. -1.
         11    1    3    3    0    0  0.46209371535E+01  0.18555524824E+02 -0.21224984281E+00  0.19123430966E+02  0.51100000000E-03 0. -1.
        -11    1    3    3    0    0 -0.19045107411E+01  0.11859682089E+02 -0.26060514296E+01  0.12291083139E+02  0.51100000000E-03 0.  1.
         12    1    3    3    0    0 -0.17849976230E+01  0.14584443948E+02  0.10079606672E+01  0.14727803858E+02  0.00000000000E+00 0. -1.
</event>
<event>
 7    1  0.2250716E-008  0.4614232E+02  0.7816164E-02  0.1320468E+00
        -11   -1    0    0    0    0  0.00000000000E+00  0.00000000000E+00  0.45593999997E+02  0.45594000000E+02  0.51100000000E-03 0.  1.
         11   -1    0    0    0    0 -0.00000000000E+00 -0.00000000000E+00 -0.45593999997E+02  0.45594000000E+02  0.51100000000E-03 0. -1.
    9900012    2    1    2    0    0  0.23391183208E+02 -0.24469503653E+02  0.29718840447E+02  0.46142317206E+02  0.99999949356E+01 0.  0.
         12    1    1    2    0    0 -0.23391183208E+02  0.24469503653E+02 -0.29718840447E+02  0.45045682794E+02  0.00000000000E+00 0. -1.
         11    1    3    3    0    0  0.28443635670E+01 -0.71101248270E+01  0.61372426983E+01  0.98137672357E+01  0.51100000000E-03 0. -1.
        -11    1    3    3    0    0  0.67305584601E+01 -0.94905790900E+01  0.11501326037E+02  0.16360073640E+02  0.51100000000E-03 0.  1.
         12    1    3    3    0    0  0.13816261181E+02 -0.78687997359E+01  0.12080271712E+02  0.19968476330E+02  0.00000000000E+00 0. -1.
</event>
<event>
 7    1  0.2250716E-008  0.4614232E+02  0.7816164E-02  0.1320468E+00
        -11   -1    0    0    0    0  0.00000000000E+00  0.00000000000E+00  0.45593999997E+02  0.45594000000E+02  0.51100000000E-03 0.  1.
         11   -1    0    0    0    0 -0.00000000000E+00 -0.00000000000E+00 -0.45593999997E+02  0.45594000000E+02  0.51100000000E-03 0. -1.
    9900012    2    1    2    0    0  0.37943835503E+02  0.11773118522E+02  0.21231403976E+02  0.46142317774E+02  0.10000000116E+02 0.  0.
         12    1    1    2    0    0 -0.37943835503E+02 -0.11773118522E+02 -0.21231403976E+02  0.45045682226E+02  0.00000000000E+00 0. -1.
         11    1    3    3    0    0  0.42235720264E+01  0.38164533917E+01  0.15055267558E+01  0.58881650985E+01  0.51100000000E-03 0. -1.
        -11    1    3    3    0    0  0.23481202301E+02  0.80541991804E+01  0.13254095304E+02  0.28140860479E+02  0.51100000000E-03 0.  1.
        -12    1    3    3    0    0  0.10239061176E+02 -0.97534049737E-01  0.64717819167E+01  0.12113292196E+02  0.00000000000E+00 0.  1.
</event>
<event>
 7    1  0.2250716E-008  0.4614232E+02  0.7816164E-02  0.1320468E+00
        -11   -1    0    0    0    0  0.00000000000E+00  0.00000000000E+00  0.45593999997E+02  0.45594000000E+02  0.51100000000E-03 0.  1.
         11   -1    0    0    0    0 -0.00000000000E+00 -0.00000000000E+00 -0.45593999997E+02  0.45594000000E+02  0.51100000000E-03 0. -1.
    9900012    2    1    2    0    0 -0.25298176001E+02 -0.32569962207E+02  0.18119415839E+02  0.46142318991E+02  0.10000011218E+02 0.  0.
         12    1    1    2    0    0  0.25298176001E+02  0.32569962207E+02 -0.18119415839E+02  0.45045681009E+02  0.00000000000E+00 0. -1.
         11    1    3    3    0    0 -0.57590513519E+00  0.19061948199E+00 -0.22316523586E+00  0.64637875528E+00  0.51100000000E-03 0. -1.
        -11    1    3    3    0    0 -0.13275009872E+02 -0.17942772605E+02  0.61493459597E+01  0.23151315985E+02  0.51100000000E-03 0.  1.
         12    1    3    3    0    0 -0.11447260994E+02 -0.14817809084E+02  0.12193235115E+02  0.22344624251E+02  0.00000000000E+00 0. -1.
</event>
<event>
 7    1  0.2250716E-008  0.4614232E+02  0.7816164E-02  0.1320468E+00
        -11   -1    0    0    0    0  0.00000000000E+00  0.00000000000E+00  0.45593999997E+02  0.45594000000E+02  0.51100000000E-03 0.  1.
         11   -1    0    0    0    0 -0.00000000000E+00 -0.00000000000E+00 -0.45593999997E+02  0.45594000000E+02  0.51100000000E-03 0. -1.
    9900012    2    1    2    0    0  0.10110748151E+02 -0.30002405668E+02  0.32042813506E+02  0.46142317950E+02  0.10000001720E+02 0.  0.
         12    1    1    2    0    0 -0.10110748151E+02  0.30002405668E+02 -0.32042813506E+02  0.45045682050E+02  0.00000000000E+00 0. -1.
         11    1    3    3    0    0  0.85483332977E+01 -0.17174963176E+02  0.17916710450E+02  0.26249988112E+02  0.51100000000E-03 0. -1.
        -11    1    3    3    0    0  0.22584895645E+01 -0.10963222327E+02  0.89008387096E+01  0.14300977201E+02  0.51100000000E-03 0.  1.
         12    1    3    3    0    0 -0.69607471148E+00 -0.18642201651E+01  0.52252643457E+01  0.55913526370E+01  0.00000000000E+00 0. -1.
</event>
<event>
 7    1  0.2250716E-008  0.4614231E+02  0.7816164E-02  0.1320468E+00
        -11   -1    0    0    0    0  0.00000000000E+00  0.00000000000E+00  0.45593999997E+02  0.45594000000E+02  0.51100000000E-03 0.  1.
         11   -1    0    0    0    0 -0.00000000000E+00 -0.00000000000E+00 -0.45593999997E+02  0.45594000000E+02  0.51100000000E-03 0. -1.
    9900012    2    1    2    0    0 -0.82326993474E+01  0.21191335657E+02  0.38887836297E+02  0.46142313665E+02  0.99999626491E+01 0.  0.
         12    1    1    2    0    0  0.82326993474E+01 -0.21191335657E+02 -0.38887836297E+02  0.45045686335E+02  0.00000000000E+00 0. -1.
         11    1    3    3    0    0 -0.31556650682E+00  0.44171210284E+01  0.11854306891E+02  0.12654451096E+02  0.51100000000E-03 0. -1.
        -11    1    3    3    0    0 -0.50998300127E+01  0.15365888735E+02  0.24837162247E+02  0.29647992032E+02  0.51100000000E-03 0.  1.
        -12    1    3    3    0    0 -0.28173028279E+01  0.14083258937E+01  0.21963671593E+01  0.38398705376E+01  0.00000000000E+00 0.  1.
</event>
<event>
 7    1  0.2250716E-008  0.4614232E+02  0.7816164E-02  0.1320468E+00
        -11   -1    0    0    0    0  0.00000000000E+00  0.00000000000E+00  0.45593999997E+02  0.45594000000E+02  0.51100000000E-03 0. -1.
         11   -1    0    0    0    0 -0.00000000000E+00 -0.00000000000E+00 -0.45593999997E+02  0.45594000000E+02  0.51100000000E-03 0.  1.
    9900012    2    1    2    0    0 -0.22728560773E+02 -0.19219271074E+02 -0.33810434358E+02  0.46142319553E+02  0.10000016344E+02 0.  0.
         12    1    1    2    0    0  0.22728560773E+02  0.19219271074E+02  0.33810434358E+02  0.45045680447E+02  0.00000000000E+00 0. -1.
         11    1    3    3    0    0 -0.59815749348E+01 -0.26010871461E+01 -0.10371449051E+02  0.12252014068E+02  0.51100000000E-03 0. -1.
        -11    1    3    3    0    0 -0.35126541477E+01 -0.38879273687E+00 -0.32187299168E+01  0.47801800690E+01  0.51100000000E-03 0.  1.
        -12    1    3    3    0    0 -0.13234331690E+02 -0.16229391191E+02 -0.20220255390E+02  0.29110125416E+02  0.00000000000E+00 0.  1.
</event>
<event>
 7    1  0.2250716E-008  0.4614232E+02  0.7816164E-02  0.1320468E+00
        -11   -1    0    0    0    0  0.00000000000E+00  0.00000000000E+00  0.45593999997E+02  0.45594000000E+02  0.51100000000E-03 0. -1.
         11   -1    0    0    0    0 -0.00000000000E+00 -0.00000000000E+00 -0.45593999997E+02  0.45594000000E+02  0.51100000000E-03 0.  1.
    9900012    2    1    2    0    0  0.44995850938E+02 -0.10343460978E+01  0.18485412369E+01  0.46142316764E+02  0.99999909102E+01 0.  0.
         12    1    1    2    0    0 -0.44995850938E+02  0.10343460978E+01 -0.18485412369E+01  0.45045683236E+02  0.00000000000E+00 0. -1.
         11    1    3    3    0    0  0.41185754552E+01  0.88953414067E-01 -0.12908233660E+01  0.43170362187E+01  0.51100000000E-03 0. -1.
        -11    1    3    3    0    0  0.30667294583E+02  0.28917508743E+00 -0.10804962032E+01  0.30687685667E+02  0.51100000000E-03 0.  1.
        -12    1    3    3    0    0  0.10209980900E+02 -0.14124745993E+01  0.42198608061E+01  0.11137594879E+02  0.00000000000E+00 0.  1.
</event>
<event>
 7    1  0.2250716E-008  0.4614232E+02  0.7816164E-02  0.1320468E+00
        -11   -1    0    0    0    0  0.00000000000E+00  0.00000000000E+00  0.45593999997E+02  0.45594000000E+02  0.51100000000E-03 0.  1.
         11   -1    0    0    0    0 -0.00000000000E+00 -0.00000000000E+00 -0.45593999997E+02  0.45594000000E+02  0.51100000000E-03 0. -1.
    9900012    2    1    2    0    0 -0.16529076907E+02  0.40403603666E+01  0.41708254441E+02  0.46142318922E+02  0.10000010583E+02 0.  0.
         12    1    1    2    0    0  0.16529076907E+02 -0.40403603666E+01 -0.41708254441E+02  0.45045681078E+02  0.00000000000E+00 0. -1.
         11    1    3    3    0    0 -0.97100906818E+01  0.49688948203E+01  0.24140076167E+02  0.26489980264E+02  0.51100000000E-03 0.  1.
        -11    1    3    3    0    0 -0.48443674703E+00 -0.16263832366E+01  0.78473435485E+01  0.80287360415E+01  0.51100000000E-03 0. -1.
         12    1    3    3    0    0 -0.63345494784E+01  0.69784878289E+00  0.97208347259E+01  0.11623602616E+02  0.00000000000E+00 0. -1.
</event>
<event>
 7    1  0.2250716E-008  0.4614232E+02  0.7816164E-02  0.1320468E+00
        -11   -1    0    0    0    0  0.00000000000E+00  0.00000000000E+00  0.45593999997E+02  0.45594000000E+02  0.51100000000E-03 0.  1.
         11   -1    0    0    0    0 -0.00000000000E+00 -0.00000000000E+00 -0.45593999997E+02  0.45594000000E+02  0.51100000000E-03 0. -1.
    9900012    2    1    2    0    0  0.15549727211E+02 -0.36794958065E+02  0.20819474696E+02  0.46142317832E+02  0.10000000650E+02 0.  0.
         12    1    1    2    0    0 -0.15549727211E+02  0.36794958065E+02 -0.20819474696E+02  0.45045682168E+02  0.00000000000E+00 0. -1.
         11    1    3    3    0    0  0.92241826953E+01 -0.26126274978E+02  0.16518289668E+02  0.32257118353E+02  0.51100000000E-03 0.  1.
        -11    1    3    3    0    0  0.34974487022E+01 -0.94395602001E+01  0.38056640266E+01  0.10761994385E+02  0.51100000000E-03 0. -1.
         12    1    3    3    0    0  0.28280958133E+01 -0.12291228875E+01  0.49552100093E+00  0.31232050948E+01  0.00000000000E+00 0. -1.
</event>
<event>
 7    1  0.2250716E-008  0.4614232E+02  0.7816164E-02  0.1320468E+00
        -11   -1    0    0    0    0  0.00000000000E+00  0.00000000000E+00  0.45593999997E+02  0.45594000000E+02  0.51100000000E-03 0.  1.
         11   -1    0    0    0    0 -0.00000000000E+00 -0.00000000000E+00 -0.45593999997E+02  0.45594000000E+02  0.51100000000E-03 0. -1.
    9900012    2    1    2    0    0  0.37840951910E+01 -0.43571559632E+02  0.10784864406E+02  0.46142317794E+02  0.10000000296E+02 0.  0.
         12    1    1    2    0    0 -0.37840951910E+01  0.43571559632E+02 -0.10784864406E+02  0.45045682206E+02  0.00000000000E+00 0. -1.
         11    1    3    3    0    0  0.40529724844E+01 -0.16078967334E+02  0.55375378131E+01  0.17482108048E+02  0.51100000000E-03 0.  1.
        -11    1    3    3    0    0  0.23992116765E+01 -0.14391139155E+02  0.96852387811E+00  0.14621872028E+02  0.51100000000E-03 0. -1.
        -12    1    3    3    0    0 -0.26680889699E+01 -0.13101453143E+02  0.42788027147E+01  0.14038337717E+02  0.00000000000E+00 0.  1.
</event>
<event>
 7    1  0.2250716E-008  0.4614232E+02  0.7816164E-02  0.1320468E+00
        -11   -1    0    0    0    0  0.00000000000E+00  0.00000000000E+00  0.45593999997E+02  0.45594000000E+02  0.51100000000E-03 0. -1.
         11   -1    0    0    0    0 -0.00000000000E+00 -0.00000000000E+00 -0.45593999997E+02  0.45594000000E+02  0.51100000000E-03 0.  1.
    9900012    2    1    2    0    0  0.28370615149E+01 -0.22179990996E+02 -0.39103863180E+02  0.46142322802E+02  0.10000045968E+02 0.  0.
         12    1    1    2    0    0 -0.28370615149E+01  0.22179990996E+02  0.39103863180E+02  0.45045677198E+02  0.00000000000E+00 0. -1.
         11    1    3    3    0    0  0.31662268550E+01 -0.12667013815E+02 -0.14744709519E+02  0.19694788411E+02  0.51100000000E-03 0. -1.
        -11    1    3    3    0    0 -0.12593870077E+00 -0.21217136051E+01 -0.10763024339E+02  0.10970880656E+02  0.51100000000E-03 0.  1.
         12    1    3    3    0    0 -0.20322663936E+00 -0.73912635756E+01 -0.13596129321E+02  0.15476653735E+02  0.00000000000E+00 0. -1.
</event>
<event>
 7    1  0.2250716E-008  0.4614232E+02  0.7816164E-02  0.1320468E+00
        -11   -1    0    0    0    0  0.00000000000E+00  0.00000000000E+00  0.45593999997E+02  0.45594000000E+02  0.51100000000E-03 0.  1.
         11   -1    0    0    0    0 -0.00000000000E+00 -0.00000000000E+00 -0.45593999997E+02  0.45594000000E+02  0.51100000000E-03 0. -1.
    9900012    2    1    2    0    0 -0.99060302831E+01  0.20161053858E+02  0.39045052269E+02  0.46142316130E+02  0.99999851238E+01 0.  0.
         12    1    1    2    0    0  0.99060302831E+01 -0.20161053858E+02 -0.39045052269E+02  0.45045683870E+02  0.00000000000E+00 0. -1.
         11    1    3    3    0    0 -0.58841369632E-01  0.63746591571E+01  0.60181437777E+01  0.87668578445E+01  0.51100000000E-03 0. -1.
        -11    1    3    3    0    0 -0.16147901008E+01  0.58084312352E+01  0.11788272367E+02  0.13240422431E+02  0.51100000000E-03 0.  1.
        -12    1    3    3    0    0 -0.82323988127E+01  0.79779634661E+01  0.21238636124E+02  0.24135035855E+02  0.00000000000E+00 0.  1.
</event>
<event>
 7    1  0.2250716E-008  0.4614232E+02  0.7816164E-02  0.1320468E+00
        -11   -1    0    0    0    0  0.00000000000E+00  0.00000000000E+00  0.45593999997E+02  0.45594000000E+02  0.51100000000E-03 0.  1.
         11   -1    0    0    0    0 -0.00000000000E+00 -0.00000000000E+00 -0.45593999997E+02  0.45594000000E+02  0.51100000000E-03 0. -1.
    9900012    2    1    2    0    0  0.44989795740E+02 -0.12982547450E+01 -0.18292871574E+01  0.46142317881E+02  0.10000001090E+02 0.  0.
         12    1    1    2    0    0 -0.44989795740E+02  0.12982547450E+01  0.18292871574E+01  0.45045682119E+02  0.00000000000E+00 0. -1.
         11    1    3    3    0    0 -0.16613331409E+00 -0.35012112410E-01  0.66817455790E+00  0.68940817156E+00  0.51100000000E-03 0. -1.
        -11    1    3    3    0    0  0.23882158969E+02  0.14942036485E+01 -0.10288229611E+01  0.23950963206E+02  0.51100000000E-03 0.  1.
        -12    1    3    3    0    0  0.21273770085E+02 -0.27574462811E+01 -0.14686387542E+01  0.21501946503E+02  0.00000000000E+00 0.  1.
</event>
<event>
 7    1  0.2250716E-008  0.4614232E+02  0.7816164E-02  0.1320468E+00
        -11   -1    0    0    0    0  0.00000000000E+00  0.00000000000E+00  0.45593999997E+02  0.45594000000E+02  0.51100000000E-03 0.  1.
         11   -1    0    0    0    0 -0.00000000000E+00 -0.00000000000E+00 -0.45593999997E+02  0.45594000000E+02  0.51100000000E-03 0. -1.
    9900012    2    1    2    0    0 -0.15704480021E+02 -0.41404161373E+02 -0.82569953352E+01  0.46142320477E+02  0.10000024762E+02 0.  0.
         12    1    1    2    0    0  0.15704480021E+02  0.41404161373E+02  0.82569953352E+01  0.45045679523E+02  0.00000000000E+00 0. -1.
         11    1    3    3    0    0 -0.40805422886E+01 -0.56996290168E+01  0.19036726724E+00  0.70123345796E+01  0.51100000000E-03 0. -1.
        -11    1    3    3    0    0 -0.39542158633E+01 -0.90362232967E+01  0.76071365261E+00  0.98928176009E+01  0.51100000000E-03 0.  1.
        -12    1    3    3    0    0 -0.76697218688E+01 -0.26668309060E+02 -0.92080762550E+01  0.29237168296E+02  0.00000000000E+00 0.  1.
</event>
<event>
 7    1  0.2250716E-008  0.4614232E+02  0.7816164E-02  0.1320468E+00
        -11   -1    0    0    0    0  0.00000000000E+00  0.00000000000E+00  0.45593999997E+02  0.45594000000E+02  0.51100000000E-03 0.  1.
         11   -1    0    0    0    0 -0.00000000000E+00 -0.00000000000E+00 -0.45593999997E+02  0.45594000000E+02  0.51100000000E-03 0. -1.
    9900012    2    1    2    0    0 -0.31208828669E+02 -0.86627606616E+01  0.31306214840E+02  0.46142317668E+02  0.99999991467E+01 0.  0.
         12    1    1    2    0    0  0.31208828669E+02  0.86627606616E+01 -0.31306214840E+02  0.45045682332E+02  0.00000000000E+00 0. -1.
         11    1    3    3    0    0 -0.10601285564E+02 -0.30755912512E+01  0.15685689251E+02  0.19180390107E+02  0.51100000000E-03 0. -1.
        -11    1    3    3    0    0 -0.29063632760E+01 -0.27366329240E+01  0.36047211711E+01  0.53786729065E+01  0.51100000000E-03 0.  1.
         12    1    3    3    0    0 -0.17701179830E+02 -0.28505364865E+01  0.12015804418E+02  0.21583254654E+02  0.00000000000E+00 0. -1.
</event>
<event>
 7    1  0.2250716E-008  0.4614232E+02  0.7816164E-02  0.1320468E+00
        -11   -1    0    0    0    0  0.00000000000E+00  0.00000000000E+00  0.45593999997E+02  0.45594000000E+02  0.51100000000E-03 0.  1.
         11   -1    0    0    0    0 -0.00000000000E+00 -0.00000000000E+00 -0.45593999997E+02  0.45594000000E+02  0.51100000000E-03 0. -1.
    9900012    2    1    2    0    0 -0.25072041227E+02  0.24006949780E+01  0.37346256677E+02  0.46142317905E+02  0.10000001310E+02 0.  0.
         12    1    1    2    0    0  0.25072041227E+02 -0.24006949780E+01 -0.37346256677E+02  0.45045682095E+02  0.00000000000E+00 0. -1.
         11    1    3    3    0    0 -0.16433532929E-03 -0.48814489644E+00  0.22440701709E+01  0.22965488586E+01  0.51100000000E-03 0. -1.
        -11    1    3    3    0    0 -0.16444604956E+02  0.49019685405E+01  0.25931135702E+02  0.31094663960E+02  0.51100000000E-03 0.  1.
         12    1    3    3    0    0 -0.86272719350E+01 -0.20131286661E+01  0.91710508042E+01  0.12751105086E+02  0.00000000000E+00 0. -1.
</event>
<event>
 7    1  0.2250716E-008  0.4614232E+02  0.7816164E-02  0.1320468E+00
        -11   -1    0    0    0    0  0.00000000000E+00  0.00000000000E+00  0.45593999997E+02  0.45594000000E+02  0.51100000000E-03 0. -1.
         11   -1    0    0    0    0 -0.00000000000E+00 -0.00000000000E+00 -0.45593999997E+02  0.45594000000E+02  0.51100000000E-03 0.  1.
    9900012    2    1    2    0    0 -0.32771219151E+02  0.28092528245E+02 -0.12882953579E+02  0.46142318289E+02  0.10000004816E+02 0.  0.
         12    1    1    2    0    0  0.32771219151E+02 -0.28092528245E+02  0.12882953579E+02  0.45045681711E+02  0.00000000000E+00 0. -1.
         11    1    3    3    0    0 -0.16688313921E+01  0.22055883739E+01  0.14112364938E+01  0.31050293063E+01  0.51100000000E-03 0. -1.
        -11    1    3    3    0    0 -0.43624516424E+01  0.51085476578E+01 -0.27654639814E+01  0.72647116115E+01  0.51100000000E-03 0.  1.
        -12    1    3    3    0    0 -0.26739936117E+02  0.20778392214E+02 -0.11528726092E+02  0.35772577371E+02  0.00000000000E+00 0.  1.
</event>
<event>
 7    1  0.2250716E-008  0.4614232E+02  0.7816164E-02  0.1320468E+00
        -11   -1    0    0    0    0  0.00000000000E+00  0.00000000000E+00  0.45593999997E+02  0.45594000000E+02  0.51100000000E-03 0.  1.
         11   -1    0    0    0    0 -0.00000000000E+00 -0.00000000000E+00 -0.45593999997E+02  0.45594000000E+02  0.51100000000E-03 0. -1.
    9900012    2    1    2    0    0  0.47528373536E+01 -0.11094665831E+02  0.43398529002E+02  0.46142318827E+02  0.10000009719E+02 0.  0.
         12    1    1    2    0    0 -0.47528373536E+01  0.11094665831E+02 -0.43398529002E+02  0.45045681173E+02  0.00000000000E+00 0. -1.
         11    1    3    3    0    0 -0.27213911699E+00  0.11359059019E+01  0.13244942455E+01  0.17659635286E+01  0.51100000000E-03 0. -1.
        -11    1    3    3    0    0  0.25398272932E+01 -0.10652215246E+02  0.35959866751E+02  0.37590323613E+02  0.51100000000E-03 0.  1.
        -12    1    3    3    0    0  0.24851491774E+01 -0.15783564865E+01  0.61141680053E+01  0.67860316849E+01  0.00000000000E+00 0.  1.
</event>
<event>
 7    1  0.2250716E-008  0.4614232E+02  0.7816164E-02  0.1320468E+00
        -11   -1    0    0    0    0  0.00000000000E+00  0.00000000000E+00  0.45593999997E+02  0.45594000000E+02  0.51100000000E-03 0.  1.
         11   -1    0    0    0    0 -0.00000000000E+00 -0.00000000000E+00 -0.45593999997E+02  0.45594000000E+02  0.51100000000E-03 0. -1.
    9900012    2    1    2    0    0  0.20303467049E+02  0.40206244142E+02  0.58346622809E+00  0.46142320128E+02  0.10000021586E+02 0.  0.
         12    1    1    2    0    0 -0.20303467049E+02 -0.40206244142E+02 -0.58346622809E+00  0.45045679872E+02  0.00000000000E+00 0. -1.
         11    1    3    3    0    0  0.72200740716E+01  0.16686931938E+02 -0.41928715786E+00  0.18186780063E+02  0.51100000000E-03 0.  1.
        -11    1    3    3    0    0  0.10815972318E+02  0.12650433490E+02  0.21985602887E+01  0.16788460092E+02  0.51100000000E-03 0. -1.
         12    1    3    3    0    0  0.22674206595E+01  0.10868878715E+02 -0.11958069028E+01  0.11167079972E+02  0.00000000000E+00 0. -1.
</event>
<event>
 7    1  0.2250716E-008  0.4614232E+02  0.7816164E-02  0.1320468E+00
        -11   -1    0    0    0    0  0.00000000000E+00  0.00000000000E+00  0.45593999997E+02  0.45594000000E+02  0.51100000000E-03 0.  1.
         11   -1    0    0    0    0 -0.00000000000E+00 -0.00000000000E+00 -0.45593999997E+02  0.45594000000E+02  0.51100000000E-03 0. -1.
    9900012    2    1    2    0    0 -0.39318142429E+02  0.10213089712E+02  0.19465096501E+02  0.46142317551E+02  0.99999980843E+01 0.  0.
         12    1    1    2    0    0  0.39318142429E+02 -0.10213089712E+02 -0.19465096501E+02  0.45045682449E+02  0.00000000000E+00 0. -1.
         11    1    3    3    0    0 -0.11861700303E+02  0.38482461737E+01  0.37316230766E+01  0.13016679444E+02  0.51100000000E-03 0. -1.
        -11    1    3    3    0    0 -0.12407146940E+02 -0.89512337286E+00  0.65037607646E+01  0.14037002721E+02  0.51100000000E-03 0.  1.
         12    1    3    3    0    0 -0.15049295186E+02  0.72599669113E+01  0.92297126594E+01  0.19088635387E+02  0.00000000000E+00 0. -1.
</event>
<event>
 7    1  0.2250716E-008  0.4614232E+02  0.7816164E-02  0.1320468E+00
        -11   -1    0    0    0    0  0.00000000000E+00  0.00000000000E+00  0.45593999997E+02  0.45594000000E+02  0.51100000000E-03 0.  1.
         11   -1    0    0    0    0 -0.00000000000E+00 -0.00000000000E+00 -0.45593999997E+02  0.45594000000E+02  0.51100000000E-03 0. -1.
    9900012    2    1    2    0    0  0.40597781643E+02 -0.18135574692E+02  0.72135005512E+01  0.46142317255E+02  0.99999953849E+01 0.  0.
         12    1    1    2    0    0 -0.40597781643E+02  0.18135574692E+02 -0.72135005512E+01  0.45045682745E+02  0.00000000000E+00 0. -1.
         11    1    3    3    0    0  0.32058227874E+01 -0.55024063335E+00 -0.13158800079E+00  0.32553617559E+01  0.51100000000E-03 0.  1.
        -11    1    3    3    0    0  0.11099313487E+02 -0.28674625847E+01 -0.13061675971E+01  0.11537901699E+02  0.51100000000E-03 0. -1.
        -12    1    3    3    0    0  0.26292645368E+02 -0.14717871474E+02  0.86512561491E+01  0.31349053800E+02  0.00000000000E+00 0.  1.
</event>
<event>
 7    1  0.2250716E-008  0.4614232E+02  0.7816164E-02  0.1320468E+00
        -11   -1    0    0    0    0  0.00000000000E+00  0.00000000000E+00  0.45593999997E+02  0.45594000000E+02  0.51100000000E-03 0. -1.
         11   -1    0    0    0    0 -0.00000000000E+00 -0.00000000000E+00 -0.45593999997E+02  0.45594000000E+02  0.51100000000E-03 0.  1.
    9900012    2    1    2    0    0 -0.34295513963E+02  0.25290709639E+02 -0.14605176549E+02  0.46142318142E+02  0.10000003470E+02 0.  0.
         12    1    1    2    0    0  0.34295513963E+02 -0.25290709639E+02  0.14605176549E+02  0.45045681858E+02  0.00000000000E+00 0. -1.
         11    1    3    3    0    0 -0.21970249017E+02  0.17562510633E+02 -0.60529858719E+01  0.28771031609E+02  0.51100000000E-03 0. -1.
        -11    1    3    3    0    0 -0.53697881350E+01  0.34013847681E+01 -0.14271345302E+01  0.65146570273E+01  0.51100000000E-03 0.  1.
        -12    1    3    3    0    0 -0.69554768113E+01  0.43268142380E+01 -0.71250561469E+01  0.10856629505E+02  0.00000000000E+00 0.  1.
</event>
<event>
 7    1  0.2250716E-008  0.4614232E+02  0.7816164E-02  0.1320468E+00
        -11   -1    0    0    0    0  0.00000000000E+00  0.00000000000E+00  0.45593999997E+02  0.45594000000E+02  0.51100000000E-03 0.  1.
         11   -1    0    0    0    0 -0.00000000000E+00 -0.00000000000E+00 -0.45593999997E+02  0.45594000000E+02  0.51100000000E-03 0. -1.
    9900012    2    1    2    0    0 -0.13310798400E+02  0.16946636535E+02  0.39556891308E+02  0.46142317700E+02  0.99999994451E+01 0.  0.
         12    1    1    2    0    0  0.13310798400E+02 -0.16946636535E+02 -0.39556891308E+02  0.45045682300E+02  0.00000000000E+00 0. -1.
         11    1    3    3    0    0 -0.71392958898E+01  0.39219884934E+01  0.14028217660E+02  0.16221665467E+02  0.51100000000E-03 0. -1.
        -11    1    3    3    0    0 -0.38908314242E+00  0.14363298723E+01  0.79404969089E+01  0.80787326119E+01  0.51100000000E-03 0.  1.
        -12    1    3    3    0    0 -0.57824193682E+01  0.11588318170E+02  0.17588176739E+02  0.21841919621E+02  0.00000000000E+00 0.  1.
</event>
<event>
 7    1  0.2250716E-008  0.4614232E+02  0.7816164E-02  0.1320468E+00
        -11   -1    0    0    0    0  0.00000000000E+00  0.00000000000E+00  0.45593999997E+02  0.45594000000E+02  0.51100000000E-03 0. -1.
         11   -1    0    0    0    0 -0.00000000000E+00 -0.00000000000E+00 -0.45593999997E+02  0.45594000000E+02  0.51100000000E-03 0.  1.
    9900012    2    1    2    0    0  0.37203561023E+02 -0.90538797535E+01 -0.23728375848E+02  0.46142317501E+02  0.99999976274E+01 0.  0.
         12    1    1    2    0    0 -0.37203561023E+02  0.90538797535E+01  0.23728375848E+02  0.45045682499E+02  0.00000000000E+00 0. -1.
         11    1    3    3    0    0  0.47259931340E+01 -0.37653913753E+01 -0.15767690410E+01  0.62449486932E+01  0.51100000000E-03 0. -1.
        -11    1    3    3    0    0  0.17073196509E+02 -0.26944634488E+01 -0.90566261368E+01  0.19513499162E+02  0.51100000000E-03 0.  1.
         12    1    3    3    0    0  0.15404371380E+02 -0.25940249294E+01 -0.13094980671E+02  0.20383869645E+02  0.00000000000E+00 0. -1.
</event>
<event>
 7    1  0.2250716E-008  0.4614232E+02  0.7816164E-02  0.1320468E+00
        -11   -1    0    0    0    0  0.00000000000E+00  0.00000000000E+00  0.45593999997E+02  0.45594000000E+02  0.51100000000E-03 0.  1.
         11   -1    0    0    0    0 -0.00000000000E+00 -0.00000000000E+00 -0.45593999997E+02  0.45594000000E+02  0.51100000000E-03 0. -1.
    9900012    2    1    2    0    0  0.67820707108E+01  0.44971267379E+01  0.44304546072E+02  0.46142318357E+02  0.10000005431E+02 0.  0.
         12    1    1    2    0    0 -0.67820707108E+01 -0.44971267379E+01 -0.44304546072E+02  0.45045681643E+02  0.00000000000E+00 0. -1.
         11    1    3    3    0    0  0.11384274335E+01  0.67519661349E+00  0.66252299975E+01  0.67561512912E+01  0.51100000000E-03 0. -1.
        -11    1    3    3    0    0  0.37173186478E+01 -0.22554355609E+01  0.22600933623E+02  0.23015378520E+02  0.51100000000E-03 0.  1.
         12    1    3    3    0    0  0.19263246296E+01  0.60773656854E+01  0.15078382452E+02  0.16370788546E+02  0.00000000000E+00 0. -1.
</event>
<event>
 7    1  0.2250716E-008  0.4614232E+02  0.7816164E-02  0.1320468E+00
        -11   -1    0    0    0    0  0.00000000000E+00  0.00000000000E+00  0.45593999997E+02  0.45594000000E+02  0.51100000000E-03 0. -1.
         11   -1    0    0    0    0 -0.00000000000E+00 -0.00000000000E+00 -0.45593999997E+02  0.45594000000E+02  0.51100000000E-03 0.  1.
    9900012    2    1    2    0    0  0.38556958262E+02 -0.10650373101E+02 -0.20713377858E+02  0.46142317633E+02  0.99999988285E+01 0.  0.
         12    1    1    2    0    0 -0.38556958262E+02  0.10650373101E+02  0.20713377858E+02  0.45045682367E+02  0.00000000000E+00 0. -1.
         11    1    3    3    0    0  0.16019299408E+02 -0.50693726128E+01 -0.57946105547E+01  0.17773407213E+02  0.51100000000E-03 0. -1.
        -11    1    3    3    0    0  0.75354387209E+01 -0.19683618178E+01 -0.88458247772E+01  0.11785834769E+02  0.51100000000E-03 0.  1.
        -12    1    3    3    0    0  0.15002220133E+02 -0.36126386704E+01 -0.60729425264E+01  0.16583075650E+02  0.00000000000E+00 0.  1.
</event>
<event>
 7    1  0.2250716E-008  0.4614232E+02  0.7816164E-02  0.1320468E+00
        -11   -1    0    0    0    0  0.00000000000E+00  0.00000000000E+00  0.45593999997E+02  0.45594000000E+02  0.51100000000E-03 0. -1.
         11   -1    0    0    0    0 -0.00000000000E+00 -0.00000000000E+00 -0.45593999997E+02  0.45594000000E+02  0.51100000000E-03 0.  1.
    9900012    2    1    2    0    0  0.23001759504E+02 -0.38671504091E+02  0.21324464757E+01  0.46142317666E+02  0.99999991360E+01 0.  0.
         12    1    1    2    0    0 -0.23001759504E+02  0.38671504091E+02 -0.21324464757E+01  0.45045682334E+02  0.00000000000E+00 0. -1.
         11    1    3    3    0    0  0.32506968485E+01 -0.92048897061E+01  0.24130329522E+01  0.10055831780E+02  0.51100000000E-03 0. -1.
        -11    1    3    3    0    0  0.78162859815E+01 -0.10909757004E+02  0.30770861183E+01  0.13769008086E+02  0.51100000000E-03 0.  1.
        -12    1    3    3    0    0  0.11934776674E+02 -0.18556857381E+02 -0.33576725948E+01  0.22317477800E+02  0.00000000000E+00 0.  1.
</event>
<event>
 7    1  0.2250716E-008  0.4614232E+02  0.7816164E-02  0.1320468E+00
        -11   -1    0    0    0    0  0.00000000000E+00  0.00000000000E+00  0.45593999997E+02  0.45594000000E+02  0.51100000000E-03 0.  1.
         11   -1    0    0    0    0 -0.00000000000E+00 -0.00000000000E+00 -0.45593999997E+02  0.45594000000E+02  0.51100000000E-03 0. -1.
    9900012    2    1    2    0    0  0.71880035016E+01 -0.22073240886E+02  0.38603343632E+02  0.46142317664E+02  0.99999991162E+01 0.  0.
         12    1    1    2    0    0 -0.71880035016E+01  0.22073240886E+02 -0.38603343632E+02  0.45045682336E+02  0.00000000000E+00 0. -1.
         11    1    3    3    0    0 -0.10218406906E+01 -0.18373116848E+01  0.26756902634E+01  0.34028210753E+01  0.51100000000E-03 0. -1.
        -11    1    3    3    0    0  0.36672446579E+01 -0.14866365706E+02  0.29377511886E+02  0.33128472913E+02  0.51100000000E-03 0.  1.
         12    1    3    3    0    0  0.45425995343E+01 -0.53695634948E+01  0.65501414826E+01  0.96110236758E+01  0.00000000000E+00 0. -1.
</event>
<event>
 7    1  0.2250716E-008  0.4614232E+02  0.7816164E-02  0.1320468E+00
        -11   -1    0    0    0    0  0.00000000000E+00  0.00000000000E+00  0.45593999997E+02  0.45594000000E+02  0.51100000000E-03 0. -1.
         11   -1    0    0    0    0 -0.00000000000E+00 -0.00000000000E+00 -0.45593999997E+02  0.45594000000E+02  0.51100000000E-03 0.  1.
    9900012    2    1    2    0    0 -0.39744613983E+02 -0.20750290910E+02 -0.43479305199E+01  0.46142318594E+02  0.10000007595E+02 0.  0.
         12    1    1    2    0    0  0.39744613983E+02  0.20750290910E+02  0.43479305199E+01  0.45045681406E+02  0.00000000000E+00 0. -1.
         11    1    3    3    0    0 -0.71921785055E+01 -0.19807105968E+01  0.17402164079E+01  0.76602218982E+01  0.51100000000E-03 0. -1.
        -11    1    3    3    0    0 -0.18072789310E+02 -0.84117154503E+01 -0.97005500117E+00  0.19958047931E+02  0.51100000000E-03 0.  1.
        -12    1    3    3    0    0 -0.14479646168E+02 -0.10357864863E+02 -0.51180919266E+01  0.18524048765E+02  0.00000000000E+00 0.  1.
</event>
<event>
 7    1  0.2250716E-008  0.4614232E+02  0.7816164E-02  0.1320468E+00
        -11   -1    0    0    0    0  0.00000000000E+00  0.00000000000E+00  0.45593999997E+02  0.45594000000E+02  0.51100000000E-03 0. -1.
         11   -1    0    0    0    0 -0.00000000000E+00 -0.00000000000E+00 -0.45593999997E+02  0.45594000000E+02  0.51100000000E-03 0.  1.
    9900012    2    1    2    0    0 -0.36717185357E+02 -0.23243706607E+02 -0.11861355297E+02  0.46142319332E+02  0.10000014327E+02 0.  0.
         12    1    1    2    0    0  0.36717185357E+02  0.23243706607E+02  0.11861355297E+02  0.45045680668E+02  0.00000000000E+00 0. -1.
         11    1    3    3    0    0 -0.90215170977E+01 -0.47733318907E+01  0.37971977186E+00  0.10213552538E+02  0.51100000000E-03 0. -1.
        -11    1    3    3    0    0 -0.12297714516E+01 -0.21729587950E+01 -0.20147777716E+01  0.32083356243E+01  0.51100000000E-03 0.  1.
         12    1    3    3    0    0 -0.26465896807E+02 -0.16297415921E+02 -0.10226297298E+02  0.32720431170E+02  0.00000000000E+00 0. -1.
</event>
<event>
 7    1  0.2250716E-008  0.4614231E+02  0.7816164E-02  0.1320468E+00
        -11   -1    0    0    0    0  0.00000000000E+00  0.00000000000E+00  0.45593999997E+02  0.45594000000E+02  0.51100000000E-03 0. -1.
         11   -1    0    0    0    0 -0.00000000000E+00 -0.00000000000E+00 -0.45593999997E+02  0.45594000000E+02  0.51100000000E-03 0.  1.
    9900012    2    1    2    0    0 -0.33473488745E+02 -0.30055904772E+02 -0.22983044780E+01  0.46142311373E+02  0.99999417454E+01 0.  0.
         12    1    1    2    0    0  0.33473488745E+02  0.30055904772E+02  0.22983044780E+01  0.45045688627E+02  0.00000000000E+00 0. -1.
         11    1    3    3    0    0 -0.10355925249E+02 -0.89822916868E+01 -0.49485445498E+01  0.14574458656E+02  0.51100000000E-03 0. -1.
        -11    1    3    3    0    0 -0.27088960821E+01 -0.12686113448E+01 -0.12751957230E+00  0.29939529439E+01  0.51100000000E-03 0.  1.
         12    1    3    3    0    0 -0.20408667414E+02 -0.19805001741E+02  0.27777596441E+01  0.28573899773E+02  0.00000000000E+00 0. -1.
</event>
<event>
 7    1  0.2250716E-008  0.4614232E+02  0.7816164E-02  0.1320468E+00
        -11   -1    0    0    0    0  0.00000000000E+00  0.00000000000E+00  0.45593999997E+02  0.45594000000E+02  0.51100000000E-03 0. -1.
         11   -1    0    0    0    0 -0.00000000000E+00 -0.00000000000E+00 -0.45593999997E+02  0.45594000000E+02  0.51100000000E-03 0.  1.
    9900012    2    1    2    0    0 -0.25181344440E+02 -0.37314213753E+02 -0.16318291164E+01  0.46142317387E+02  0.99999965880E+01 0.  0.
         12    1    1    2    0    0  0.25181344440E+02  0.37314213753E+02  0.16318291164E+01  0.45045682613E+02  0.00000000000E+00 0. -1.
         11    1    3    3    0    0 -0.21444181939E+02 -0.29658015002E+02  0.61811312640E-01  0.36598560269E+02  0.51100000000E-03 0.  1.
        -11    1    3    3    0    0 -0.18988962749E+01 -0.30740807771E+01 -0.26930979675E+01  0.45065015934E+01  0.51100000000E-03 0. -1.
        -12    1    3    3    0    0 -0.18382662261E+01 -0.45821179740E+01  0.99945753851E+00  0.50372555243E+01  0.00000000000E+00 0.  1.
</event>
<event>
 7    1  0.2250716E-008  0.4614232E+02  0.7816164E-02  0.1320468E+00
        -11   -1    0    0    0    0  0.00000000000E+00  0.00000000000E+00  0.45593999997E+02  0.45594000000E+02  0.51100000000E-03 0. -1.
         11   -1    0    0    0    0 -0.00000000000E+00 -0.00000000000E+00 -0.45593999997E+02  0.45594000000E+02  0.51100000000E-03 0.  1.
    9900012    2    1    2    0    0  0.22764777817E+02 -0.14376220037E+02 -0.36113746601E+02  0.46142317575E+02  0.99999982997E+01 0.  0.
         12    1    1    2    0    0 -0.22764777817E+02  0.14376220037E+02  0.36113746601E+02  0.45045682425E+02  0.00000000000E+00 0. -1.
         11    1    3    3    0    0  0.46331621426E+01 -0.48039104481E+01 -0.15552658146E+02  0.16924211139E+02  0.51100000000E-03 0. -1.
        -11    1    3    3    0    0  0.83542067693E+01 -0.32201808935E+01 -0.10665121752E+02  0.13925055044E+02  0.51100000000E-03 0.  1.
         12    1    3    3    0    0  0.97774089054E+01 -0.63521286958E+01 -0.98959667027E+01  0.15293051391E+02  0.00000000000E+00 0. -1.
</event>
<event>
 7    1  0.2250716E-008  0.4614232E+02  0.7816164E-02  0.1320468E+00
        -11   -1    0    0    0    0  0.00000000000E+00  0.00000000000E+00  0.45593999997E+02  0.45594000000E+02  0.51100000000E-03 0.  1.
         11   -1    0    0    0    0 -0.00000000000E+00 -0.00000000000E+00 -0.45593999997E+02  0.45594000000E+02  0.51100000000E-03 0. -1.
    9900012    2    1    2    0    0  0.24831023229E+02  0.18012076457E+02  0.32986343505E+02  0.46142317957E+02  0.10000001787E+02 0.  0.
         12    1    1    2    0    0 -0.24831023229E+02 -0.18012076457E+02 -0.32986343505E+02  0.45045682043E+02  0.00000000000E+00 0. -1.
         11    1    3    3    0    0  0.17721649910E+01  0.32425362315E+01  0.65239140427E+01  0.74977373030E+01  0.51100000000E-03 0. -1.
        -11    1    3    3    0    0  0.22185369384E+02  0.13400998055E+02  0.26434099143E+02  0.37020790933E+02  0.51100000000E-03 0.  1.
         12    1    3    3    0    0  0.87348885446E+00  0.13685421701E+01  0.28330319206E-01  0.16237897208E+01  0.00000000000E+00 0. -1.
</event>
<event>
 7    1  0.2250716E-008  0.4614232E+02  0.7816164E-02  0.1320468E+00
        -11   -1    0    0    0    0  0.00000000000E+00  0.00000000000E+00  0.45593999997E+02  0.45594000000E+02  0.51100000000E-03 0.  1.
         11   -1    0    0    0    0 -0.00000000000E+00 -0.00000000000E+00 -0.45593999997E+02  0.45594000000E+02  0.51100000000E-03 0. -1.
    9900012    2    1    2    0    0 -0.25540759438E+02 -0.34837871575E+02  0.12771288439E+02  0.46142317666E+02  0.99999991359E+01 0.  0.
         12    1    1    2    0    0  0.25540759438E+02  0.34837871575E+02 -0.12771288439E+02  0.45045682334E+02  0.00000000000E+00 0. -1.
         11    1    3    3    0    0 -0.58270139705E+01 -0.72263628709E+01  0.53039136689E+01  0.10691394325E+02  0.51100000000E-03 0. -1.
        -11    1    3    3    0    0 -0.15469034040E+02 -0.24485121851E+02  0.42434375821E+01  0.29271470222E+02  0.51100000000E-03 0.  1.
        -12    1    3    3    0    0 -0.42447114274E+01 -0.31263868526E+01  0.32239371878E+01  0.61794531186E+01  0.00000000000E+00 0.  1.
</event>
<event>
 7    1  0.2250716E-008  0.4614232E+02  0.7816164E-02  0.1320468E+00
        -11   -1    0    0    0    0  0.00000000000E+00  0.00000000000E+00  0.45593999997E+02  0.45594000000E+02  0.51100000000E-03 0.  1.
         11   -1    0    0    0    0 -0.00000000000E+00 -0.00000000000E+00 -0.45593999997E+02  0.45594000000E+02  0.51100000000E-03 0. -1.
    9900012    2    1    2    0    0  0.22045395385E+02  0.83691817089E+01  0.38380604635E+02  0.46142317939E+02  0.10000001625E+02 0.  0.
         12    1    1    2    0    0 -0.22045395385E+02 -0.83691817089E+01 -0.38380604635E+02  0.45045682061E+02  0.00000000000E+00 0. -1.
         11    1    3    3    0    0  0.41728534794E+01 -0.99981459438E+00  0.27394736520E+01  0.50908792497E+01  0.51100000000E-03 0. -1.
        -11    1    3    3    0    0  0.48239558621E+01  0.20312683859E+01  0.70790209179E+01  0.88039274663E+01  0.51100000000E-03 0.  1.
        -12    1    3    3    0    0  0.13048586043E+02  0.73377279174E+01  0.28562110065E+02  0.32247511223E+02  0.00000000000E+00 0.  1.
</event>
<event>
 7    1  0.2250716E-008  0.4614232E+02  0.7816164E-02  0.1320468E+00
        -11   -1    0    0    0    0  0.00000000000E+00  0.00000000000E+00  0.45593999997E+02  0.45594000000E+02  0.51100000000E-03 0. -1.
         11   -1    0    0    0    0 -0.00000000000E+00 -0.00000000000E+00 -0.45593999997E+02  0.45594000000E+02  0.51100000000E-03 0.  1.
    9900012    2    1    2    0    0  0.11769019468E+02  0.29556408718E+02 -0.31890787801E+02  0.46142318053E+02  0.10000002657E+02 0.  0.
         12    1    1    2    0    0 -0.11769019468E+02 -0.29556408718E+02  0.31890787801E+02  0.45045681947E+02  0.00000000000E+00 0. -1.
         11    1    3    3    0    0  0.79710566896E+01  0.12873248424E+02 -0.15360072776E+02  0.21568266172E+02  0.51100000000E-03 0.  1.
        -11    1    3    3    0    0  0.26538181770E+00  0.41982655436E+01 -0.97640039633E+00  0.43184741610E+01  0.51100000000E-03 0. -1.
        -12    1    3    3    0    0  0.35325809608E+01  0.12484894751E+02 -0.15554314629E+02  0.20255577720E+02  0.00000000000E+00 0.  1.
</event>
<event>
 7    1  0.2250716E-008  0.4614232E+02  0.7816164E-02  0.1320468E+00
        -11   -1    0    0    0    0  0.00000000000E+00  0.00000000000E+00  0.45593999997E+02  0.45594000000E+02  0.51100000000E-03 0.  1.
         11   -1    0    0    0    0 -0.00000000000E+00 -0.00000000000E+00 -0.45593999997E+02  0.45594000000E+02  0.51100000000E-03 0. -1.
    9900012    2    1    2    0    0 -0.35116278276E+01  0.38254895530E+02  0.23523285166E+02  0.46142317554E+02  0.99999981106E+01 0.  0.
         12    1    1    2    0    0  0.35116278276E+01 -0.38254895530E+02 -0.23523285166E+02  0.45045682446E+02  0.00000000000E+00 0. -1.
         11    1    3    3    0    0  0.10081430153E+01  0.21472823936E+02  0.12762181452E+02  0.24999435910E+02  0.51100000000E-03 0.  1.
        -11    1    3    3    0    0 -0.32295262879E+01  0.81042845142E+01  0.24584098223E+01  0.90638317861E+01  0.51100000000E-03 0. -1.
         12    1    3    3    0    0 -0.12902445550E+01  0.86777870801E+01  0.83026938912E+01  0.12079049858E+02  0.00000000000E+00 0. -1.
</event>
<event>
 7    1  0.2250716E-008  0.4614232E+02  0.7816164E-02  0.1320468E+00
        -11   -1    0    0    0    0  0.00000000000E+00  0.00000000000E+00  0.45593999997E+02  0.45594000000E+02  0.51100000000E-03 0.  1.
         11   -1    0    0    0    0 -0.00000000000E+00 -0.00000000000E+00 -0.45593999997E+02  0.45594000000E+02  0.51100000000E-03 0. -1.
    9900012    2    1    2    0    0 -0.25708099468E+02  0.70953524932E+01  0.36302383257E+02  0.46142318349E+02  0.10000005360E+02 0.  0.
         12    1    1    2    0    0  0.25708099468E+02 -0.70953524932E+01 -0.36302383257E+02  0.45045681651E+02  0.00000000000E+00 0. -1.
         11    1    3    3    0    0 -0.52216143566E+01  0.29447045777E+01  0.71300567631E+01  0.93152697892E+01  0.51100000000E-03 0. -1.
        -11    1    3    3    0    0 -0.16756721791E+02  0.65323493292E+01  0.22230804899E+02  0.28594894643E+02  0.51100000000E-03 0.  1.
         12    1    3    3    0    0 -0.37297633209E+01 -0.23817014137E+01  0.69415215950E+01  0.82321539167E+01  0.00000000000E+00 0. -1.
</event>
<event>
 7    1  0.2250716E-008  0.4614232E+02  0.7816164E-02  0.1320468E+00
        -11   -1    0    0    0    0  0.00000000000E+00  0.00000000000E+00  0.45593999997E+02  0.45594000000E+02  0.51100000000E-03 0. -1.
         11   -1    0    0    0    0 -0.00000000000E+00 -0.00000000000E+00 -0.45593999997E+02  0.45594000000E+02  0.51100000000E-03 0.  1.
    9900012    2    1    2    0    0 -0.74506221342E+01  0.44402983909E+02 -0.14059768490E+01  0.46142317398E+02  0.99999966851E+01 0.  0.
         12    1    1    2    0    0  0.74506221342E+01 -0.44402983909E+02  0.14059768490E+01  0.45045682602E+02  0.00000000000E+00 0. -1.
         11    1    3    3    0    0 -0.21149975373E+01  0.13971600875E+02 -0.41518452127E+01  0.14728091001E+02  0.51100000000E-03 0. -1.
        -11    1    3    3    0    0  0.83522369393E+00  0.65066351755E+01  0.53738591673E-01  0.65602429851E+01  0.51100000000E-03 0.  1.
         12    1    3    3    0    0 -0.61708482908E+01  0.23924747858E+02  0.26921297721E+01  0.24853983411E+02  0.00000000000E+00 0. -1.
</event>
<event>
 7    1  0.2250716E-008  0.4614232E+02  0.7816164E-02  0.1320468E+00
        -11   -1    0    0    0    0  0.00000000000E+00  0.00000000000E+00  0.45593999997E+02  0.45594000000E+02  0.51100000000E-03 0.  1.
         11   -1    0    0    0    0 -0.00000000000E+00 -0.00000000000E+00 -0.45593999997E+02  0.45594000000E+02  0.51100000000E-03 0. -1.
    9900012    2    1    2    0    0 -0.36956433085E+02 -0.24843953206E+02  0.67906875615E+01  0.46142318800E+02  0.10000009470E+02 0.  0.
         12    1    1    2    0    0  0.36956433085E+02  0.24843953206E+02 -0.67906875615E+01  0.45045681200E+02  0.00000000000E+00 0. -1.
         11    1    3    3    0    0 -0.85443391423E+01 -0.91433416822E+01  0.47432890155E+01  0.13383019818E+02  0.51100000000E-03 0. -1.
        -11    1    3    3    0    0 -0.24407183011E+02 -0.14891207406E+02  0.21516919666E+01  0.28672084317E+02  0.51100000000E-03 0.  1.
        -12    1    3    3    0    0 -0.40049109316E+01 -0.80940411838E+00 -0.10429342051E+00  0.40872146646E+01  0.00000000000E+00 0.  1.
</event>
<event>
 7    1  0.2250716E-008  0.4614232E+02  0.7816164E-02  0.1320468E+00
        -11   -1    0    0    0    0  0.00000000000E+00  0.00000000000E+00  0.45593999997E+02  0.45594000000E+02  0.51100000000E-03 0.  1.
         11   -1    0    0    0    0 -0.00000000000E+00 -0.00000000000E+00 -0.45593999997E+02  0.45594000000E+02  0.51100000000E-03 0. -1.
    9900012    2    1    2    0    0 -0.10523906062E+02  0.38997464299E+02  0.19938868240E+02  0.46142319994E+02  0.10000020360E+02 0.  0.
         12    1    1    2    0    0  0.10523906062E+02 -0.38997464299E+02 -0.19938868240E+02  0.45045680006E+02  0.00000000000E+00 0. -1.
         11    1    3    3    0    0 -0.67098130796E+01  0.23835613256E+02  0.16841211018E+02  0.29946359372E+02  0.51100000000E-03 0. -1.
        -11    1    3    3    0    0 -0.36652112797E+01  0.89059962655E+01  0.21380943190E+01  0.98651908640E+01  0.51100000000E-03 0.  1.
         12    1    3    3    0    0 -0.14888170230E+00  0.62558547773E+01  0.95956290290E+00  0.63307697574E+01  0.00000000000E+00 0. -1.
</event>
<event>
 7    1  0.2250716E-008  0.4614231E+02  0.7816164E-02  0.1320468E+00
        -11   -1    0    0    0    0  0.00000000000E+00  0.00000000000E+00  0.45593999997E+02  0.45594000000E+02  0.51100000000E-03 0.  1.
         11   -1    0    0    0    0 -0.00000000000E+00 -0.00000000000E+00 -0.45593999997E+02  0.45594000000E+02  0.51100000000E-03 0. -1.
    9900012    2    1    2    0    0  0.38878606679E+02 -0.20914853844E+02 -0.89519033780E+01  0.46142314938E+02  0.99999742570E+01 0.  0.
         12    1    1    2    0    0 -0.38878606679E+02  0.20914853844E+02  0.89519033780E+01  0.45045685062E+02  0.00000000000E+00 0. -1.
         11    1    3    3    0    0  0.54153688109E+01 -0.42434317076E+01 -0.31712056423E+01  0.75755843011E+01  0.51100000000E-03 0. -1.
        -11    1    3    3    0    0  0.19609186729E+02 -0.13607152919E+02 -0.24588419069E+01  0.23994180931E+02  0.51100000000E-03 0.  1.
        -12    1    3    3    0    0  0.13854051139E+02 -0.30642692166E+01 -0.33218558288E+01  0.14572549706E+02  0.00000000000E+00 0.  1.
</event>
<event>
 7    1  0.2250716E-008  0.4614232E+02  0.7816164E-02  0.1320468E+00
        -11   -1    0    0    0    0  0.00000000000E+00  0.00000000000E+00  0.45593999997E+02  0.45594000000E+02  0.51100000000E-03 0. -1.
         11   -1    0    0    0    0 -0.00000000000E+00 -0.00000000000E+00 -0.45593999997E+02  0.45594000000E+02  0.51100000000E-03 0.  1.
    9900012    2    1    2    0    0  0.30993280995E+02  0.25823422401E+02 -0.20041979963E+02  0.46142316831E+02  0.99999915143E+01 0.  0.
         12    1    1    2    0    0 -0.30993280995E+02 -0.25823422401E+02  0.20041979963E+02  0.45045683169E+02  0.00000000000E+00 0. -1.
         11    1    3    3    0    0  0.96658506220E+01  0.67999029820E+01 -0.24111693042E+01  0.12061554066E+02  0.51100000000E-03 0. -1.
        -11    1    3    3    0    0  0.64892207531E+01  0.78471685215E+01 -0.90299651663E+01  0.13609860798E+02  0.51100000000E-03 0.  1.
        -12    1    3    3    0    0  0.14838209620E+02  0.11176350898E+02 -0.86008454930E+01  0.20470901966E+02  0.00000000000E+00 0.  1.
</event>
<event>
 7    1  0.2250716E-008  0.4614232E+02  0.7816164E-02  0.1320468E+00
        -11   -1    0    0    0    0  0.00000000000E+00  0.00000000000E+00  0.45593999997E+02  0.45594000000E+02  0.51100000000E-03 0.  1.
         11   -1    0    0    0    0 -0.00000000000E+00 -0.00000000000E+00 -0.45593999997E+02  0.45594000000E+02  0.51100000000E-03 0. -1.
    9900012    2    1    2    0    0 -0.69445236835E+01 -0.21701040711E+02  0.38858100373E+02  0.46142317169E+02  0.99999946003E+01 0.  0.
         12    1    1    2    0    0  0.69445236835E+01  0.21701040711E+02 -0.38858100373E+02  0.45045682831E+02  0.00000000000E+00 0. -1.
         11    1    3    3    0    0 -0.17992063379E+01 -0.27443527796E+01  0.11227830855E+02  0.11697555369E+02  0.51100000000E-03 0. -1.
        -11    1    3    3    0    0 -0.12014891634E+01 -0.38796859459E+01  0.10644130213E+02  0.11392675169E+02  0.51100000000E-03 0.  1.
        -12    1    3    3    0    0 -0.39438281822E+01 -0.15077001985E+02  0.16986139305E+02  0.23052086631E+02  0.00000000000E+00 0.  1.
</event>
<event>
 7    1  0.2250716E-008  0.4614232E+02  0.7816164E-02  0.1320468E+00
        -11   -1    0    0    0    0  0.00000000000E+00  0.00000000000E+00  0.45593999997E+02  0.45594000000E+02  0.51100000000E-03 0. -1.
         11   -1    0    0    0    0 -0.00000000000E+00 -0.00000000000E+00 -0.45593999997E+02  0.45594000000E+02  0.51100000000E-03 0.  1.
    9900012    2    1    2    0    0  0.39049796016E+02  0.82713455400E+01 -0.20876106389E+02  0.46142317145E+02  0.99999943796E+01 0.  0.
         12    1    1    2    0    0 -0.39049796016E+02 -0.82713455400E+01  0.20876106389E+02  0.45045682855E+02  0.00000000000E+00 0. -1.
         11    1    3    3    0    0  0.53264278926E+01  0.35727896745E+01 -0.54616741770E+01  0.84241050106E+01  0.51100000000E-03 0. -1.
        -11    1    3    3    0    0  0.10864396379E+02  0.24655461002E+01 -0.74788298257E+01  0.13418156434E+02  0.51100000000E-03 0.  1.
         12    1    3    3    0    0  0.22858971744E+02  0.22330097653E+01 -0.79356023867E+01  0.24300055701E+02  0.00000000000E+00 0. -1.
</event>
<event>
 7    1  0.2250716E-008  0.4614232E+02  0.7816164E-02  0.1320468E+00
        -11   -1    0    0    0    0  0.00000000000E+00  0.00000000000E+00  0.45593999997E+02  0.45594000000E+02  0.51100000000E-03 0.  1.
         11   -1    0    0    0    0 -0.00000000000E+00 -0.00000000000E+00 -0.45593999997E+02  0.45594000000E+02  0.51100000000E-03 0. -1.
    9900012    2    1    2    0    0 -0.15943436265E+02  0.41868971017E+02  0.46807662214E+01  0.46142318005E+02  0.10000002225E+02 0.  0.
         12    1    1    2    0    0  0.15943436265E+02 -0.41868971017E+02 -0.46807662214E+01  0.45045681995E+02  0.00000000000E+00 0. -1.
         11    1    3    3    0    0 -0.10889812669E+02  0.19333770570E+02  0.48519032077E+01  0.22713953188E+02  0.51100000000E-03 0.  1.
        -11    1    3    3    0    0  0.19103923557E+00  0.31461450948E+01  0.10044753729E+01  0.33081257507E+01  0.51100000000E-03 0. -1.
        -12    1    3    3    0    0 -0.52446628313E+01  0.19389055352E+02 -0.11756123592E+01  0.20120239066E+02  0.00000000000E+00 0.  1.
</event>
<event>
 7    1  0.2250716E-008  0.4614232E+02  0.7816164E-02  0.1320468E+00
        -11   -1    0    0    0    0  0.00000000000E+00  0.00000000000E+00  0.45593999997E+02  0.45594000000E+02  0.51100000000E-03 0.  1.
         11   -1    0    0    0    0 -0.00000000000E+00 -0.00000000000E+00 -0.45593999997E+02  0.45594000000E+02  0.51100000000E-03 0. -1.
    9900012    2    1    2    0    0 -0.39515829364E+02 -0.18736896676E+02  0.10795435412E+02  0.46142317708E+02  0.99999995185E+01 0.  0.
         12    1    1    2    0    0  0.39515829364E+02  0.18736896676E+02 -0.10795435412E+02  0.45045682292E+02  0.00000000000E+00 0. -1.
         11    1    3    3    0    0 -0.84221232640E+01  0.27733504881E-01  0.99454344138E+00  0.84806866668E+01  0.51100000000E-03 0. -1.
        -11    1    3    3    0    0 -0.13982659314E-01 -0.85141039961E-02 -0.46226324594E-01  0.49042215843E-01  0.51100000000E-03 0.  1.
        -12    1    3    3    0    0 -0.31079723441E+02 -0.18756116077E+02  0.98471182948E+01  0.37612588826E+02  0.00000000000E+00 0.  1.
</event>
<event>
 7    1  0.2250716E-008  0.4614231E+02  0.7816164E-02  0.1320468E+00
        -11   -1    0    0    0    0  0.00000000000E+00  0.00000000000E+00  0.45593999997E+02  0.45594000000E+02  0.51100000000E-03 0. -1.
         11   -1    0    0    0    0 -0.00000000000E+00 -0.00000000000E+00 -0.45593999997E+02  0.45594000000E+02  0.51100000000E-03 0.  1.
    9900012    2    1    2    0    0  0.17004742709E+02 -0.34752533737E+02  0.23069763439E+02  0.46142313627E+02  0.99999622984E+01 0.  0.
         12    1    1    2    0    0 -0.17004742709E+02  0.34752533737E+02 -0.23069763439E+02  0.45045686373E+02  0.00000000000E+00 0. -1.
         11    1    3    3    0    0  0.48564806825E+00 -0.24180164033E+01  0.45064892023E+01  0.51372271280E+01  0.51100000000E-03 0. -1.
        -11    1    3    3    0    0  0.15724645222E+01 -0.36483326803E+01  0.63759179580E+00  0.40236177228E+01  0.51100000000E-03 0.  1.
         12    1    3    3    0    0  0.14946630118E+02 -0.28686184653E+02  0.17925682441E+02  0.36981468776E+02  0.00000000000E+00 0. -1.
</event>
<event>
 7    1  0.2250716E-008  0.4614232E+02  0.7816164E-02  0.1320468E+00
        -11   -1    0    0    0    0  0.00000000000E+00  0.00000000000E+00  0.45593999997E+02  0.45594000000E+02  0.51100000000E-03 0. -1.
         11   -1    0    0    0    0 -0.00000000000E+00 -0.00000000000E+00 -0.45593999997E+02  0.45594000000E+02  0.51100000000E-03 0.  1.
    9900012    2    1    2    0    0  0.38957166923E+02  0.20767675529E+02 -0.89530051068E+01  0.46142317610E+02  0.99999986266E+01 0.  0.
         12    1    1    2    0    0 -0.38957166923E+02 -0.20767675529E+02  0.89530051068E+01  0.45045682390E+02  0.00000000000E+00 0. -1.
         11    1    3    3    0    0  0.28233629267E+02  0.15344489129E+02 -0.27050939770E+01  0.32247615445E+02  0.51100000000E-03 0.  1.
        -11    1    3    3    0    0  0.38578630526E-01  0.74567667359E+00 -0.39069269216E+00  0.84271172598E+00  0.51100000000E-03 0. -1.
        -12    1    3    3    0    0  0.10684959025E+02  0.46775097264E+01 -0.58572184376E+01  0.13051990440E+02  0.00000000000E+00 0.  1.
</event>
<event>
 7    1  0.2250716E-008  0.4614232E+02  0.7816164E-02  0.1320468E+00
        -11   -1    0    0    0    0  0.00000000000E+00  0.00000000000E+00  0.45593999997E+02  0.45594000000E+02  0.51100000000E-03 0.  1.
         11   -1    0    0    0    0 -0.00000000000E+00 -0.00000000000E+00 -0.45593999997E+02  0.45594000000E+02  0.51100000000E-03 0. -1.
    9900012    2    1    2    0    0  0.40876133281E+02 -0.14749279162E+02 -0.11862291350E+02  0.46142318032E+02  0.10000002475E+02 0.  0.
         12    1    1    2    0    0 -0.40876133281E+02  0.14749279162E+02  0.11862291350E+02  0.45045681968E+02  0.00000000000E+00 0. -1.
         11    1    3    3    0    0  0.13159170494E+02 -0.41817455783E+01 -0.41965771944E+01  0.14431286311E+02  0.51100000000E-03 0. -1.
        -11    1    3    3    0    0  0.25363792087E+02 -0.66963666651E+01 -0.67821540699E+01  0.27095403478E+02  0.51100000000E-03 0.  1.
         12    1    3    3    0    0  0.23531707002E+01 -0.38711669190E+01 -0.88356008585E+00  0.46156282437E+01  0.00000000000E+00 0. -1.
</event>
<event>
 7    1  0.2250716E-008  0.4614232E+02  0.7816164E-02  0.1320468E+00
        -11   -1    0    0    0    0  0.00000000000E+00  0.00000000000E+00  0.45593999997E+02  0.45594000000E+02  0.51100000000E-03 0. -1.
         11   -1    0    0    0    0 -0.00000000000E+00 -0.00000000000E+00 -0.45593999997E+02  0.45594000000E+02  0.51100000000E-03 0.  1.
    9900012    2    1    2    0    0 -0.44294668758E+02 -0.47398477143E+01  0.66805465023E+01  0.46142317207E+02  0.99999949482E+01 0.  0.
         12    1    1    2    0    0  0.44294668758E+02  0.47398477143E+01 -0.66805465023E+01  0.45045682793E+02  0.00000000000E+00 0. -1.
         11    1    3    3    0    0 -0.23068743808E+02 -0.17483336406E+01  0.50934618576E+01  0.23688962944E+02  0.51100000000E-03 0. -1.
        -11    1    3    3    0    0 -0.12226393410E+02 -0.13366212625E+01 -0.22984275915E+01  0.12512154965E+02  0.51100000000E-03 0.  1.
        -12    1    3    3    0    0 -0.89995315403E+01 -0.16548928111E+01  0.38855122362E+01  0.99411992988E+01  0.00000000000E+00 0.  1.
</event>
<event>
 7    1  0.2250716E-008  0.4614232E+02  0.7816164E-02  0.1320468E+00
        -11   -1    0    0    0    0  0.00000000000E+00  0.00000000000E+00  0.45593999997E+02  0.45594000000E+02  0.51100000000E-03 0.  1.
         11   -1    0    0    0    0 -0.00000000000E+00 -0.00000000000E+00 -0.45593999997E+02  0.45594000000E+02  0.51100000000E-03 0. -1.
    9900012    2    1    2    0    0  0.58347669848E+01 -0.49326442625E+01  0.44392994826E+02  0.46142317912E+02  0.10000001373E+02 0.  0.
         12    1    1    2    0    0 -0.58347669848E+01  0.49326442625E+01 -0.44392994826E+02  0.45045682088E+02  0.00000000000E+00 0. -1.
         11    1    3    3    0    0 -0.28017193424E+00 -0.94957810966E+00  0.10071373628E+01  0.14122750539E+01  0.51100000000E-03 0. -1.
        -11    1    3    3    0    0  0.25292977583E+01 -0.48818911520E+01  0.36526813009E+02  0.36938303660E+02  0.51100000000E-03 0.  1.
         12    1    3    3    0    0  0.35856411607E+01  0.89882499918E+00  0.68590444537E+01  0.77917391980E+01  0.00000000000E+00 0. -1.
</event>
<event>
 7    1  0.2250716E-008  0.4614232E+02  0.7816164E-02  0.1320468E+00
        -11   -1    0    0    0    0  0.00000000000E+00  0.00000000000E+00  0.45593999997E+02  0.45594000000E+02  0.51100000000E-03 0.  1.
         11   -1    0    0    0    0 -0.00000000000E+00 -0.00000000000E+00 -0.45593999997E+02  0.45594000000E+02  0.51100000000E-03 0. -1.
    9900012    2    1    2    0    0  0.32562679639E+02  0.31036976591E+02  0.23433710161E+01  0.46142318643E+02  0.10000008046E+02 0.  0.
         12    1    1    2    0    0 -0.32562679639E+02 -0.31036976591E+02 -0.23433710161E+01  0.45045681357E+02  0.00000000000E+00 0. -1.
         11    1    3    3    0    0  0.16448989668E+01 -0.19703042793E+00  0.51866192062E+00  0.17359504744E+01  0.51100000000E-03 0. -1.
        -11    1    3    3    0    0  0.28844189576E+02  0.28779416665E+02  0.32821881888E+01  0.40878048577E+02  0.51100000000E-03 0.  1.
         12    1    3    3    0    0  0.20735910960E+01  0.24545903533E+01 -0.14574790933E+01  0.35283195920E+01  0.00000000000E+00 0. -1.
</event>
<event>
 7    1  0.2250716E-008  0.4614232E+02  0.7816164E-02  0.1320468E+00
        -11   -1    0    0    0    0  0.00000000000E+00  0.00000000000E+00  0.45593999997E+02  0.45594000000E+02  0.51100000000E-03 0.  1.
         11   -1    0    0    0    0 -0.00000000000E+00 -0.00000000000E+00 -0.45593999997E+02  0.45594000000E+02  0.51100000000E-03 0. -1.
    9900012    2    1    2    0    0 -0.12176392156E+02  0.36186502949E+01  0.43217523670E+02  0.46142317543E+02  0.99999980096E+01 0.  0.
         12    1    1    2    0    0  0.12176392156E+02 -0.36186502949E+01 -0.43217523670E+02  0.45045682457E+02  0.00000000000E+00 0. -1.
         11    1    3    3    0    0 -0.44976647667E+01 -0.50506339890E+00  0.10322911960E+02  0.11271494532E+02  0.51100000000E-03 0. -1.
        -11    1    3    3    0    0 -0.60067435477E+01  0.77001965569E+00  0.28305460562E+02  0.28946035932E+02  0.51100000000E-03 0.  1.
        -12    1    3    3    0    0 -0.16719838418E+01  0.33536940382E+01  0.45891511482E+01  0.59247870788E+01  0.00000000000E+00 0.  1.
</event>
<event>
 7    1  0.2250716E-008  0.4614231E+02  0.7816164E-02  0.1320468E+00
        -11   -1    0    0    0    0  0.00000000000E+00  0.00000000000E+00  0.45593999997E+02  0.45594000000E+02  0.51100000000E-03 0.  1.
         11   -1    0    0    0    0 -0.00000000000E+00 -0.00000000000E+00 -0.45593999997E+02  0.45594000000E+02  0.51100000000E-03 0. -1.
    9900012    2    1    2    0    0 -0.39678030256E+02 -0.19377035911E+02  0.89049643661E+01  0.46142312126E+02  0.99999486130E+01 0.  0.
         12    1    1    2    0    0  0.39678030256E+02  0.19377035911E+02 -0.89049643661E+01  0.45045687874E+02  0.00000000000E+00 0. -1.
         11    1    3    3    0    0 -0.19239848965E+02 -0.79357663007E+01  0.50237409582E+01  0.21409954424E+02  0.51100000000E-03 0. -1.
        -11    1    3    3    0    0 -0.16323167301E+02 -0.76499959993E+01  0.56040375251E+01  0.18877856509E+02  0.51100000000E-03 0.  1.
         12    1    3    3    0    0 -0.41150139898E+01 -0.37912736109E+01 -0.17228141173E+01  0.58545011924E+01  0.00000000000E+00 0. -1.
</event>
<event>
 7    1  0.2250716E-008  0.4614232E+02  0.7816164E-02  0.1320468E+00
        -11   -1    0    0    0    0  0.00000000000E+00  0.00000000000E+00  0.45593999997E+02  0.45594000000E+02  0.51100000000E-03 0.  1.
         11   -1    0    0    0    0 -0.00000000000E+00 -0.00000000000E+00 -0.45593999997E+02  0.45594000000E+02  0.51100000000E-03 0. -1.
    9900012    2    1    2    0    0  0.51168685852E+01 -0.33395545436E+02  0.29793769626E+02  0.46142317548E+02  0.99999980534E+01 0.  0.
         12    1    1    2    0    0 -0.51168685852E+01  0.33395545436E+02 -0.29793769626E+02  0.45045682452E+02  0.00000000000E+00 0. -1.
         11    1    3    3    0    0  0.46694269185E+01 -0.81064697767E+01  0.99673176129E+01  0.13669887368E+02  0.51100000000E-03 0. -1.
        -11    1    3    3    0    0 -0.14649218787E+01 -0.29284046926E+01  0.25886400465E+01  0.41740397345E+01  0.51100000000E-03 0.  1.
        -12    1    3    3    0    0  0.19123635454E+01 -0.22360670967E+02  0.17237811966E+02  0.28298390445E+02  0.00000000000E+00 0.  1.
</event>
<event>
 7    1  0.2250716E-008  0.4614232E+02  0.7816164E-02  0.1320468E+00
        -11   -1    0    0    0    0  0.00000000000E+00  0.00000000000E+00  0.45593999997E+02  0.45594000000E+02  0.51100000000E-03 0.  1.
         11   -1    0    0    0    0 -0.00000000000E+00 -0.00000000000E+00 -0.45593999997E+02  0.45594000000E+02  0.51100000000E-03 0. -1.
    9900012    2    1    2    0    0 -0.15638000603E+02  0.24346267849E+02  0.34522828528E+02  0.46142317515E+02  0.99999977533E+01 0.  0.
         12    1    1    2    0    0  0.15638000603E+02 -0.24346267849E+02 -0.34522828528E+02  0.45045682485E+02  0.00000000000E+00 0. -1.
         11    1    3    3    0    0 -0.23644653001E+01  0.25037459372E+01  0.11907997602E+01  0.36438227459E+01  0.51100000000E-03 0.  1.
        -11    1    3    3    0    0 -0.12397269408E+02  0.18081395250E+02  0.24604239844E+02  0.32954480143E+02  0.51100000000E-03 0. -1.
         12    1    3    3    0    0 -0.87626589534E+00  0.37611266615E+01  0.87277889231E+01  0.95440146253E+01  0.00000000000E+00 0. -1.
</event>
<event>
 7    1  0.2250716E-008  0.4614232E+02  0.7816164E-02  0.1320468E+00
        -11   -1    0    0    0    0  0.00000000000E+00  0.00000000000E+00  0.45593999997E+02  0.45594000000E+02  0.51100000000E-03 0. -1.
         11   -1    0    0    0    0 -0.00000000000E+00 -0.00000000000E+00 -0.45593999997E+02  0.45594000000E+02  0.51100000000E-03 0.  1.
    9900012    2    1    2    0    0  0.19023590206E+02  0.51058408296E+01 -0.40511071228E+02  0.46142317777E+02  0.10000000143E+02 0.  0.
         12    1    1    2    0    0 -0.19023590206E+02 -0.51058408296E+01  0.40511071228E+02  0.45045682223E+02  0.00000000000E+00 0. -1.
         11    1    3    3    0    0  0.43514770342E+01  0.35517856899E+01 -0.11484640309E+02  0.12784658668E+02  0.51100000000E-03 0. -1.
        -11    1    3    3    0    0  0.77034056737E+01  0.44328632106E+01 -0.16283599033E+02  0.18551235348E+02  0.51100000000E-03 0.  1.
        -12    1    3    3    0    0  0.69687074984E+01 -0.28788080710E+01 -0.12742831886E+02  0.14806423761E+02  0.00000000000E+00 0.  1.
</event>
<event>
 7    1  0.2250716E-008  0.4614232E+02  0.7816164E-02  0.1320468E+00
        -11   -1    0    0    0    0  0.00000000000E+00  0.00000000000E+00  0.45593999997E+02  0.45594000000E+02  0.51100000000E-03 0. -1.
         11   -1    0    0    0    0 -0.00000000000E+00 -0.00000000000E+00 -0.45593999997E+02  0.45594000000E+02  0.51100000000E-03 0.  1.
    9900012    2    1    2    0    0 -0.69052125514E+01 -0.43940946094E+02 -0.71151077268E+01  0.46142318054E+02  0.10000002673E+02 0.  0.
         12    1    1    2    0    0  0.69052125514E+01  0.43940946094E+02  0.71151077268E+01  0.45045681946E+02  0.00000000000E+00 0. -1.
         11    1    3    3    0    0 -0.81857662033E+01 -0.28715557252E+02 -0.53417606811E+01  0.30333552447E+02  0.51100000000E-03 0. -1.
        -11    1    3    3    0    0  0.13797946144E+01 -0.15395132681E+02 -0.15873987731E+01  0.15538139482E+02  0.51100000000E-03 0.  1.
         12    1    3    3    0    0 -0.99240962523E-01  0.16974383903E+00 -0.18594827253E+00  0.27062612510E+00  0.00000000000E+00 0. -1.
</event>
<event>
 7    1  0.2250716E-008  0.4614232E+02  0.7816164E-02  0.1320468E+00
        -11   -1    0    0    0    0  0.00000000000E+00  0.00000000000E+00  0.45593999997E+02  0.45594000000E+02  0.51100000000E-03 0.  1.
         11   -1    0    0    0    0 -0.00000000000E+00 -0.00000000000E+00 -0.45593999997E+02  0.45594000000E+02  0.51100000000E-03 0. -1.
    9900012    2    1    2    0    0  0.33969332435E+02  0.29507670039E+02  0.21202445298E+01  0.46142316810E+02  0.99999913267E+01 0.  0.
         12    1    1    2    0    0 -0.33969332435E+02 -0.29507670039E+02 -0.21202445298E+01  0.45045683190E+02  0.00000000000E+00 0. -1.
         11    1    3    3    0    0  0.55128200894E+01  0.52627415485E+01 -0.19271730253E+01  0.78614012794E+01  0.51100000000E-03 0. -1.
        -11    1    3    3    0    0  0.16675884049E+02  0.16366582561E+02 -0.57881640480E+00  0.23372744003E+02  0.51100000000E-03 0.  1.
         12    1    3    3    0    0  0.11780628296E+02  0.78783459291E+01  0.46262339600E+01  0.14908171527E+02  0.00000000000E+00 0. -1.
</event>
<event>
 7    1  0.2250716E-008  0.4614232E+02  0.7816164E-02  0.1320468E+00
        -11   -1    0    0    0    0  0.00000000000E+00  0.00000000000E+00  0.45593999997E+02  0.45594000000E+02  0.51100000000E-03 0.  1.
         11   -1    0    0    0    0 -0.00000000000E+00 -0.00000000000E+00 -0.45593999997E+02  0.45594000000E+02  0.51100000000E-03 0. -1.
    9900012    2    1    2    0    0 -0.44502843066E+02 -0.41140822027E+01  0.56289168231E+01  0.46142318543E+02  0.10000007132E+02 0.  0.
         12    1    1    2    0    0  0.44502843066E+02  0.41140822027E+01 -0.56289168231E+01  0.45045681457E+02  0.00000000000E+00 0. -1.
         11    1    3    3    0    0 -0.38969908880E+01  0.10736831115E+01  0.21487178249E+01  0.45778075492E+01  0.51100000000E-03 0. -1.
        -11    1    3    3    0    0 -0.35908718045E+02 -0.27220411624E+01  0.20496248566E+01  0.36070022207E+02  0.51100000000E-03 0.  1.
         12    1    3    3    0    0 -0.46971341327E+01 -0.24657241517E+01  0.14305741416E+01  0.54944887867E+01  0.00000000000E+00 0. -1.
</event>
<event>
 7    1  0.2250716E-008  0.4614232E+02  0.7816164E-02  0.1320468E+00
        -11   -1    0    0    0    0  0.00000000000E+00  0.00000000000E+00  0.45593999997E+02  0.45594000000E+02  0.51100000000E-03 0.  1.
         11   -1    0    0    0    0 -0.00000000000E+00 -0.00000000000E+00 -0.45593999997E+02  0.45594000000E+02  0.51100000000E-03 0. -1.
    9900012    2    1    2    0    0  0.57587349862E+01 -0.42167874758E+02  0.14758753252E+02  0.46142317768E+02  0.10000000060E+02 0.  0.
         12    1    1    2    0    0 -0.57587349862E+01  0.42167874758E+02 -0.14758753252E+02  0.45045682232E+02  0.00000000000E+00 0. -1.
         11    1    3    3    0    0  0.51045688843E+01 -0.14229583474E+02  0.23000982595E+01  0.15291439488E+02  0.51100000000E-03 0. -1.
        -11    1    3    3    0    0  0.48688268895E+00 -0.10018012139E+02  0.24514549006E+01  0.10325078855E+02  0.51100000000E-03 0.  1.
         12    1    3    3    0    0  0.16728341295E+00 -0.17920279144E+02  0.10007200092E+02  0.20525799425E+02  0.00000000000E+00 0. -1.
</event>
<event>
 7    1  0.2250716E-008  0.4614232E+02  0.7816164E-02  0.1320468E+00
        -11   -1    0    0    0    0  0.00000000000E+00  0.00000000000E+00  0.45593999997E+02  0.45594000000E+02  0.51100000000E-03 0. -1.
         11   -1    0    0    0    0 -0.00000000000E+00 -0.00000000000E+00 -0.45593999997E+02  0.45594000000E+02  0.51100000000E-03 0.  1.
    9900012    2    1    2    0    0  0.90480098543E+01  0.36226944328E+02 -0.25196332964E+02  0.46142321267E+02  0.10000031970E+02 0.  0.
         12    1    1    2    0    0 -0.90480098543E+01 -0.36226944328E+02  0.25196332964E+02  0.45045678733E+02  0.00000000000E+00 0. -1.
         11    1    3    3    0    0  0.18515007683E+01  0.10382652106E+02 -0.35398688846E+01  0.11124665920E+02  0.51100000000E-03 0. -1.
        -11    1    3    3    0    0  0.58377562537E+01  0.24210447736E+02 -0.17789965438E+02  0.30605686533E+02  0.51100000000E-03 0.  1.
         12    1    3    3    0    0  0.13587528323E+01  0.16338444861E+01 -0.38664986421E+01  0.44119688138E+01  0.00000000000E+00 0. -1.
</event>
<event>
 7    1  0.2250716E-008  0.4614232E+02  0.7816164E-02  0.1320468E+00
        -11   -1    0    0    0    0  0.00000000000E+00  0.00000000000E+00  0.45593999997E+02  0.45594000000E+02  0.51100000000E-03 0.  1.
         11   -1    0    0    0    0 -0.00000000000E+00 -0.00000000000E+00 -0.45593999997E+02  0.45594000000E+02  0.51100000000E-03 0. -1.
    9900012    2    1    2    0    0 -0.26512542167E+02  0.87264479621E+01  0.35356015133E+02  0.46142316607E+02  0.99999894794E+01 0.  0.
         12    1    1    2    0    0  0.26512542167E+02 -0.87264479621E+01 -0.35356015133E+02  0.45045683393E+02  0.00000000000E+00 0. -1.
         11    1    3    3    0    0 -0.70643902200E+01  0.11166146529E+01  0.97572758537E+01  0.12097804338E+02  0.51100000000E-03 0. -1.
        -11    1    3    3    0    0 -0.16268670435E+02  0.56416311532E+01  0.24847037657E+02  0.30230331133E+02  0.51100000000E-03 0.  1.
         12    1    3    3    0    0 -0.31794815118E+01  0.19682021560E+01  0.75170162255E+00  0.38141811363E+01  0.00000000000E+00 0. -1.
</event>
<event>
 7    1  0.2250716E-008  0.4614232E+02  0.7816164E-02  0.1320468E+00
        -11   -1    0    0    0    0  0.00000000000E+00  0.00000000000E+00  0.45593999997E+02  0.45594000000E+02  0.51100000000E-03 0. -1.
         11   -1    0    0    0    0 -0.00000000000E+00 -0.00000000000E+00 -0.45593999997E+02  0.45594000000E+02  0.51100000000E-03 0.  1.
    9900012    2    1    2    0    0 -0.36849442046E+02  0.46116569979E+01 -0.25494406813E+02  0.46142317209E+02  0.99999949631E+01 0.  0.
         12    1    1    2    0    0  0.36849442046E+02 -0.46116569979E+01  0.25494406813E+02  0.45045682791E+02  0.00000000000E+00 0. -1.
         11    1    3    3    0    0 -0.20569811148E+02  0.40136524318E+01 -0.16517509016E+02  0.26684351985E+02  0.51100000000E-03 0. -1.
        -11    1    3    3    0    0 -0.55480771171E+01 -0.24467596533E+01 -0.38367136118E+01  0.71755253535E+01  0.51100000000E-03 0.  1.
         12    1    3    3    0    0 -0.10731553781E+02  0.30447642195E+01 -0.51401841855E+01  0.12282439870E+02  0.00000000000E+00 0. -1.
</event>
<event>
 7    1  0.2250716E-008  0.4614232E+02  0.7816164E-02  0.1320468E+00
        -11   -1    0    0    0    0  0.00000000000E+00  0.00000000000E+00  0.45593999997E+02  0.45594000000E+02  0.51100000000E-03 0.  1.
         11   -1    0    0    0    0 -0.00000000000E+00 -0.00000000000E+00 -0.45593999997E+02  0.45594000000E+02  0.51100000000E-03 0. -1.
    9900012    2    1    2    0    0 -0.17463762428E+01 -0.13796758208E+02  0.42845222485E+02  0.46142318111E+02  0.10000003190E+02 0.  0.
         12    1    1    2    0    0  0.17463762428E+01  0.13796758208E+02 -0.42845222485E+02  0.45045681889E+02  0.00000000000E+00 0. -1.
         11    1    3    3    0    0  0.23830328056E+00 -0.44138543566E+01  0.16597562712E+02  0.17176087651E+02  0.51100000000E-03 0. -1.
        -11    1    3    3    0    0 -0.31328644470E+01 -0.99684528957E+01  0.25280412069E+02  0.27354782532E+02  0.51100000000E-03 0.  1.
         12    1    3    3    0    0  0.11481849236E+01  0.58554904425E+00  0.96724770445E+00  0.16114479278E+01  0.00000000000E+00 0. -1.
</event>
<event>
 7    1  0.2250716E-008  0.4614232E+02  0.7816164E-02  0.1320468E+00
        -11   -1    0    0    0    0  0.00000000000E+00  0.00000000000E+00  0.45593999997E+02  0.45594000000E+02  0.51100000000E-03 0.  1.
         11   -1    0    0    0    0 -0.00000000000E+00 -0.00000000000E+00 -0.45593999997E+02  0.45594000000E+02  0.51100000000E-03 0. -1.
    9900012    2    1    2    0    0  0.41602974107E+02 -0.88997338654E+01  0.14802054698E+02  0.46142317180E+02  0.99999947003E+01 0.  0.
         12    1    1    2    0    0 -0.41602974107E+02  0.88997338654E+01 -0.14802054698E+02  0.45045682820E+02  0.00000000000E+00 0. -1.
         11    1    3    3    0    0  0.82341027962E+01 -0.36036790101E+01  0.34148162203E+00  0.89946406946E+01  0.51100000000E-03 0. -1.
        -11    1    3    3    0    0  0.31564994164E+02 -0.58531627018E+01  0.14573959832E+02  0.35256328165E+02  0.51100000000E-03 0.  1.
        -12    1    3    3    0    0  0.18038771468E+01  0.55710784644E+00 -0.11338675634E+00  0.18913483206E+01  0.00000000000E+00 0.  1.
</event>
<event>
 7    1  0.2250716E-008  0.4614232E+02  0.7816164E-02  0.1320468E+00
        -11   -1    0    0    0    0  0.00000000000E+00  0.00000000000E+00  0.45593999997E+02  0.45594000000E+02  0.51100000000E-03 0.  1.
         11   -1    0    0    0    0 -0.00000000000E+00 -0.00000000000E+00 -0.45593999997E+02  0.45594000000E+02  0.51100000000E-03 0. -1.
    9900012    2    1    2    0    0 -0.42090907283E+02 -0.71130283537E+01  0.14383107913E+02  0.46142318281E+02  0.10000004745E+02 0.  0.
         12    1    1    2    0    0  0.42090907283E+02  0.71130283537E+01 -0.14383107913E+02  0.45045681719E+02  0.00000000000E+00 0. -1.
         11    1    3    3    0    0 -0.25956642137E+02 -0.47154440055E+01  0.13193145140E+02  0.29496470334E+02  0.51100000000E-03 0.  1.
        -11    1    3    3    0    0 -0.80581095976E+01  0.22646777425E+00  0.12261812216E+01  0.81540136490E+01  0.51100000000E-03 0. -1.
        -12    1    3    3    0    0 -0.80761555484E+01 -0.26240521224E+01 -0.36218448670E-01  0.84918342989E+01  0.00000000000E+00 0.  1.
</event>
<event>
 7    1  0.2250716E-008  0.4614232E+02  0.7816164E-02  0.1320468E+00
        -11   -1    0    0    0    0  0.00000000000E+00  0.00000000000E+00  0.45593999997E+02  0.45594000000E+02  0.51100000000E-03 0. -1.
         11   -1    0    0    0    0 -0.00000000000E+00 -0.00000000000E+00 -0.45593999997E+02  0.45594000000E+02  0.51100000000E-03 0.  1.
    9900012    2    1    2    0    0  0.25722336900E+02 -0.34102580525E+02 -0.14299962715E+02  0.46142317103E+02  0.99999939969E+01 0.  0.
         12    1    1    2    0    0 -0.25722336900E+02  0.34102580525E+02  0.14299962715E+02  0.45045682897E+02  0.00000000000E+00 0. -1.
         11    1    3    3    0    0  0.11096316857E+02 -0.16910450045E+02 -0.10222594014E+02  0.22662590257E+02  0.51100000000E-03 0. -1.
        -11    1    3    3    0    0  0.54373739314E+01 -0.74805937069E+01 -0.40854723261E+01  0.10110163296E+02  0.51100000000E-03 0.  1.
         12    1    3    3    0    0  0.91886461117E+01 -0.97115367725E+01  0.81036255169E-02  0.13369563550E+02  0.00000000000E+00 0. -1.
</event>
<event>
 7    1  0.2250716E-008  0.4614232E+02  0.7816164E-02  0.1320468E+00
        -11   -1    0    0    0    0  0.00000000000E+00  0.00000000000E+00  0.45593999997E+02  0.45594000000E+02  0.51100000000E-03 0.  1.
         11   -1    0    0    0    0 -0.00000000000E+00 -0.00000000000E+00 -0.45593999997E+02  0.45594000000E+02  0.51100000000E-03 0. -1.
    9900012    2    1    2    0    0  0.16217019921E+02 -0.40896388565E+02  0.96750846107E+01  0.46142316577E+02  0.99999892050E+01 0.  0.
         12    1    1    2    0    0 -0.16217019921E+02  0.40896388565E+02 -0.96750846107E+01  0.45045683423E+02  0.00000000000E+00 0. -1.
         11    1    3    3    0    0  0.19804984552E+01 -0.12392433127E+02  0.50005317237E+01  0.13509259444E+02  0.51100000000E-03 0. -1.
        -11    1    3    3    0    0  0.76962036477E+00 -0.18477995043E+01  0.16895890647E+01  0.26194255062E+01  0.51100000000E-03 0.  1.
        -12    1    3    3    0    0  0.13466901101E+02 -0.26656155934E+02  0.29849638223E+01  0.30013631627E+02  0.00000000000E+00 0.  1.
</event>
<event>
 7    1  0.2250716E-008  0.4614232E+02  0.7816164E-02  0.1320468E+00
        -11   -1    0    0    0    0  0.00000000000E+00  0.00000000000E+00  0.45593999997E+02  0.45594000000E+02  0.51100000000E-03 0.  1.
         11   -1    0    0    0    0 -0.00000000000E+00 -0.00000000000E+00 -0.45593999997E+02  0.45594000000E+02  0.51100000000E-03 0. -1.
    9900012    2    1    2    0    0 -0.40036203110E+02 -0.20951835989E+01  0.20538400470E+02  0.46142320433E+02  0.10000024366E+02 0.  0.
         12    1    1    2    0    0  0.40036203110E+02  0.20951835989E+01 -0.20538400470E+02  0.45045679567E+02  0.00000000000E+00 0. -1.
         11    1    3    3    0    0 -0.40359876910E+00 -0.12358575800E+01  0.76011983055E+00  0.15059941376E+01  0.51100000000E-03 0. -1.
        -11    1    3    3    0    0 -0.32370926687E+02 -0.22649918201E+01  0.17650996569E+02  0.36940015737E+02  0.51100000000E-03 0.  1.
        -12    1    3    3    0    0 -0.72616776540E+01  0.14056658013E+01  0.21272840700E+01  0.76963105583E+01  0.00000000000E+00 0.  1.
</event>
<event>
 7    1  0.2250716E-008  0.4614233E+02  0.7816164E-02  0.1320468E+00
        -11   -1    0    0    0    0  0.00000000000E+00  0.00000000000E+00  0.45593999997E+02  0.45594000000E+02  0.51100000000E-03 0.  1.
         11   -1    0    0    0    0 -0.00000000000E+00 -0.00000000000E+00 -0.45593999997E+02  0.45594000000E+02  0.51100000000E-03 0. -1.
    9900012    2    1    2    0    0  0.34306944759E+02  0.13118919108E+02  0.26077580176E+02  0.46142326677E+02  0.10000081305E+02 0.  0.
         12    1    1    2    0    0 -0.34306944759E+02 -0.13118919108E+02 -0.26077580176E+02  0.45045673323E+02  0.00000000000E+00 0. -1.
         11    1    3    3    0    0  0.40435804938E+01 -0.21683780816E+00  0.40788293755E+00  0.40698809069E+01  0.51100000000E-03 0. -1.
        -11    1    3    3    0    0  0.31269388648E+01  0.22530893440E+01  0.17216878410E+01  0.42211808228E+01  0.51100000000E-03 0.  1.
        -12    1    3    3    0    0  0.27136425400E+02  0.11082667572E+02  0.23948009398E+02  0.37851264948E+02  0.00000000000E+00 0.  1.
</event>
<event>
 7    1  0.2250716E-008  0.4614232E+02  0.7816164E-02  0.1320468E+00
        -11   -1    0    0    0    0  0.00000000000E+00  0.00000000000E+00  0.45593999997E+02  0.45594000000E+02  0.51100000000E-03 0. -1.
         11   -1    0    0    0    0 -0.00000000000E+00 -0.00000000000E+00 -0.45593999997E+02  0.45594000000E+02  0.51100000000E-03 0.  1.
    9900012    2    1    2    0    0  0.25154456976E+02 -0.13946230403E+02 -0.34667989075E+02  0.46142317469E+02  0.99999973342E+01 0.  0.
         12    1    1    2    0    0 -0.25154456976E+02  0.13946230403E+02  0.34667989075E+02  0.45045682531E+02  0.00000000000E+00 0. -1.
         11    1    3    3    0    0 -0.35378486477E+00 -0.17872453654E+01 -0.18241567957E+01  0.25781695063E+01  0.51100000000E-03 0. -1.
        -11    1    3    3    0    0  0.63852423375E+01 -0.30120015061E+01 -0.54088114084E+01  0.88937457740E+01  0.51100000000E-03 0.  1.
         12    1    3    3    0    0  0.19122999503E+02 -0.91469835319E+01 -0.27435020871E+02  0.34670402188E+02  0.00000000000E+00 0. -1.
</event>
<event>
 7    1  0.2250716E-008  0.4614232E+02  0.7816164E-02  0.1320468E+00
        -11   -1    0    0    0    0  0.00000000000E+00  0.00000000000E+00  0.45593999997E+02  0.45594000000E+02  0.51100000000E-03 0. -1.
         11   -1    0    0    0    0 -0.00000000000E+00 -0.00000000000E+00 -0.45593999997E+02  0.45594000000E+02  0.51100000000E-03 0.  1.
    9900012    2    1    2    0    0 -0.24150352876E+02 -0.10191254924E+02 -0.36633486275E+02  0.46142317215E+02  0.99999950207E+01 0.  0.
         12    1    1    2    0    0  0.24150352876E+02  0.10191254924E+02  0.36633486275E+02  0.45045682785E+02  0.00000000000E+00 0. -1.
         11    1    3    3    0    0 -0.33305857163E+01 -0.26387317788E+01 -0.74013301191E+01  0.85343654953E+01  0.51100000000E-03 0. -1.
        -11    1    3    3    0    0 -0.92589806235E+01 -0.63926928700E+01 -0.19216517513E+02  0.22268133957E+02  0.51100000000E-03 0.  1.
         12    1    3    3    0    0 -0.11560786536E+02 -0.11598302747E+01 -0.10015638642E+02  0.15339817763E+02  0.00000000000E+00 0. -1.
</event>
<event>
 7    1  0.2250716E-008  0.4614232E+02  0.7816164E-02  0.1320468E+00
        -11   -1    0    0    0    0  0.00000000000E+00  0.00000000000E+00  0.45593999997E+02  0.45594000000E+02  0.51100000000E-03 0.  1.
         11   -1    0    0    0    0 -0.00000000000E+00 -0.00000000000E+00 -0.45593999997E+02  0.45594000000E+02  0.51100000000E-03 0. -1.
    9900012    2    1    2    0    0 -0.11606822242E+02  0.19579650687E+01  0.43480588021E+02  0.46142317805E+02  0.10000000402E+02 0.  0.
         12    1    1    2    0    0  0.11606822242E+02 -0.19579650687E+01 -0.43480588021E+02  0.45045682195E+02  0.00000000000E+00 0. -1.
         11    1    3    3    0    0 -0.92891383067E+01 -0.21714343002E+01  0.33993166220E+02  0.35306353073E+02  0.51100000000E-03 0. -1.
        -11    1    3    3    0    0 -0.16532241730E+01  0.12716496749E+01  0.55247482919E+01  0.59053439368E+01  0.51100000000E-03 0.  1.
         12    1    3    3    0    0 -0.66445976221E+00  0.28577496940E+01  0.39626735092E+01  0.49306207956E+01  0.00000000000E+00 0. -1.
</event>
<event>
 7    1  0.2250716E-008  0.4614232E+02  0.7816164E-02  0.1320468E+00
        -11   -1    0    0    0    0  0.00000000000E+00  0.00000000000E+00  0.45593999997E+02  0.45594000000E+02  0.51100000000E-03 0. -1.
         11   -1    0    0    0    0 -0.00000000000E+00 -0.00000000000E+00 -0.45593999997E+02  0.45594000000E+02  0.51100000000E-03 0.  1.
    9900012    2    1    2    0    0  0.32634209576E+02  0.12716856062E+02 -0.28326726516E+02  0.46142317655E+02  0.99999990368E+01 0.  0.
         12    1    1    2    0    0 -0.32634209576E+02 -0.12716856062E+02  0.28326726516E+02  0.45045682345E+02  0.00000000000E+00 0. -1.
         11    1    3    3    0    0  0.20733201147E+01  0.26335220320E+01 -0.55050680749E+01  0.64451430831E+01  0.51100000000E-03 0. -1.
        -11    1    3    3    0    0  0.48438292497E+01  0.60112610951E+00 -0.19951471289E+01  0.52730111632E+01  0.51100000000E-03 0.  1.
         12    1    3    3    0    0  0.25717060212E+02  0.94822079204E+01 -0.20826511312E+02  0.34424163409E+02  0.00000000000E+00 0. -1.
</event>
<event>
 7    1  0.2250716E-008  0.4614232E+02  0.7816164E-02  0.1320468E+00
        -11   -1    0    0    0    0  0.00000000000E+00  0.00000000000E+00  0.45593999997E+02  0.45594000000E+02  0.51100000000E-03 0.  1.
         11   -1    0    0    0    0 -0.00000000000E+00 -0.00000000000E+00 -0.45593999997E+02  0.45594000000E+02  0.51100000000E-03 0. -1.
    9900012    2    1    2    0    0  0.15921879194E+02 -0.92048768789E+01  0.41120281096E+02  0.46142317490E+02  0.99999975249E+01 0.  0.
         12    1    1    2    0    0 -0.15921879194E+02  0.92048768789E+01 -0.41120281096E+02  0.45045682510E+02  0.00000000000E+00 0. -1.
         11    1    3    3    0    0  0.57178340939E+01 -0.20552667303E+01  0.22280307774E+02  0.23093935629E+02  0.51100000000E-03 0. -1.
        -11    1    3    3    0    0  0.85089319514E+01 -0.51523193631E+01  0.17441794938E+02  0.20078957361E+02  0.51100000000E-03 0.  1.
         12    1    3    3    0    0  0.16951131489E+01 -0.19972907854E+01  0.13981783834E+01  0.29694245000E+01  0.00000000000E+00 0. -1.
</event>
<event>
 7    1  0.2250716E-008  0.4614232E+02  0.7816164E-02  0.1320468E+00
        -11   -1    0    0    0    0  0.00000000000E+00  0.00000000000E+00  0.45593999997E+02  0.45594000000E+02  0.51100000000E-03 0.  1.
         11   -1    0    0    0    0 -0.00000000000E+00 -0.00000000000E+00 -0.45593999997E+02  0.45594000000E+02  0.51100000000E-03 0. -1.
    9900012    2    1    2    0    0  0.11696004150E+02 -0.45663924371E+01  0.43260432688E+02  0.46142317750E+02  0.99999998999E+01 0.  0.
         12    1    1    2    0    0 -0.11696004150E+02  0.45663924371E+01 -0.43260432688E+02  0.45045682250E+02  0.00000000000E+00 0. -1.
         11    1    3    3    0    0  0.13474449821E+00 -0.32060473338E+01  0.52285649341E+01  0.61347198075E+01  0.51100000000E-03 0. -1.
        -11    1    3    3    0    0  0.75015037124E+01 -0.26027869807E+01  0.20899703499E+02  0.22357206101E+02  0.51100000000E-03 0.  1.
        -12    1    3    3    0    0  0.40597559394E+01  0.12424418774E+01  0.17132164255E+02  0.17650391842E+02  0.00000000000E+00 0.  1.
</event>
<event>
 7    1  0.2250716E-008  0.4614232E+02  0.7816164E-02  0.1320468E+00
        -11   -1    0    0    0    0  0.00000000000E+00  0.00000000000E+00  0.45593999997E+02  0.45594000000E+02  0.51100000000E-03 0.  1.
         11   -1    0    0    0    0 -0.00000000000E+00 -0.00000000000E+00 -0.45593999997E+02  0.45594000000E+02  0.51100000000E-03 0. -1.
    9900012    2    1    2    0    0  0.42898604782E+01  0.60813020735E+01  0.44426657521E+02  0.46142322779E+02  0.10000045758E+02 0.  0.
         12    1    1    2    0    0 -0.42898604782E+01 -0.60813020735E+01 -0.44426657521E+02  0.45045677221E+02  0.00000000000E+00 0. -1.
         11    1    3    3    0    0  0.38703890492E+01  0.66309233245E+01  0.20876048944E+02  0.22243166935E+02  0.51100000000E-03 0. -1.
        -11    1    3    3    0    0  0.21507129583E+01 -0.51848915931E+00  0.16020507149E+02  0.16172539900E+02  0.51100000000E-03 0.  1.
         12    1    3    3    0    0 -0.17312415293E+01 -0.31132091732E-01  0.75301014267E+01  0.77266159434E+01  0.00000000000E+00 0. -1.
</event>
<event>
 7    1  0.2250716E-008  0.4614232E+02  0.7816164E-02  0.1320468E+00
        -11   -1    0    0    0    0  0.00000000000E+00  0.00000000000E+00  0.45593999997E+02  0.45594000000E+02  0.51100000000E-03 0. -1.
         11   -1    0    0    0    0 -0.00000000000E+00 -0.00000000000E+00 -0.45593999997E+02  0.45594000000E+02  0.51100000000E-03 0.  1.
    9900012    2    1    2    0    0 -0.28343687031E+02  0.33564181575E+02  0.99596511104E+01  0.46142317304E+02  0.99999958332E+01 0.  0.
         12    1    1    2    0    0  0.28343687031E+02 -0.33564181575E+02 -0.99596511104E+01  0.45045682696E+02  0.00000000000E+00 0. -1.
         11    1    3    3    0    0 -0.11679520817E+02  0.15176936836E+02  0.16200848270E+01  0.19219138725E+02  0.51100000000E-03 0. -1.
        -11    1    3    3    0    0 -0.55364327998E+01  0.10195810769E+02  0.53963612774E+01  0.12795599270E+02  0.51100000000E-03 0.  1.
        -12    1    3    3    0    0 -0.11127733414E+02  0.81914339702E+01  0.29432050060E+01  0.14127579309E+02  0.00000000000E+00 0.  1.
</event>
<event>
 7    1  0.2250716E-008  0.4614232E+02  0.7816164E-02  0.1320468E+00
        -11   -1    0    0    0    0  0.00000000000E+00  0.00000000000E+00  0.45593999997E+02  0.45594000000E+02  0.51100000000E-03 0.  1.
         11   -1    0    0    0    0 -0.00000000000E+00 -0.00000000000E+00 -0.45593999997E+02  0.45594000000E+02  0.51100000000E-03 0. -1.
    9900012    2    1    2    0    0  0.20392682608E+02  0.25986075179E+02  0.30626393068E+02  0.46142316971E+02  0.99999927953E+01 0.  0.
         12    1    1    2    0    0 -0.20392682608E+02 -0.25986075179E+02 -0.30626393068E+02  0.45045683029E+02  0.00000000000E+00 0. -1.
         11    1    3    3    0    0  0.36101025940E+01  0.50210004693E+01  0.74067801068E+01  0.96490247312E+01  0.51100000000E-03 0. -1.
        -11    1    3    3    0    0  0.87662639727E+01  0.16121492686E+02  0.12223852990E+02  0.22049319550E+02  0.51100000000E-03 0.  1.
         12    1    3    3    0    0  0.80163160413E+01  0.48435820242E+01  0.10995759972E+02  0.14443972690E+02  0.00000000000E+00 0. -1.
</event>
<event>
 7    1  0.2250716E-008  0.4614232E+02  0.7816164E-02  0.1320468E+00
        -11   -1    0    0    0    0  0.00000000000E+00  0.00000000000E+00  0.45593999997E+02  0.45594000000E+02  0.51100000000E-03 0.  1.
         11   -1    0    0    0    0 -0.00000000000E+00 -0.00000000000E+00 -0.45593999997E+02  0.45594000000E+02  0.51100000000E-03 0. -1.
    9900012    2    1    2    0    0 -0.19388242278E+02  0.43900882285E+01  0.40421984541E+02  0.46142315994E+02  0.99999838863E+01 0.  0.
         12    1    1    2    0    0  0.19388242278E+02 -0.43900882285E+01 -0.40421984541E+02  0.45045684006E+02  0.00000000000E+00 0. -1.
         11    1    3    3    0    0 -0.13130213537E+02  0.28162502287E+01  0.26359040641E+02  0.29582643503E+02  0.51100000000E-03 0. -1.
        -11    1    3    3    0    0 -0.32301372398E+01 -0.21405679728E+01  0.52119406629E+01  0.64946242054E+01  0.51100000000E-03 0.  1.
         12    1    3    3    0    0 -0.30278915021E+01  0.37144059725E+01  0.88510032377E+01  0.10065048286E+02  0.00000000000E+00 0. -1.
</event>
<event>
 7    1  0.2250716E-008  0.4614233E+02  0.7816164E-02  0.1320468E+00
        -11   -1    0    0    0    0  0.00000000000E+00  0.00000000000E+00  0.45593999997E+02  0.45594000000E+02  0.51100000000E-03 0.  1.
         11   -1    0    0    0    0 -0.00000000000E+00 -0.00000000000E+00 -0.45593999997E+02  0.45594000000E+02  0.51100000000E-03 0. -1.
    9900012    2    1    2    0    0 -0.21576869471E+01  0.41443552452E+02  0.17518240045E+02  0.46142329985E+02  0.10000111465E+02 0.  0.
         12    1    1    2    0    0  0.21576869471E+01 -0.41443552452E+02 -0.17518240045E+02  0.45045670015E+02  0.00000000000E+00 0. -1.
         11    1    3    3    0    0  0.12921698279E+00  0.11944765673E+02  0.25110744298E+01  0.12206540012E+02  0.51100000000E-03 0. -1.
        -11    1    3    3    0    0  0.13626335386E-01  0.26930538124E+02  0.13951662911E+02  0.30329902202E+02  0.51100000000E-03 0.  1.
         12    1    3    3    0    0 -0.23005302652E+01  0.25682486551E+01  0.10555027040E+01  0.36058877706E+01  0.00000000000E+00 0. -1.
</event>
<event>
 7    1  0.2377816E-008  0.4614232E+02  0.7816164E-02  0.1320468E+00
        -11   -1    0    0    0    0  0.00000000000E+00  0.00000000000E+00  0.45593999997E+02  0.45594000000E+02  0.51100000000E-03 0.  1.
         11   -1    0    0    0    0 -0.00000000000E+00 -0.00000000000E+00 -0.45593999997E+02  0.45594000000E+02  0.51100000000E-03 0. -1.
    9900012    2    1    2    0    0 -0.25191677816E+02  0.27501736445E+02  0.25261577496E+02  0.46142318339E+02  0.10000005272E+02 0.  0.
         12    1    1    2    0    0  0.25191677816E+02 -0.27501736445E+02 -0.25261577496E+02  0.45045681661E+02  0.00000000000E+00 0. -1.
         11    1    3    3    0    0 -0.37477275679E+01  0.40622500795E+01  0.73622118438E+01  0.92059492246E+01  0.51100000000E-03 0.  1.
        -11    1    3    3    0    0 -0.24737128273E+01  0.10922652700E+01  0.30512192579E+01  0.40770378699E+01  0.51100000000E-03 0. -1.
        -12    1    3    3    0    0 -0.18970237421E+02  0.22347221095E+02  0.14848146394E+02  0.32859331245E+02  0.00000000000E+00 0.  1.
</event>
<event>
 7    1  0.2250716E-008  0.4614232E+02  0.7816164E-02  0.1320468E+00
        -11   -1    0    0    0    0  0.00000000000E+00  0.00000000000E+00  0.45593999997E+02  0.45594000000E+02  0.51100000000E-03 0. -1.
         11   -1    0    0    0    0 -0.00000000000E+00 -0.00000000000E+00 -0.45593999997E+02  0.45594000000E+02  0.51100000000E-03 0.  1.
    9900012    2    1    2    0    0  0.11298607390E+02 -0.40765076365E+02 -0.15481069114E+02  0.46142317844E+02  0.10000000756E+02 0.  0.
         12    1    1    2    0    0 -0.11298607390E+02  0.40765076365E+02  0.15481069114E+02  0.45045682156E+02  0.00000000000E+00 0. -1.
         11    1    3    3    0    0  0.27290227067E+01 -0.27182434874E+01 -0.15397801935E+01  0.41481725972E+01  0.51100000000E-03 0. -1.
        -11    1    3    3    0    0  0.31745863638E+01 -0.16651341973E+02 -0.24859606082E+01  0.17132576819E+02  0.51100000000E-03 0.  1.
        -12    1    3    3    0    0  0.53949983194E+01 -0.21395490905E+02 -0.11455328312E+02  0.24861568427E+02  0.00000000000E+00 0.  1.
</event>
<event>
 7    1  0.2250716E-008  0.4614232E+02  0.7816164E-02  0.1320468E+00
        -11   -1    0    0    0    0  0.00000000000E+00  0.00000000000E+00  0.45593999997E+02  0.45594000000E+02  0.51100000000E-03 0.  1.
         11   -1    0    0    0    0 -0.00000000000E+00 -0.00000000000E+00 -0.45593999997E+02  0.45594000000E+02  0.51100000000E-03 0. -1.
    9900012    2    1    2    0    0 -0.30108532360E+02  0.32804891526E+02 -0.68138612545E+01  0.46142319473E+02  0.10000015613E+02 0.  0.
         12    1    1    2    0    0  0.30108532360E+02 -0.32804891526E+02  0.68138612545E+01  0.45045680527E+02  0.00000000000E+00 0. -1.
         11    1    3    3    0    0 -0.42268567671E+01  0.21549982734E+01 -0.46259905904E+00  0.47670047030E+01  0.51100000000E-03 0. -1.
        -11    1    3    3    0    0 -0.12366891107E+02  0.12577477926E+02  0.92845477028E+00  0.17663379494E+02  0.51100000000E-03 0.  1.
         12    1    3    3    0    0 -0.13514784487E+02  0.18072415326E+02 -0.72797169657E+01  0.23711935276E+02  0.00000000000E+00 0. -1.
</event>
<event>
 7    1  0.2250716E-008  0.4614232E+02  0.7816164E-02  0.1320468E+00
        -11   -1    0    0    0    0  0.00000000000E+00  0.00000000000E+00  0.45593999997E+02  0.45594000000E+02  0.51100000000E-03 0. -1.
         11   -1    0    0    0    0 -0.00000000000E+00 -0.00000000000E+00 -0.45593999997E+02  0.45594000000E+02  0.51100000000E-03 0.  1.
    9900012    2    1    2    0    0  0.14293204067E+02 -0.21523280538E+02 -0.36899407119E+02  0.46142317262E+02  0.99999954448E+01 0.  0.
         12    1    1    2    0    0 -0.14293204067E+02  0.21523280538E+02  0.36899407119E+02  0.45045682738E+02  0.00000000000E+00 0. -1.
         11    1    3    3    0    0  0.10042426001E+00 -0.52384791307E+01 -0.96330460122E+01  0.10965734101E+02  0.51100000000E-03 0. -1.
        -11    1    3    3    0    0  0.69110305454E+01 -0.73479126737E+01 -0.86915203483E+01  0.13315280323E+02  0.51100000000E-03 0.  1.
        -12    1    3    3    0    0  0.72817492620E+01 -0.89368887342E+01 -0.18574840758E+02  0.21861302838E+02  0.00000000000E+00 0.  1.
</event>
<event>
 7    1  0.2250716E-008  0.4614232E+02  0.7816164E-02  0.1320468E+00
        -11   -1    0    0    0    0  0.00000000000E+00  0.00000000000E+00  0.45593999997E+02  0.45594000000E+02  0.51100000000E-03 0.  1.
         11   -1    0    0    0    0 -0.00000000000E+00 -0.00000000000E+00 -0.45593999997E+02  0.45594000000E+02  0.51100000000E-03 0. -1.
    9900012    2    1    2    0    0  0.15286675922E+02 -0.25065437203E+02  0.34163649147E+02  0.46142317344E+02  0.99999961950E+01 0.  0.
         12    1    1    2    0    0 -0.15286675922E+02  0.25065437203E+02 -0.34163649147E+02  0.45045682656E+02  0.00000000000E+00 0. -1.
         11    1    3    3    0    0  0.69639356298E+01 -0.52606985373E+01  0.72431446418E+01  0.11341714734E+02  0.51100000000E-03 0. -1.
        -11    1    3    3    0    0  0.59568793564E+01 -0.78569471285E+01  0.12665243950E+02  0.16050683301E+02  0.51100000000E-03 0.  1.
        -12    1    3    3    0    0  0.23658609359E+01 -0.11947791537E+02  0.14255260556E+02  0.18749919309E+02  0.00000000000E+00 0.  1.
</event>
<event>
 7    1  0.2250716E-008  0.4614232E+02  0.7816164E-02  0.1320468E+00
        -11   -1    0    0    0    0  0.00000000000E+00  0.00000000000E+00  0.45593999997E+02  0.45594000000E+02  0.51100000000E-03 0.  1.
         11   -1    0    0    0    0 -0.00000000000E+00 -0.00000000000E+00 -0.45593999997E+02  0.45594000000E+02  0.51100000000E-03 0. -1.
    9900012    2    1    2    0    0  0.24549861295E+02 -0.32941570896E+02  0.18473516101E+02  0.46142316745E+02  0.99999907382E+01 0.  0.
         12    1    1    2    0    0 -0.24549861295E+02  0.32941570896E+02 -0.18473516101E+02  0.45045683255E+02  0.00000000000E+00 0. -1.
         11    1    3    3    0    0  0.50656440774E+01 -0.19897640600E+01  0.18911783817E+01  0.57616375160E+01  0.51100000000E-03 0. -1.
        -11    1    3    3    0    0  0.98840148530E+01 -0.19597112780E+02  0.10033745884E+02  0.24133309670E+02  0.51100000000E-03 0.  1.
        -12    1    3    3    0    0  0.96002023648E+01 -0.11354694057E+02  0.65485918355E+01  0.16247369559E+02  0.00000000000E+00 0.  1.
</event>
<event>
 7    1  0.2250716E-008  0.4614232E+02  0.7816164E-02  0.1320468E+00
        -11   -1    0    0    0    0  0.00000000000E+00  0.00000000000E+00  0.45593999997E+02  0.45594000000E+02  0.51100000000E-03 0. -1.
         11   -1    0    0    0    0 -0.00000000000E+00 -0.00000000000E+00 -0.45593999997E+02  0.45594000000E+02  0.51100000000E-03 0.  1.
    9900012    2    1    2    0    0 -0.11182435969E+02  0.17820111133E+02 -0.39831018470E+02  0.46142320214E+02  0.10000022369E+02 0.  0.
         12    1    1    2    0    0  0.11182435969E+02 -0.17820111133E+02  0.39831018470E+02  0.45045679786E+02  0.00000000000E+00 0. -1.
         11    1    3    3    0    0  0.47648523583E+00  0.39031527563E+01 -0.80388388547E+01  0.89489982687E+01  0.51100000000E-03 0. -1.
        -11    1    3    3    0    0 -0.27023718642E+01  0.79729105693E+01 -0.11810889582E+02  0.14504041837E+02  0.51100000000E-03 0.  1.
         12    1    3    3    0    0 -0.89565493404E+01  0.59440478072E+01 -0.19981290034E+02  0.22689280108E+02  0.00000000000E+00 0. -1.
</event>
<event>
 7    1  0.2250716E-008  0.4614232E+02  0.7816164E-02  0.1320468E+00
        -11   -1    0    0    0    0  0.00000000000E+00  0.00000000000E+00  0.45593999997E+02  0.45594000000E+02  0.51100000000E-03 0.  1.
         11   -1    0    0    0    0 -0.00000000000E+00 -0.00000000000E+00 -0.45593999997E+02  0.45594000000E+02  0.51100000000E-03 0. -1.
    9900012    2    1    2    0    0  0.35326800900E+02 -0.70673250036E+01  0.27040406022E+02  0.46142317606E+02  0.99999985820E+01 0.  0.
         12    1    1    2    0    0 -0.35326800900E+02  0.70673250036E+01 -0.27040406022E+02  0.45045682394E+02  0.00000000000E+00 0. -1.
         11    1    3    3    0    0  0.13293962096E+02 -0.43567881198E+01  0.12012929704E+02  0.18439672212E+02  0.51100000000E-03 0.  1.
        -11    1    3    3    0    0 -0.48354115219E-02  0.92456906818E+00  0.42687377841E+00  0.10183677267E+01  0.51100000000E-03 0. -1.
         12    1    3    3    0    0  0.22037674215E+02 -0.36351059520E+01  0.14600602540E+02  0.26684277667E+02  0.00000000000E+00 0. -1.
</event>
<event>
 7    1  0.2250716E-008  0.4614231E+02  0.7816164E-02  0.1320468E+00
        -11   -1    0    0    0    0  0.00000000000E+00  0.00000000000E+00  0.45593999997E+02  0.45594000000E+02  0.51100000000E-03 0. -1.
         11   -1    0    0    0    0 -0.00000000000E+00 -0.00000000000E+00 -0.45593999997E+02  0.45594000000E+02  0.51100000000E-03 0.  1.
    9900012    2    1    2    0    0  0.30612975954E+02 -0.30429805998E+02 -0.12883573303E+02  0.46142313737E+02  0.99999633033E+01 0.  0.
         12    1    1    2    0    0 -0.30612975954E+02  0.30429805998E+02  0.12883573303E+02  0.45045686263E+02  0.00000000000E+00 0. -1.
         11    1    3    3    0    0  0.20415935646E+01 -0.29457304519E+01  0.53499338919E+00  0.36237619080E+01  0.51100000000E-03 0. -1.
        -11    1    3    3    0    0  0.22471892553E+02 -0.24973096544E+02 -0.12561987934E+02  0.35867046812E+02  0.51100000000E-03 0.  1.
         12    1    3    3    0    0  0.60994898368E+01 -0.25109790022E+01 -0.85657875848E+00  0.66515050167E+01  0.00000000000E+00 0. -1.
</event>
<event>
 7    1  0.2250716E-008  0.4614232E+02  0.7816164E-02  0.1320468E+00
        -11   -1    0    0    0    0  0.00000000000E+00  0.00000000000E+00  0.45593999997E+02  0.45594000000E+02  0.51100000000E-03 0. -1.
         11   -1    0    0    0    0 -0.00000000000E+00 -0.00000000000E+00 -0.45593999997E+02  0.45594000000E+02  0.51100000000E-03 0.  1.
    9900012    2    1    2    0    0  0.35596451411E+02 -0.24381903581E+02  0.12943291078E+02  0.46142319195E+02  0.10000013071E+02 0.  0.
         12    1    1    2    0    0 -0.35596451411E+02  0.24381903581E+02 -0.12943291078E+02  0.45045680805E+02  0.00000000000E+00 0. -1.
         11    1    3    3    0    0  0.10879253589E+02 -0.80396193083E+01  0.65231280551E+01  0.15018150257E+02  0.51100000000E-03 0. -1.
        -11    1    3    3    0    0  0.38939644086E+00 -0.73666306975E+00 -0.98258009028E+00  0.12883190449E+01  0.51100000000E-03 0.  1.
        -12    1    3    3    0    0  0.24327801381E+02 -0.15605621203E+02  0.74027431136E+01  0.29835849892E+02  0.00000000000E+00 0.  1.
</event>
<event>
 7    1  0.2250716E-008  0.4614232E+02  0.7816164E-02  0.1320468E+00
        -11   -1    0    0    0    0  0.00000000000E+00  0.00000000000E+00  0.45593999997E+02  0.45594000000E+02  0.51100000000E-03 0.  1.
         11   -1    0    0    0    0 -0.00000000000E+00 -0.00000000000E+00 -0.45593999997E+02  0.45594000000E+02  0.51100000000E-03 0. -1.
    9900012    2    1    2    0    0  0.68959950629E+01  0.12980045486E+02  0.42580244412E+02  0.46142317155E+02  0.99999944763E+01 0.  0.
         12    1    1    2    0    0 -0.68959950629E+01 -0.12980045486E+02 -0.42580244412E+02  0.45045682845E+02  0.00000000000E+00 0. -1.
         11    1    3    3    0    0  0.35616961925E+01  0.63204476598E+01  0.11596503992E+02  0.13678912365E+02  0.51100000000E-03 0. -1.
        -11    1    3    3    0    0  0.25013024042E+01  0.32915694465E+01  0.62889313941E+01  0.75260614852E+01  0.51100000000E-03 0.  1.
        -12    1    3    3    0    0  0.83299646613E+00  0.33680283795E+01  0.24694809027E+02  0.24937343306E+02  0.00000000000E+00 0.  1.
</event>
<event>
 7    1  0.2250716E-008  0.4614232E+02  0.7816164E-02  0.1320468E+00
        -11   -1    0    0    0    0  0.00000000000E+00  0.00000000000E+00  0.45593999997E+02  0.45594000000E+02  0.51100000000E-03 0.  1.
         11   -1    0    0    0    0 -0.00000000000E+00 -0.00000000000E+00 -0.45593999997E+02  0.45594000000E+02  0.51100000000E-03 0. -1.
    9900012    2    1    2    0    0  0.56666235421E+01  0.30224567889E+02  0.32916232809E+02  0.46142317534E+02  0.99999979300E+01 0.  0.
         12    1    1    2    0    0 -0.56666235421E+01 -0.30224567889E+02 -0.32916232809E+02  0.45045682466E+02  0.00000000000E+00 0. -1.
         11    1    3    3    0    0 -0.97441425895E+00  0.14192216207E+02  0.13288393283E+02  0.19466635054E+02  0.51100000000E-03 0. -1.
        -11    1    3    3    0    0  0.45293366344E+01  0.13567045269E+02  0.13147144586E+02  0.19427481018E+02  0.51100000000E-03 0.  1.
         12    1    3    3    0    0  0.21117011666E+01  0.24653064131E+01  0.64806949399E+01  0.72482014619E+01  0.00000000000E+00 0. -1.
</event>
<event>
 7    1  0.2250716E-008  0.4614232E+02  0.7816164E-02  0.1320468E+00
        -11   -1    0    0    0    0  0.00000000000E+00  0.00000000000E+00  0.45593999997E+02  0.45594000000E+02  0.51100000000E-03 0. -1.
         11   -1    0    0    0    0 -0.00000000000E+00 -0.00000000000E+00 -0.45593999997E+02  0.45594000000E+02  0.51100000000E-03 0.  1.
    9900012    2    1    2    0    0  0.44096722247E+02  0.60366886766E+01  0.69390870573E+01  0.46142318162E+02  0.10000003654E+02 0.  0.
         12    1    1    2    0    0 -0.44096722247E+02 -0.60366886766E+01 -0.69390870573E+01  0.45045681838E+02  0.00000000000E+00 0. -1.
         11    1    3    3    0    0  0.49408186878E+01  0.70977962695E+00  0.41750966288E+01  0.65074502338E+01  0.51100000000E-03 0. -1.
        -11    1    3    3    0    0  0.23021652167E+02  0.37618588829E+01  0.14658830036E+01  0.23372994331E+02  0.51100000000E-03 0.  1.
         12    1    3    3    0    0  0.16134251392E+02  0.15650501668E+01  0.12981074249E+01  0.16261873597E+02  0.00000000000E+00 0. -1.
</event>
<event>
 7    1  0.2250716E-008  0.4614232E+02  0.7816164E-02  0.1320468E+00
        -11   -1    0    0    0    0  0.00000000000E+00  0.00000000000E+00  0.45593999997E+02  0.45594000000E+02  0.51100000000E-03 0.  1.
         11   -1    0    0    0    0 -0.00000000000E+00 -0.00000000000E+00 -0.45593999997E+02  0.45594000000E+02  0.51100000000E-03 0. -1.
    9900012    2    1    2    0    0 -0.32932661058E+02  0.44157102883E+01  0.30414713534E+02  0.46142318064E+02  0.10000002762E+02 0.  0.
         12    1    1    2    0    0  0.32932661058E+02 -0.44157102883E+01 -0.30414713534E+02  0.45045681936E+02  0.00000000000E+00 0. -1.
         11    1    3    3    0    0 -0.13914559798E+02  0.31930507562E+00  0.13238392571E+02  0.19208643061E+02  0.51100000000E-03 0. -1.
        -11    1    3    3    0    0 -0.16440206444E+02  0.31878169557E+01  0.17451270678E+02  0.24186554392E+02  0.51100000000E-03 0.  1.
        -12    1    3    3    0    0 -0.25778948166E+01  0.90858825696E+00 -0.27494971469E+00  0.27471206111E+01  0.00000000000E+00 0.  1.
</event>
<event>
 7    1  0.2250716E-008  0.4614231E+02  0.7816164E-02  0.1320468E+00
        -11   -1    0    0    0    0  0.00000000000E+00  0.00000000000E+00  0.45593999997E+02  0.45594000000E+02  0.51100000000E-03 0.  1.
         11   -1    0    0    0    0 -0.00000000000E+00 -0.00000000000E+00 -0.45593999997E+02  0.45594000000E+02  0.51100000000E-03 0. -1.
    9900012    2    1    2    0    0  0.19574940393E+02 -0.39316867786E+02  0.10005981391E+02  0.46142311555E+02  0.99999434056E+01 0.  0.
         12    1    1    2    0    0 -0.19574940393E+02  0.39316867786E+02 -0.10005981391E+02  0.45045688445E+02  0.00000000000E+00 0. -1.
         11    1    3    3    0    0  0.12132083715E+02 -0.31580654796E+02  0.79435182938E+01  0.34750894891E+02  0.51100000000E-03 0. -1.
        -11    1    3    3    0    0  0.14394921434E+01 -0.33864092009E+01  0.14412714380E+01  0.39518563393E+01  0.51100000000E-03 0.  1.
         12    1    3    3    0    0  0.60033645345E+01 -0.43498037895E+01  0.62119165926E+00  0.74395603243E+01  0.00000000000E+00 0. -1.
</event>
<event>
 7    1  0.2250716E-008  0.4614232E+02  0.7816164E-02  0.1320468E+00
        -11   -1    0    0    0    0  0.00000000000E+00  0.00000000000E+00  0.45593999997E+02  0.45594000000E+02  0.51100000000E-03 0.  1.
         11   -1    0    0    0    0 -0.00000000000E+00 -0.00000000000E+00 -0.45593999997E+02  0.45594000000E+02  0.51100000000E-03 0. -1.
    9900012    2    1    2    0    0  0.28422416895E+01 -0.51665958720E+01  0.44658050128E+02  0.46142317722E+02  0.99999996397E+01 0.  0.
         12    1    1    2    0    0 -0.28422416895E+01  0.51665958720E+01 -0.44658050128E+02  0.45045682278E+02  0.00000000000E+00 0. -1.
         11    1    3    3    0    0 -0.15502152204E+01  0.37020139105E-01  0.63284981778E+01  0.65157061910E+01  0.51100000000E-03 0. -1.
        -11    1    3    3    0    0 -0.21043648501E+01 -0.11952782583E+01  0.95285321875E+01  0.98310715309E+01  0.51100000000E-03 0.  1.
        -12    1    3    3    0    0  0.64968217600E+01 -0.40083377528E+01  0.28801019762E+02  0.29795540000E+02  0.00000000000E+00 0.  1.
</event>
<event>
 7    1  0.2250716E-008  0.4614232E+02  0.7816164E-02  0.1320468E+00
        -11   -1    0    0    0    0  0.00000000000E+00  0.00000000000E+00  0.45593999997E+02  0.45594000000E+02  0.51100000000E-03 0.  1.
         11   -1    0    0    0    0 -0.00000000000E+00 -0.00000000000E+00 -0.45593999997E+02  0.45594000000E+02  0.51100000000E-03 0. -1.
    9900012    2    1    2    0    0 -0.27097496896E+01  0.41977194088E+02  0.16114776828E+02  0.46142316532E+02  0.99999887880E+01 0.  0.
         12    1    1    2    0    0  0.27097496896E+01 -0.41977194088E+02 -0.16114776828E+02  0.45045683468E+02  0.00000000000E+00 0. -1.
         11    1    3    3    0    0  0.32087238583E+00  0.16551932988E+02  0.33338399470E+01  0.16887389786E+02  0.51100000000E-03 0. -1.
        -11    1    3    3    0    0 -0.30445986320E+01  0.11904756067E+02  0.89510702092E+01  0.15202449013E+02  0.51100000000E-03 0.  1.
        -12    1    3    3    0    0  0.13976556515E-01  0.13520505033E+02  0.38298666723E+01  0.14052477732E+02  0.00000000000E+00 0.  1.
</event>
<event>
 7    1  0.2250716E-008  0.4614232E+02  0.7816164E-02  0.1320468E+00
        -11   -1    0    0    0    0  0.00000000000E+00  0.00000000000E+00  0.45593999997E+02  0.45594000000E+02  0.51100000000E-03 0.  1.
         11   -1    0    0    0    0 -0.00000000000E+00 -0.00000000000E+00 -0.45593999997E+02  0.45594000000E+02  0.51100000000E-03 0. -1.
    9900012    2    1    2    0    0  0.80981340425E+01 -0.24756980004E+01  0.44242567273E+02  0.46142316362E+02  0.99999872379E+01 0.  0.
         12    1    1    2    0    0 -0.80981340425E+01  0.24756980004E+01 -0.44242567273E+02  0.45045683638E+02  0.00000000000E+00 0. -1.
         11    1    3    3    0    0  0.55977767070E+01 -0.49374709960E+01  0.17909172847E+02  0.19402376046E+02  0.51100000000E-03 0.  1.
        -11    1    3    3    0    0  0.26974837712E+01  0.18020978292E+01  0.13357443824E+02  0.13745736832E+02  0.51100000000E-03 0. -1.
        -12    1    3    3    0    0 -0.19712643570E+00  0.65967516632E+00  0.12975950602E+02  0.12994203484E+02  0.00000000000E+00 0.  1.
</event>
<event>
 7    1  0.2250716E-008  0.4614231E+02  0.7816164E-02  0.1320468E+00
        -11   -1    0    0    0    0  0.00000000000E+00  0.00000000000E+00  0.45593999997E+02  0.45594000000E+02  0.51100000000E-03 0.  1.
         11   -1    0    0    0    0 -0.00000000000E+00 -0.00000000000E+00 -0.45593999997E+02  0.45594000000E+02  0.51100000000E-03 0. -1.
    9900012    2    1    2    0    0  0.89266789351E+01 -0.32280376903E+02  0.30123179435E+02  0.46142309095E+02  0.99999209758E+01 0.  0.
         12    1    1    2    0    0 -0.89266789351E+01  0.32280376903E+02 -0.30123179435E+02  0.45045690905E+02  0.00000000000E+00 0. -1.
         11    1    3    3    0    0  0.42326862408E+01 -0.19811361177E+02  0.17148532816E+02  0.26542001479E+02  0.51100000000E-03 0. -1.
        -11    1    3    3    0    0  0.52923699411E+01 -0.11946324652E+02  0.13385800439E+02  0.18705707844E+02  0.51100000000E-03 0.  1.
         12    1    3    3    0    0 -0.59837724680E+00 -0.52269107433E+00 -0.41115382022E+00  0.89459977227E+00  0.00000000000E+00 0. -1.
</event>
<event>
 7    1  0.2250716E-008  0.4614232E+02  0.7816164E-02  0.1320468E+00
        -11   -1    0    0    0    0  0.00000000000E+00  0.00000000000E+00  0.45593999997E+02  0.45594000000E+02  0.51100000000E-03 0. -1.
         11   -1    0    0    0    0 -0.00000000000E+00 -0.00000000000E+00 -0.45593999997E+02  0.45594000000E+02  0.51100000000E-03 0.  1.
    9900012    2    1    2    0    0 -0.22079513756E+02 -0.27924025441E+02 -0.27601762910E+02  0.46142318295E+02  0.10000004868E+02 0.  0.
         12    1    1    2    0    0  0.22079513756E+02  0.27924025441E+02  0.27601762910E+02  0.45045681705E+02  0.00000000000E+00 0. -1.
         11    1    3    3    0    0  0.32133012180E-01 -0.28072573407E+01 -0.43258733908E+00  0.28405735996E+01  0.51100000000E-03 0. -1.
        -11    1    3    3    0    0 -0.55700711765E+01 -0.81823747874E+01 -0.98996713241E+01  0.13999301506E+02  0.51100000000E-03 0.  1.
        -12    1    3    3    0    0 -0.16541575591E+02 -0.16934393313E+02 -0.17269504247E+02  0.29302443189E+02  0.00000000000E+00 0.  1.
</event>
<event>
 7    1  0.2250716E-008  0.4614232E+02  0.7816164E-02  0.1320468E+00
        -11   -1    0    0    0    0  0.00000000000E+00  0.00000000000E+00  0.45593999997E+02  0.45594000000E+02  0.51100000000E-03 0. -1.
         11   -1    0    0    0    0 -0.00000000000E+00 -0.00000000000E+00 -0.45593999997E+02  0.45594000000E+02  0.51100000000E-03 0.  1.
    9900012    2    1    2    0    0  0.28019835735E+02 -0.23706055252E+02 -0.26115612439E+02  0.46142318040E+02  0.10000002539E+02 0.  0.
         12    1    1    2    0    0 -0.28019835735E+02  0.23706055252E+02  0.26115612439E+02  0.45045681960E+02  0.00000000000E+00 0. -1.
         11    1    3    3    0    0  0.57149644725E+01 -0.27839245556E+01 -0.24167306403E+01  0.68008559831E+01  0.51100000000E-03 0. -1.
        -11    1    3    3    0    0  0.83392729019E+01 -0.56149473483E+01 -0.11587222550E+02  0.15340626876E+02  0.51100000000E-03 0.  1.
        -12    1    3    3    0    0  0.13965598361E+02 -0.15307183348E+02 -0.12111659249E+02  0.24000835181E+02  0.00000000000E+00 0.  1.
</event>
<event>
 7    1  0.2250716E-008  0.4614232E+02  0.7816164E-02  0.1320468E+00
        -11   -1    0    0    0    0  0.00000000000E+00  0.00000000000E+00  0.45593999997E+02  0.45594000000E+02  0.51100000000E-03 0.  1.
         11   -1    0    0    0    0 -0.00000000000E+00 -0.00000000000E+00 -0.45593999997E+02  0.45594000000E+02  0.51100000000E-03 0. -1.
    9900012    2    1    2    0    0 -0.41217270559E+02  0.21847863805E+01  0.18040977808E+02  0.46142316921E+02  0.99999923363E+01 0.  0.
         12    1    1    2    0    0  0.41217270559E+02 -0.21847863805E+01 -0.18040977808E+02  0.45045683079E+02  0.00000000000E+00 0. -1.
         11    1    3    3    0    0 -0.25239588231E+01 -0.10423740068E+01  0.27184316750E+01  0.38531523125E+01  0.51100000000E-03 0. -1.
        -11    1    3    3    0    0 -0.31472016265E+02  0.41278135501E+01  0.14715192994E+02  0.34986619694E+02  0.51100000000E-03 0.  1.
         12    1    3    3    0    0 -0.72212954704E+01 -0.90065316279E+00  0.60735313869E+00  0.73025449143E+01  0.00000000000E+00 0. -1.
</event>
<event>
 7    1  0.2250716E-008  0.4614232E+02  0.7816164E-02  0.1320468E+00
        -11   -1    0    0    0    0  0.00000000000E+00  0.00000000000E+00  0.45593999997E+02  0.45594000000E+02  0.51100000000E-03 0. -1.
         11   -1    0    0    0    0 -0.00000000000E+00 -0.00000000000E+00 -0.45593999997E+02  0.45594000000E+02  0.51100000000E-03 0.  1.
    9900012    2    1    2    0    0  0.30709294271E+02  0.14189391196E+02 -0.29744144803E+02  0.46142315110E+02  0.99999758237E+01 0.  0.
         12    1    1    2    0    0 -0.30709294271E+02 -0.14189391196E+02  0.29744144803E+02  0.45045684890E+02  0.00000000000E+00 0. -1.
         11    1    3    3    0    0  0.57877641280E+01  0.56474158074E+01 -0.70724617603E+01  0.10742962092E+02  0.51100000000E-03 0.  1.
        -11    1    3    3    0    0  0.52656042117E+00  0.17821660460E+01 -0.12733035587E+01  0.22527059077E+01  0.51100000000E-03 0. -1.
        -12    1    3    3    0    0  0.24394969722E+02  0.67598093430E+01 -0.21398379484E+02  0.33146647110E+02  0.00000000000E+00 0.  1.
</event>
<event>
 7    1  0.2250716E-008  0.4614231E+02  0.7816164E-02  0.1320468E+00
        -11   -1    0    0    0    0  0.00000000000E+00  0.00000000000E+00  0.45593999997E+02  0.45594000000E+02  0.51100000000E-03 0. -1.
         11   -1    0    0    0    0 -0.00000000000E+00 -0.00000000000E+00 -0.45593999997E+02  0.45594000000E+02  0.51100000000E-03 0.  1.
    9900012    2    1    2    0    0 -0.10785536869E+02 -0.34553126911E+02 -0.26811702430E+02  0.46142314612E+02  0.99999712862E+01 0.  0.
         12    1    1    2    0    0  0.10785536869E+02  0.34553126911E+02  0.26811702430E+02  0.45045685388E+02  0.00000000000E+00 0. -1.
         11    1    3    3    0    0 -0.38450862538E+01 -0.14744101305E+02 -0.60930074917E+01  0.16410300185E+02  0.51100000000E-03 0. -1.
        -11    1    3    3    0    0 -0.63274723730E+00 -0.15845508269E+00 -0.95813258251E+00  0.11590924839E+01  0.51100000000E-03 0.  1.
         12    1    3    3    0    0 -0.63077033779E+01 -0.19650570522E+02 -0.19760562356E+02  0.28572921943E+02  0.00000000000E+00 0. -1.
</event>
<event>
 7    1  0.2250716E-008  0.4614232E+02  0.7816164E-02  0.1320468E+00
        -11   -1    0    0    0    0  0.00000000000E+00  0.00000000000E+00  0.45593999997E+02  0.45594000000E+02  0.51100000000E-03 0.  1.
         11   -1    0    0    0    0 -0.00000000000E+00 -0.00000000000E+00 -0.45593999997E+02  0.45594000000E+02  0.51100000000E-03 0. -1.
    9900012    2    1    2    0    0  0.19359223954E+02 -0.18761979555E+02  0.36087701989E+02  0.46142315814E+02  0.99999822461E+01 0.  0.
         12    1    1    2    0    0 -0.19359223954E+02  0.18761979555E+02 -0.36087701989E+02  0.45045684186E+02  0.00000000000E+00 0. -1.
         11    1    3    3    0    0  0.11849621946E+02 -0.84676432868E+01  0.18157381187E+02  0.23276705414E+02  0.51100000000E-03 0. -1.
        -11    1    3    3    0    0  0.75806241832E+01 -0.62214459570E+01  0.10337402265E+02  0.14249004831E+02  0.51100000000E-03 0.  1.
        -12    1    3    3    0    0 -0.71022175691E-01 -0.40728903116E+01  0.75929185363E+01  0.86166055694E+01  0.00000000000E+00 0.  1.
</event>
<event>
 7    1  0.2250716E-008  0.4614232E+02  0.7816164E-02  0.1320468E+00
        -11   -1    0    0    0    0  0.00000000000E+00  0.00000000000E+00  0.45593999997E+02  0.45594000000E+02  0.51100000000E-03 0. -1.
         11   -1    0    0    0    0 -0.00000000000E+00 -0.00000000000E+00 -0.45593999997E+02  0.45594000000E+02  0.51100000000E-03 0.  1.
    9900012    2    1    2    0    0  0.33048099548E+02  0.30607428837E+02 -0.34924180302E+00  0.46142317037E+02  0.99999933994E+01 0.  0.
         12    1    1    2    0    0 -0.33048099548E+02 -0.30607428837E+02  0.34924180302E+00  0.45045682963E+02  0.00000000000E+00 0. -1.
         11    1    3    3    0    0  0.82292219390E+01  0.99251062416E+01 -0.84617199338E+00  0.12920674709E+02  0.51100000000E-03 0. -1.
        -11    1    3    3    0    0  0.19597846109E+02  0.19322566442E+02  0.20769882651E+01  0.27599837437E+02  0.51100000000E-03 0.  1.
        -12    1    3    3    0    0  0.52210314995E+01  0.13597561530E+01 -0.15800580748E+01  0.56218048912E+01  0.00000000000E+00 0.  1.
</event>
<event>
 7    1  0.2250716E-008  0.4614232E+02  0.7816164E-02  0.1320468E+00
        -11   -1    0    0    0    0  0.00000000000E+00  0.00000000000E+00  0.45593999997E+02  0.45594000000E+02  0.51100000000E-03 0. -1.
         11   -1    0    0    0    0 -0.00000000000E+00 -0.00000000000E+00 -0.45593999997E+02  0.45594000000E+02  0.51100000000E-03 0.  1.
    9900012    2    1    2    0    0  0.76107172186E+01 -0.42135487749E+02  0.13992539246E+02  0.46142317643E+02  0.99999989249E+01 0.  0.
         12    1    1    2    0    0 -0.76107172186E+01  0.42135487749E+02 -0.13992539246E+02  0.45045682357E+02  0.00000000000E+00 0. -1.
         11    1    3    3    0    0 -0.18624493347E+01 -0.43064530309E+01  0.17479954151E+01  0.50069694890E+01  0.51100000000E-03 0. -1.
        -11    1    3    3    0    0  0.55501203061E+01 -0.30052007278E+02  0.95212356288E+01  0.32009075353E+02  0.51100000000E-03 0.  1.
         12    1    3    3    0    0  0.39230462472E+01 -0.77770274408E+01  0.27233082016E+01  0.91262728007E+01  0.00000000000E+00 0. -1.
</event>
<event>
 7    1  0.2250716E-008  0.4614232E+02  0.7816164E-02  0.1320468E+00
        -11   -1    0    0    0    0  0.00000000000E+00  0.00000000000E+00  0.45593999997E+02  0.45594000000E+02  0.51100000000E-03 0.  1.
         11   -1    0    0    0    0 -0.00000000000E+00 -0.00000000000E+00 -0.45593999997E+02  0.45594000000E+02  0.51100000000E-03 0. -1.
    9900012    2    1    2    0    0 -0.41584830586E+02  0.10514447743E+01  0.17283225444E+02  0.46142317047E+02  0.99999934846E+01 0.  0.
         12    1    1    2    0    0  0.41584830586E+02 -0.10514447743E+01 -0.17283225444E+02  0.45045682953E+02  0.00000000000E+00 0. -1.
         11    1    3    3    0    0 -0.24594659996E+02 -0.39786388489E+00  0.11985663037E+02  0.27362597002E+02  0.51100000000E-03 0.  1.
        -11    1    3    3    0    0 -0.80164288808E+00 -0.12251621393E+01  0.11335096659E+01  0.18516203745E+01  0.51100000000E-03 0. -1.
         12    1    3    3    0    0 -0.16188527702E+02  0.26744707986E+01  0.41640527410E+01  0.16928099670E+02  0.00000000000E+00 0. -1.
</event>
<event>
 7    1  0.2250716E-008  0.4614232E+02  0.7816164E-02  0.1320468E+00
        -11   -1    0    0    0    0  0.00000000000E+00  0.00000000000E+00  0.45593999997E+02  0.45594000000E+02  0.51100000000E-03 0.  1.
         11   -1    0    0    0    0 -0.00000000000E+00 -0.00000000000E+00 -0.45593999997E+02  0.45594000000E+02  0.51100000000E-03 0. -1.
    9900012    2    1    2    0    0  0.43563653542E+02 -0.11372707990E+02 -0.14082154765E+01  0.46142317990E+02  0.10000002085E+02 0.  0.
         12    1    1    2    0    0 -0.43563653542E+02  0.11372707990E+02  0.14082154765E+01  0.45045682010E+02  0.00000000000E+00 0. -1.
         11    1    3    3    0    0 -0.22817019840E+00  0.32978957133E-01 -0.18982618270E+00  0.29863605244E+00  0.51100000000E-03 0. -1.
        -11    1    3    3    0    0  0.19679574310E+01 -0.11469407693E+01 -0.15910077314E+01  0.27784231933E+01  0.51100000000E-03 0.  1.
        -12    1    3    3    0    0  0.41823866309E+02 -0.10258746178E+02  0.37261843767E+00  0.43065258744E+02  0.00000000000E+00 0.  1.
</event>
<event>
 7    1  0.2250716E-008  0.4614232E+02  0.7816164E-02  0.1320468E+00
        -11   -1    0    0    0    0  0.00000000000E+00  0.00000000000E+00  0.45593999997E+02  0.45594000000E+02  0.51100000000E-03 0.  1.
         11   -1    0    0    0    0 -0.00000000000E+00 -0.00000000000E+00 -0.45593999997E+02  0.45594000000E+02  0.51100000000E-03 0. -1.
    9900012    2    1    2    0    0  0.26063019431E+02  0.28451786374E+02  0.23244966947E+02  0.46142316321E+02  0.99999868702E+01 0.  0.
         12    1    1    2    0    0 -0.26063019431E+02 -0.28451786374E+02 -0.23244966947E+02  0.45045683679E+02  0.00000000000E+00 0. -1.
         11    1    3    3    0    0  0.13358947553E+02  0.14616259378E+02  0.75672729849E+01  0.21198116393E+02  0.51100000000E-03 0. -1.
        -11    1    3    3    0    0  0.10265556053E+01  0.12536139817E+01  0.36217450422E+01  0.39676695726E+01  0.51100000000E-03 0.  1.
         12    1    3    3    0    0  0.11677516272E+02  0.12581913014E+02  0.12055948920E+02  0.20976530355E+02  0.00000000000E+00 0. -1.
</event>
<event>
 7    1  0.2250716E-008  0.4614232E+02  0.7816164E-02  0.1320468E+00
        -11   -1    0    0    0    0  0.00000000000E+00  0.00000000000E+00  0.45593999997E+02  0.45594000000E+02  0.51100000000E-03 0.  1.
         11   -1    0    0    0    0 -0.00000000000E+00 -0.00000000000E+00 -0.45593999997E+02  0.45594000000E+02  0.51100000000E-03 0. -1.
    9900012    2    1    2    0    0  0.23832940865E+02 -0.31698215406E+02  0.21361823083E+02  0.46142318568E+02  0.10000007357E+02 0.  0.
         12    1    1    2    0    0 -0.23832940865E+02  0.31698215406E+02 -0.21361823083E+02  0.45045681432E+02  0.00000000000E+00 0. -1.
         11    1    3    3    0    0 -0.55272113212E+00 -0.19177858896E+01  0.18349039317E+01  0.27111392564E+01  0.51100000000E-03 0. -1.
        -11    1    3    3    0    0  0.10917383729E+02 -0.16936724918E+02  0.92586312676E+01  0.22175756394E+02  0.51100000000E-03 0.  1.
         12    1    3    3    0    0  0.13468278268E+02 -0.12843704599E+02  0.10268287884E+02  0.21255422918E+02  0.00000000000E+00 0. -1.
</event>
<event>
 7    1  0.2250716E-008  0.4614232E+02  0.7816164E-02  0.1320468E+00
        -11   -1    0    0    0    0  0.00000000000E+00  0.00000000000E+00  0.45593999997E+02  0.45594000000E+02  0.51100000000E-03 0. -1.
         11   -1    0    0    0    0 -0.00000000000E+00 -0.00000000000E+00 -0.45593999997E+02  0.45594000000E+02  0.51100000000E-03 0.  1.
    9900012    2    1    2    0    0  0.58770533110E+01 -0.31612288131E+02 -0.31547377601E+02  0.46142317077E+02  0.99999937621E+01 0.  0.
         12    1    1    2    0    0 -0.58770533110E+01  0.31612288131E+02  0.31547377601E+02  0.45045682923E+02  0.00000000000E+00 0. -1.
         11    1    3    3    0    0 -0.74897467799E+00 -0.11645202248E+02 -0.93554742133E+01  0.14956490112E+02  0.51100000000E-03 0. -1.
        -11    1    3    3    0    0  0.37413928888E+00 -0.45197416273E+01 -0.18717556827E+01  0.49062729421E+01  0.51100000000E-03 0.  1.
        -12    1    3    3    0    0  0.62518887001E+01 -0.15447344256E+02 -0.20320147706E+02  0.26279554023E+02  0.00000000000E+00 0.  1.
</event>
<event>
 7    1  0.3532458E-008  0.4614232E+02  0.7816164E-02  0.1320468E+00
        -11   -1    0    0    0    0  0.00000000000E+00  0.00000000000E+00  0.45593999997E+02  0.45594000000E+02  0.51100000000E-03 0.  1.
         11   -1    0    0    0    0 -0.00000000000E+00 -0.00000000000E+00 -0.45593999997E+02  0.45594000000E+02  0.51100000000E-03 0. -1.
    9900012    2    1    2    0    0 -0.34230192204E+02  0.18136067443E+02 -0.22988920616E+02  0.46142317946E+02  0.10000001684E+02 0.  0.
         12    1    1    2    0    0  0.34230192204E+02 -0.18136067443E+02  0.22988920616E+02  0.45045682054E+02  0.00000000000E+00 0. -1.
         11    1    3    3    0    0 -0.89979518208E+00 -0.75063173403E+00 -0.13272679883E+01  0.17705140337E+01  0.51100000000E-03 0. -1.
        -11    1    3    3    0    0 -0.11663184071E+02  0.40381832988E+01 -0.85474113308E+01  0.15013161817E+02  0.51100000000E-03 0.  1.
        -12    1    3    3    0    0 -0.21667212952E+02  0.14848515878E+02 -0.13114241297E+02  0.29358642095E+02  0.00000000000E+00 0.  1.
</event>
<event>
 7    1  0.2250716E-008  0.4614232E+02  0.7816164E-02  0.1320468E+00
        -11   -1    0    0    0    0  0.00000000000E+00  0.00000000000E+00  0.45593999997E+02  0.45594000000E+02  0.51100000000E-03 0.  1.
         11   -1    0    0    0    0 -0.00000000000E+00 -0.00000000000E+00 -0.45593999997E+02  0.45594000000E+02  0.51100000000E-03 0. -1.
    9900012    2    1    2    0    0 -0.49099886684E+01  0.28063940225E+02  0.34891558581E+02  0.46142316635E+02  0.99999897275E+01 0.  0.
         12    1    1    2    0    0  0.49099886684E+01 -0.28063940225E+02 -0.34891558581E+02  0.45045683365E+02  0.00000000000E+00 0. -1.
         11    1    3    3    0    0 -0.18899814949E+01  0.98536349697E+01  0.99782422212E+01  0.14150316966E+02  0.51100000000E-03 0. -1.
        -11    1    3    3    0    0 -0.13983670599E+01  0.89528058873E+01  0.59869881587E+01  0.10860579688E+02  0.51100000000E-03 0.  1.
         12    1    3    3    0    0 -0.16216401136E+01  0.92574993679E+01  0.18926328201E+02  0.21131419980E+02  0.00000000000E+00 0. -1.
</event>
<event>
 7    1  0.2250716E-008  0.4614232E+02  0.7816164E-02  0.1320468E+00
        -11   -1    0    0    0    0  0.00000000000E+00  0.00000000000E+00  0.45593999997E+02  0.45594000000E+02  0.51100000000E-03 0.  1.
         11   -1    0    0    0    0 -0.00000000000E+00 -0.00000000000E+00 -0.45593999997E+02  0.45594000000E+02  0.51100000000E-03 0. -1.
    9900012    2    1    2    0    0 -0.33488787621E+02 -0.97412342113E+01 -0.28508297364E+02  0.46142316979E+02  0.99999928666E+01 0.  0.
         12    1    1    2    0    0  0.33488787621E+02  0.97412342113E+01  0.28508297364E+02  0.45045683021E+02  0.00000000000E+00 0. -1.
         11    1    3    3    0    0 -0.29803234259E+01 -0.41270591422E+01 -0.37272852836E+01  0.63093264880E+01  0.51100000000E-03 0. -1.
        -11    1    3    3    0    0 -0.14420498155E+02 -0.19543895619E+01 -0.13465978123E+02  0.19826824574E+02  0.51100000000E-03 0.  1.
         12    1    3    3    0    0 -0.16087966040E+02 -0.36597855072E+01 -0.11315033957E+02  0.20006165917E+02  0.00000000000E+00 0. -1.
</event>
<event>
 7    1  0.2250716E-008  0.4614232E+02  0.7816164E-02  0.1320468E+00
        -11   -1    0    0    0    0  0.00000000000E+00  0.00000000000E+00  0.45593999997E+02  0.45594000000E+02  0.51100000000E-03 0. -1.
         11   -1    0    0    0    0 -0.00000000000E+00 -0.00000000000E+00 -0.45593999997E+02  0.45594000000E+02  0.51100000000E-03 0.  1.
    9900012    2    1    2    0    0  0.21475263697E+02 -0.24369579229E+02 -0.31209777367E+02  0.46142317122E+02  0.99999941706E+01 0.  0.
         12    1    1    2    0    0 -0.21475263697E+02  0.24369579229E+02  0.31209777367E+02  0.45045682878E+02  0.00000000000E+00 0. -1.
         11    1    3    3    0    0 -0.93888873603E+00 -0.36086286811E+00 -0.63270805521E+00  0.11882987051E+01  0.51100000000E-03 0. -1.
        -11    1    3    3    0    0  0.81147469939E+01 -0.70770584065E+01 -0.10807928413E+02  0.15255988703E+02  0.51100000000E-03 0.  1.
        -12    1    3    3    0    0  0.14299405440E+02 -0.16931657955E+02 -0.19769140899E+02  0.29698029714E+02  0.00000000000E+00 0.  1.
</event>
<event>
 7    1  0.2250716E-008  0.4614232E+02  0.7816164E-02  0.1320468E+00
        -11   -1    0    0    0    0  0.00000000000E+00  0.00000000000E+00  0.45593999997E+02  0.45594000000E+02  0.51100000000E-03 0. -1.
         11   -1    0    0    0    0 -0.00000000000E+00 -0.00000000000E+00 -0.45593999997E+02  0.45594000000E+02  0.51100000000E-03 0.  1.
    9900012    2    1    2    0    0 -0.28346672600E+02  0.43729739316E+01 -0.34734085742E+02  0.46142318066E+02  0.10000002785E+02 0.  0.
         12    1    1    2    0    0  0.28346672600E+02 -0.43729739316E+01  0.34734085742E+02  0.45045681934E+02  0.00000000000E+00 0. -1.
         11    1    3    3    0    0 -0.52845178751E+01  0.38723136902E+01 -0.43467629639E+01  0.78622700928E+01  0.51100000000E-03 0. -1.
        -11    1    3    3    0    0 -0.29757079776E+01  0.65670344757E+00 -0.26845554764E+01  0.40611495605E+01  0.51100000000E-03 0.  1.
        -12    1    3    3    0    0 -0.20086446747E+02 -0.15604320613E+00 -0.27702767302E+02  0.34218898413E+02  0.00000000000E+00 0.  1.
</event>
<event>
 7    1  0.2250716E-008  0.4614231E+02  0.7816164E-02  0.1320468E+00
        -11   -1    0    0    0    0  0.00000000000E+00  0.00000000000E+00  0.45593999997E+02  0.45594000000E+02  0.51100000000E-03 0.  1.
         11   -1    0    0    0    0 -0.00000000000E+00 -0.00000000000E+00 -0.45593999997E+02  0.45594000000E+02  0.51100000000E-03 0. -1.
    9900012    2    1    2    0    0 -0.26511918309E+02 -0.32233655663E+02  0.16947684372E+02  0.46142307916E+02  0.99999102200E+01 0.  0.
         12    1    1    2    0    0  0.26511918309E+02  0.32233655663E+02 -0.16947684372E+02  0.45045692084E+02  0.00000000000E+00 0. -1.
         11    1    3    3    0    0 -0.19239023176E+02 -0.24885690311E+02  0.10368934099E+02  0.33120271581E+02  0.51100000000E-03 0. -1.
        -11    1    3    3    0    0 -0.77368612062E+01 -0.61582800588E+01  0.53192100300E+01  0.11228420646E+02  0.51100000000E-03 0.  1.
         12    1    3    3    0    0  0.46396607292E+00 -0.11896852931E+01  0.12595402428E+01  0.17936156881E+01  0.00000000000E+00 0. -1.
</event>
<event>
 7    1  0.2250716E-008  0.4614232E+02  0.7816164E-02  0.1320468E+00
        -11   -1    0    0    0    0  0.00000000000E+00  0.00000000000E+00  0.45593999997E+02  0.45594000000E+02  0.51100000000E-03 0.  1.
         11   -1    0    0    0    0 -0.00000000000E+00 -0.00000000000E+00 -0.45593999997E+02  0.45594000000E+02  0.51100000000E-03 0. -1.
    9900012    2    1    2    0    0 -0.90705642610E+01  0.32723347819E+02  0.29597646914E+02  0.46142319504E+02  0.10000015892E+02 0.  0.
         12    1    1    2    0    0  0.90705642610E+01 -0.32723347819E+02 -0.29597646914E+02  0.45045680496E+02  0.00000000000E+00 0. -1.
         11    1    3    3    0    0  0.13864116042E+01  0.31867960527E+01  0.15803923784E+01  0.38177803170E+01  0.51100000000E-03 0. -1.
        -11    1    3    3    0    0 -0.59339726945E+01  0.14305663404E+02  0.10708004745E+02  0.18828844979E+02  0.51100000000E-03 0.  1.
        -12    1    3    3    0    0 -0.45230031708E+01  0.15230888362E+02  0.17309249791E+02  0.23495694208E+02  0.00000000000E+00 0.  1.
</event>
<event>
 7    1  0.2250716E-008  0.4614232E+02  0.7816164E-02  0.1320468E+00
        -11   -1    0    0    0    0  0.00000000000E+00  0.00000000000E+00  0.45593999997E+02  0.45594000000E+02  0.51100000000E-03 0. -1.
         11   -1    0    0    0    0 -0.00000000000E+00 -0.00000000000E+00 -0.45593999997E+02  0.45594000000E+02  0.51100000000E-03 0.  1.
    9900012    2    1    2    0    0 -0.76903670444E+01  0.14828178198E+02 -0.41834159263E+02  0.46142317686E+02  0.99999993119E+01 0.  0.
         12    1    1    2    0    0  0.76903670444E+01 -0.14828178198E+02  0.41834159263E+02  0.45045682314E+02  0.00000000000E+00 0. -1.
         11    1    3    3    0    0 -0.70140583258E+01  0.82252410696E+01 -0.22337122494E+02  0.24815290577E+02  0.51100000000E-03 0.  1.
        -11    1    3    3    0    0  0.38221095245E+00  0.24381793742E+01 -0.16470583682E+01  0.29670870230E+01  0.51100000000E-03 0. -1.
         12    1    3    3    0    0 -0.10585196710E+01  0.41647577539E+01 -0.17849978401E+02  0.18359940086E+02  0.00000000000E+00 0. -1.
</event>
<event>
 7    1  0.2250716E-008  0.4614232E+02  0.7816164E-02  0.1320468E+00
        -11   -1    0    0    0    0  0.00000000000E+00  0.00000000000E+00  0.45593999997E+02  0.45594000000E+02  0.51100000000E-03 0. -1.
         11   -1    0    0    0    0 -0.00000000000E+00 -0.00000000000E+00 -0.45593999997E+02  0.45594000000E+02  0.51100000000E-03 0.  1.
    9900012    2    1    2    0    0 -0.17415274135E+02  0.84464812815E+01 -0.40675284562E+02  0.46142316595E+02  0.99999893681E+01 0.  0.
         12    1    1    2    0    0  0.17415274135E+02 -0.84464812815E+01  0.40675284562E+02  0.45045683405E+02  0.00000000000E+00 0. -1.
         11    1    3    3    0    0 -0.44349102132E+01  0.38773584442E+01 -0.57718091411E+01  0.82471884983E+01  0.51100000000E-03 0. -1.
        -11    1    3    3    0    0 -0.82350301134E+00 -0.77913795653E+00 -0.57250959367E+01  0.58362605245E+01  0.51100000000E-03 0.  1.
        -12    1    3    3    0    0 -0.12156860910E+02  0.53482607938E+01 -0.29178379484E+02  0.32058867572E+02  0.00000000000E+00 0.  1.
</event>
<event>
 7    1  0.2250716E-008  0.4614232E+02  0.7816164E-02  0.1320468E+00
        -11   -1    0    0    0    0  0.00000000000E+00  0.00000000000E+00  0.45593999997E+02  0.45594000000E+02  0.51100000000E-03 0.  1.
         11   -1    0    0    0    0 -0.00000000000E+00 -0.00000000000E+00 -0.45593999997E+02  0.45594000000E+02  0.51100000000E-03 0. -1.
    9900012    2    1    2    0    0 -0.43099597107E+00  0.39754344823E+02  0.21178285771E+02  0.46142317876E+02  0.10000001048E+02 0.  0.
         12    1    1    2    0    0  0.43099597107E+00 -0.39754344823E+02 -0.21178285771E+02  0.45045682124E+02  0.00000000000E+00 0. -1.
         11    1    3    3    0    0  0.32214160134E+00  0.16019540726E+02  0.80114110610E+01  0.17914021540E+02  0.51100000000E-03 0. -1.
        -11    1    3    3    0    0 -0.34818593064E+01  0.20110869126E+02  0.10297959316E+02  0.22860847919E+02  0.51100000000E-03 0.  1.
         12    1    3    3    0    0  0.27287217340E+01  0.36239349711E+01  0.28689153940E+01  0.53674484175E+01  0.00000000000E+00 0. -1.
</event>
<event>
 7    1  0.2250716E-008  0.4614232E+02  0.7816164E-02  0.1320468E+00
        -11   -1    0    0    0    0  0.00000000000E+00  0.00000000000E+00  0.45593999997E+02  0.45594000000E+02  0.51100000000E-03 0. -1.
         11   -1    0    0    0    0 -0.00000000000E+00 -0.00000000000E+00 -0.45593999997E+02  0.45594000000E+02  0.51100000000E-03 0.  1.
    9900012    2    1    2    0    0  0.40135306432E+02  0.51487676096E+01 -0.19792950303E+02  0.46142317499E+02  0.99999976110E+01 0.  0.
         12    1    1    2    0    0 -0.40135306432E+02 -0.51487676096E+01  0.19792950303E+02  0.45045682501E+02  0.00000000000E+00 0. -1.
         11    1    3    3    0    0  0.60087130659E+01 -0.94915579743E+00 -0.45063595632E+01  0.75705221887E+01  0.51100000000E-03 0. -1.
        -11    1    3    3    0    0  0.33239067121E+02  0.53575477553E+01 -0.13154621738E+02  0.36146686907E+02  0.51100000000E-03 0.  1.
        -12    1    3    3    0    0  0.88752624442E+00  0.74037565180E+00 -0.21319690022E+01  0.24251084031E+01  0.00000000000E+00 0.  1.
</event>
<event>
 7    1  0.2250716E-008  0.4614232E+02  0.7816164E-02  0.1320468E+00
        -11   -1    0    0    0    0  0.00000000000E+00  0.00000000000E+00  0.45593999997E+02  0.45594000000E+02  0.51100000000E-03 0.  1.
         11   -1    0    0    0    0 -0.00000000000E+00 -0.00000000000E+00 -0.45593999997E+02  0.45594000000E+02  0.51100000000E-03 0. -1.
    9900012    2    1    2    0    0 -0.40358623057E+02  0.97665985028E+00 -0.19983521946E+02  0.46142317977E+02  0.10000001973E+02 0.  0.
         12    1    1    2    0    0  0.40358623057E+02 -0.97665985028E+00  0.19983521946E+02  0.45045682023E+02  0.00000000000E+00 0. -1.
         11    1    3    3    0    0 -0.59393090781E+00 -0.34375913980E+00 -0.14253838712E+01  0.15819746240E+01  0.51100000000E-03 0. -1.
        -11    1    3    3    0    0 -0.38424471666E+02 -0.16305749580E+00 -0.16961928810E+02  0.42002067089E+02  0.51100000000E-03 0.  1.
        -12    1    3    3    0    0 -0.13402204836E+01  0.14834764859E+01 -0.15962092651E+01  0.25582762647E+01  0.00000000000E+00 0.  1.
</event>
<event>
 7    1  0.2250716E-008  0.4614232E+02  0.7816164E-02  0.1320468E+00
        -11   -1    0    0    0    0  0.00000000000E+00  0.00000000000E+00  0.45593999997E+02  0.45594000000E+02  0.51100000000E-03 0. -1.
         11   -1    0    0    0    0 -0.00000000000E+00 -0.00000000000E+00 -0.45593999997E+02  0.45594000000E+02  0.51100000000E-03 0.  1.
    9900012    2    1    2    0    0  0.15245317952E+02 -0.19724682927E+02 -0.37518402452E+02  0.46142319202E+02  0.10000013136E+02 0.  0.
         12    1    1    2    0    0 -0.15245317952E+02  0.19724682927E+02  0.37518402452E+02  0.45045680798E+02  0.00000000000E+00 0. -1.
         11    1    3    3    0    0  0.29182083287E+01 -0.68225201915E+01 -0.12752805112E+02  0.14754550487E+02  0.51100000000E-03 0. -1.
        -11    1    3    3    0    0  0.83443764706E+01 -0.90491500684E+01 -0.10846591530E+02  0.16406226980E+02  0.51100000000E-03 0.  1.
         12    1    3    3    0    0  0.39827331524E+01 -0.38530126674E+01 -0.13919005810E+02  0.14981541734E+02  0.00000000000E+00 0. -1.
</event>
<event>
 7    1  0.2250716E-008  0.4614232E+02  0.7816164E-02  0.1320468E+00
        -11   -1    0    0    0    0  0.00000000000E+00  0.00000000000E+00  0.45593999997E+02  0.45594000000E+02  0.51100000000E-03 0.  1.
         11   -1    0    0    0    0 -0.00000000000E+00 -0.00000000000E+00 -0.45593999997E+02  0.45594000000E+02  0.51100000000E-03 0. -1.
    9900012    2    1    2    0    0  0.44668817308E+02  0.14675965076E+01 -0.56263903034E+01  0.46142319329E+02  0.10000014301E+02 0.  0.
         12    1    1    2    0    0 -0.44668817308E+02 -0.14675965076E+01  0.56263903034E+01  0.45045680671E+02  0.00000000000E+00 0. -1.
         11    1    3    3    0    0  0.23367060387E+01  0.42313297045E+00 -0.11640031405E+01  0.26446436800E+01  0.51100000000E-03 0. -1.
        -11    1    3    3    0    0  0.18683830591E+02  0.48788762103E+01 -0.21158719376E+01  0.19425907262E+02  0.51100000000E-03 0.  1.
         12    1    3    3    0    0  0.23648280678E+02 -0.38344126732E+01 -0.23465152253E+01  0.24071768387E+02  0.00000000000E+00 0. -1.
</event>
<event>
 7    1  0.2250716E-008  0.4614232E+02  0.7816164E-02  0.1320468E+00
        -11   -1    0    0    0    0  0.00000000000E+00  0.00000000000E+00  0.45593999997E+02  0.45594000000E+02  0.51100000000E-03 0.  1.
         11   -1    0    0    0    0 -0.00000000000E+00 -0.00000000000E+00 -0.45593999997E+02  0.45594000000E+02  0.51100000000E-03 0. -1.
    9900012    2    1    2    0    0 -0.27346791736E+02  0.32643921705E+02  0.14684717167E+02  0.46142316957E+02  0.99999926700E+01 0.  0.
         12    1    1    2    0    0  0.27346791736E+02 -0.32643921705E+02 -0.14684717167E+02  0.45045683043E+02  0.00000000000E+00 0. -1.
         11    1    3    3    0    0 -0.36839531004E+01  0.58869138474E+01  0.15777194325E+01  0.71215492670E+01  0.51100000000E-03 0. -1.
        -11    1    3    3    0    0 -0.23371660615E+02  0.26030925161E+02  0.10842841747E+02  0.36625275454E+02  0.51100000000E-03 0.  1.
         12    1    3    3    0    0 -0.29117802077E+00  0.72608269611E+00  0.22641559872E+01  0.23954922367E+01  0.00000000000E+00 0. -1.
</event>
<event>
 7    1  0.2250716E-008  0.4614232E+02  0.7816164E-02  0.1320468E+00
        -11   -1    0    0    0    0  0.00000000000E+00  0.00000000000E+00  0.45593999997E+02  0.45594000000E+02  0.51100000000E-03 0.  1.
         11   -1    0    0    0    0 -0.00000000000E+00 -0.00000000000E+00 -0.45593999997E+02  0.45594000000E+02  0.51100000000E-03 0. -1.
    9900012    2    1    2    0    0  0.20881777778E+02  0.12759231477E+02  0.37818869076E+02  0.46142317752E+02  0.99999999125E+01 0.  0.
         12    1    1    2    0    0 -0.20881777778E+02 -0.12759231477E+02 -0.37818869076E+02  0.45045682248E+02  0.00000000000E+00 0. -1.
         11    1    3    3    0    0  0.56321055419E+01  0.18270109297E+01  0.44968192973E+01  0.74350498200E+01  0.51100000000E-03 0. -1.
        -11    1    3    3    0    0  0.47083755098E+01  0.70117708058E+01  0.13995554914E+02  0.16346537474E+02  0.51100000000E-03 0.  1.
        -12    1    3    3    0    0  0.10541296726E+02  0.39204497417E+01  0.19326494864E+02  0.22360730457E+02  0.00000000000E+00 0.  1.
</event>
<event>
 7    1  0.2250716E-008  0.4614232E+02  0.7816164E-02  0.1320468E+00
        -11   -1    0    0    0    0  0.00000000000E+00  0.00000000000E+00  0.45593999997E+02  0.45594000000E+02  0.51100000000E-03 0.  1.
         11   -1    0    0    0    0 -0.00000000000E+00 -0.00000000000E+00 -0.45593999997E+02  0.45594000000E+02  0.51100000000E-03 0. -1.
    9900012    2    1    2    0    0  0.35718111411E+02 -0.10335864917E+02  0.25426362341E+02  0.46142317763E+02  0.10000000014E+02 0.  0.
         12    1    1    2    0    0 -0.35718111411E+02  0.10335864917E+02 -0.25426362341E+02  0.45045682237E+02  0.00000000000E+00 0. -1.
         11    1    3    3    0    0  0.94328165991E+01  0.11173690084E+01  0.64703879143E+01  0.11493148503E+02  0.51100000000E-03 0. -1.
        -11    1    3    3    0    0  0.71000835104E+01 -0.25277063824E+01  0.72951739126E+01  0.10489044193E+02  0.51100000000E-03 0.  1.
        -12    1    3    3    0    0  0.19185211301E+02 -0.89255275427E+01  0.11660800514E+02  0.24160125066E+02  0.00000000000E+00 0.  1.
</event>
<event>
 7    1  0.2250716E-008  0.4614232E+02  0.7816164E-02  0.1320468E+00
        -11   -1    0    0    0    0  0.00000000000E+00  0.00000000000E+00  0.45593999997E+02  0.45594000000E+02  0.51100000000E-03 0. -1.
         11   -1    0    0    0    0 -0.00000000000E+00 -0.00000000000E+00 -0.45593999997E+02  0.45594000000E+02  0.51100000000E-03 0.  1.
    9900012    2    1    2    0    0  0.23742598243E+01  0.28773417076E+02 -0.34576970978E+02  0.46142316944E+02  0.99999925500E+01 0.  0.
         12    1    1    2    0    0 -0.23742598243E+01 -0.28773417076E+02  0.34576970978E+02  0.45045683056E+02  0.00000000000E+00 0. -1.
         11    1    3    3    0    0  0.24167410271E+01  0.28693184571E+01 -0.22504043225E+01  0.43746937580E+01  0.51100000000E-03 0. -1.
        -11    1    3    3    0    0  0.19870527406E+01  0.13170593055E+02 -0.19196607915E+02  0.23364987818E+02  0.51100000000E-03 0.  1.
        -12    1    3    3    0    0 -0.20295339434E+01  0.12733505564E+02 -0.13129958741E+02  0.18402635368E+02  0.00000000000E+00 0.  1.
</event>
<event>
 7    1  0.2250716E-008  0.4614232E+02  0.7816164E-02  0.1320468E+00
        -11   -1    0    0    0    0  0.00000000000E+00  0.00000000000E+00  0.45593999997E+02  0.45594000000E+02  0.51100000000E-03 0. -1.
         11   -1    0    0    0    0 -0.00000000000E+00 -0.00000000000E+00 -0.45593999997E+02  0.45594000000E+02  0.51100000000E-03 0.  1.
    9900012    2    1    2    0    0  0.23555438770E+02 -0.41746774575E+01 -0.38168401308E+02  0.46142317788E+02  0.10000000247E+02 0.  0.
         12    1    1    2    0    0 -0.23555438770E+02  0.41746774575E+01  0.38168401308E+02  0.45045682212E+02  0.00000000000E+00 0. -1.
         11    1    3    3    0    0  0.48890595536E+01 -0.38786914413E+01 -0.58433560285E+01  0.85493836358E+01  0.51100000000E-03 0. -1.
        -11    1    3    3    0    0  0.51632053425E+01 -0.20747741786E+01 -0.98537451431E+01  0.11316345298E+02  0.51100000000E-03 0.  1.
         12    1    3    3    0    0  0.13503173874E+02  0.17787881624E+01 -0.22471300136E+02  0.26276588854E+02  0.00000000000E+00 0. -1.
</event>
<event>
 7    1  0.2250716E-008  0.4614232E+02  0.7816164E-02  0.1320468E+00
        -11   -1    0    0    0    0  0.00000000000E+00  0.00000000000E+00  0.45593999997E+02  0.45594000000E+02  0.51100000000E-03 0. -1.
         11   -1    0    0    0    0 -0.00000000000E+00 -0.00000000000E+00 -0.45593999997E+02  0.45594000000E+02  0.51100000000E-03 0.  1.
    9900012    2    1    2    0    0  0.36246803739E+02 -0.22434766176E+02  0.14558968631E+02  0.46142322269E+02  0.10000041105E+02 0.  0.
         12    1    1    2    0    0 -0.36246803739E+02  0.22434766176E+02 -0.14558968631E+02  0.45045677731E+02  0.00000000000E+00 0. -1.
         11    1    3    3    0    0  0.12113497174E+02 -0.93521980708E+01  0.28302478823E+01  0.15563120699E+02  0.51100000000E-03 0. -1.
        -11    1    3    3    0    0  0.18776867648E+02 -0.93726590109E+01  0.58074017338E+01  0.21774834345E+02  0.51100000000E-03 0.  1.
         12    1    3    3    0    0  0.53564389172E+01 -0.37099090940E+01  0.59213190150E+01  0.88043672252E+01  0.00000000000E+00 0. -1.
</event>
<event>
 7    1  0.2250716E-008  0.4614232E+02  0.7816164E-02  0.1320468E+00
        -11   -1    0    0    0    0  0.00000000000E+00  0.00000000000E+00  0.45593999997E+02  0.45594000000E+02  0.51100000000E-03 0.  1.
         11   -1    0    0    0    0 -0.00000000000E+00 -0.00000000000E+00 -0.45593999997E+02  0.45594000000E+02  0.51100000000E-03 0. -1.
    9900012    2    1    2    0    0  0.25095867681E+02 -0.78315391770E+01  0.36578379892E+02  0.46142318120E+02  0.10000003272E+02 0.  0.
         12    1    1    2    0    0 -0.25095867681E+02  0.78315391770E+01 -0.36578379892E+02  0.45045681880E+02  0.00000000000E+00 0. -1.
         11    1    3    3    0    0  0.13994305794E+01  0.18615148250E+00 -0.30923325677E+00  0.14452279367E+01  0.51100000000E-03 0. -1.
        -11    1    3    3    0    0  0.73689475535E+01 -0.14598188198E+01  0.90061194601E+01  0.11727857734E+02  0.51100000000E-03 0.  1.
        -12    1    3    3    0    0  0.16327489548E+02 -0.65578718396E+01  0.27881493689E+02  0.32969232449E+02  0.00000000000E+00 0.  1.
</event>
<event>
 7    1  0.2250716E-008  0.4614232E+02  0.7816164E-02  0.1320468E+00
        -11   -1    0    0    0    0  0.00000000000E+00  0.00000000000E+00  0.45593999997E+02  0.45594000000E+02  0.51100000000E-03 0.  1.
         11   -1    0    0    0    0 -0.00000000000E+00 -0.00000000000E+00 -0.45593999997E+02  0.45594000000E+02  0.51100000000E-03 0. -1.
    9900012    2    1    2    0    0 -0.84156561705E+01  0.44826767233E+01  0.44024945986E+02  0.46142317316E+02  0.99999959423E+01 0.  0.
         12    1    1    2    0    0  0.84156561705E+01 -0.44826767233E+01 -0.44024945986E+02  0.45045682684E+02  0.00000000000E+00 0. -1.
         11    1    3    3    0    0 -0.24360480332E+01  0.15216503984E+01  0.15441795833E+02  0.15706648553E+02  0.51100000000E-03 0. -1.
        -11    1    3    3    0    0 -0.27895748948E+01 -0.69471529766E+00  0.22362921125E+02  0.22546942120E+02  0.51100000000E-03 0.  1.
         12    1    3    3    0    0 -0.31900332425E+01  0.36557416225E+01  0.62202290283E+01  0.78887266440E+01  0.00000000000E+00 0. -1.
</event>
<event>
 7    1  0.2250716E-008  0.4614232E+02  0.7816164E-02  0.1320468E+00
        -11   -1    0    0    0    0  0.00000000000E+00  0.00000000000E+00  0.45593999997E+02  0.45594000000E+02  0.51100000000E-03 0. -1.
         11   -1    0    0    0    0 -0.00000000000E+00 -0.00000000000E+00 -0.45593999997E+02  0.45594000000E+02  0.51100000000E-03 0.  1.
    9900012    2    1    2    0    0 -0.25797331862E+02 -0.29868779685E+01 -0.36806110760E+02  0.46142316960E+02  0.99999926955E+01 0.  0.
         12    1    1    2    0    0  0.25797331862E+02  0.29868779685E+01  0.36806110760E+02  0.45045683040E+02  0.00000000000E+00 0. -1.
         11    1    3    3    0    0 -0.23892165214E+01  0.31856188107E+00 -0.58673802832E+00  0.24807456608E+01  0.51100000000E-03 0. -1.
        -11    1    3    3    0    0 -0.20576906674E+02 -0.44909496771E+01 -0.29224548616E+02  0.36022936573E+02  0.51100000000E-03 0.  1.
         12    1    3    3    0    0 -0.28312086673E+01  0.11855098275E+01 -0.69948241157E+01  0.76386347261E+01  0.00000000000E+00 0. -1.
</event>
<event>
 7    1  0.2250716E-008  0.4614232E+02  0.7816164E-02  0.1320468E+00
        -11   -1    0    0    0    0  0.00000000000E+00  0.00000000000E+00  0.45593999997E+02  0.45594000000E+02  0.51100000000E-03 0.  1.
         11   -1    0    0    0    0 -0.00000000000E+00 -0.00000000000E+00 -0.45593999997E+02  0.45594000000E+02  0.51100000000E-03 0. -1.
    9900012    2    1    2    0    0 -0.17794564367E+02  0.21148828432E+01  0.41327887531E+02  0.46142317208E+02  0.99999949518E+01 0.  0.
         12    1    1    2    0    0  0.17794564367E+02 -0.21148828432E+01 -0.41327887531E+02  0.45045682792E+02  0.00000000000E+00 0. -1.
         11    1    3    3    0    0 -0.62314609046E+01  0.38393258728E-01  0.12591922314E+02  0.14049522656E+02  0.51100000000E-03 0. -1.
        -11    1    3    3    0    0 -0.11394470896E+02 -0.78647260533E+00  0.23006838983E+02  0.25685932850E+02  0.51100000000E-03 0.  1.
         12    1    3    3    0    0 -0.16863256648E+00  0.28629621898E+01  0.57291262348E+01  0.64068617011E+01  0.00000000000E+00 0. -1.
</event>
<event>
 7    1  0.2250716E-008  0.4614232E+02  0.7816164E-02  0.1320468E+00
        -11   -1    0    0    0    0  0.00000000000E+00  0.00000000000E+00  0.45593999997E+02  0.45594000000E+02  0.51100000000E-03 0.  1.
         11   -1    0    0    0    0 -0.00000000000E+00 -0.00000000000E+00 -0.45593999997E+02  0.45594000000E+02  0.51100000000E-03 0. -1.
    9900012    2    1    2    0    0  0.43064369114E+02  0.59328659624E+01  0.11805708496E+02  0.46142317201E+02  0.99999948963E+01 0.  0.
         12    1    1    2    0    0 -0.43064369114E+02 -0.59328659624E+01 -0.11805708496E+02  0.45045682799E+02  0.00000000000E+00 0. -1.
         11    1    3    3    0    0  0.11002856108E+02  0.40713390492E+01  0.35484830926E+01  0.12256850195E+02  0.51100000000E-03 0. -1.
        -11    1    3    3    0    0  0.40216203873E+01  0.20803719099E+01 -0.38227427319E+00  0.45439533123E+01  0.51100000000E-03 0.  1.
         12    1    3    3    0    0  0.28039892619E+02 -0.21884499677E+00  0.86394996766E+01  0.29341513694E+02  0.00000000000E+00 0. -1.
</event>
<event>
 7    1  0.2250716E-008  0.4614232E+02  0.7816164E-02  0.1320468E+00
        -11   -1    0    0    0    0  0.00000000000E+00  0.00000000000E+00  0.45593999997E+02  0.45594000000E+02  0.51100000000E-03 0.  1.
         11   -1    0    0    0    0 -0.00000000000E+00 -0.00000000000E+00 -0.45593999997E+02  0.45594000000E+02  0.51100000000E-03 0. -1.
    9900012    2    1    2    0    0  0.34145581974E+01  0.17266531658E+02  0.41464699109E+02  0.46142316574E+02  0.99999891705E+01 0.  0.
         12    1    1    2    0    0 -0.34145581974E+01 -0.17266531658E+02 -0.41464699109E+02  0.45045683426E+02  0.00000000000E+00 0. -1.
         11    1    3    3    0    0 -0.24933800765E+01  0.23362909160E+01  0.75462376356E+01  0.82837734254E+01  0.51100000000E-03 0. -1.
        -11    1    3    3    0    0  0.26251999453E+01  0.85788118607E+01  0.24077304315E+02  0.25694440469E+02  0.51100000000E-03 0.  1.
        -12    1    3    3    0    0  0.32827383286E+01  0.63514288811E+01  0.98411571585E+01  0.12164102679E+02  0.00000000000E+00 0.  1.
</event>
<event>
 7    1  0.2250716E-008  0.4614232E+02  0.7816164E-02  0.1320468E+00
        -11   -1    0    0    0    0  0.00000000000E+00  0.00000000000E+00  0.45593999997E+02  0.45594000000E+02  0.51100000000E-03 0.  1.
         11   -1    0    0    0    0 -0.00000000000E+00 -0.00000000000E+00 -0.45593999997E+02  0.45594000000E+02  0.51100000000E-03 0. -1.
    9900012    2    1    2    0    0  0.23891924745E+02 -0.18443136999E+02  0.33438602085E+02  0.46142317856E+02  0.10000000869E+02 0.  0.
         12    1    1    2    0    0 -0.23891924745E+02  0.18443136999E+02 -0.33438602085E+02  0.45045682144E+02  0.00000000000E+00 0. -1.
         11    1    3    3    0    0  0.39488590796E+00 -0.49328280590E+00  0.22500332734E+01  0.23370735546E+01  0.51100000000E-03 0. -1.
        -11    1    3    3    0    0  0.19017704364E+01 -0.13743358330E+01 -0.78423655714E-01  0.23476968087E+01  0.51100000000E-03 0.  1.
        -12    1    3    3    0    0  0.21595268401E+02 -0.16575518360E+02  0.31266992467E+02  0.41457547493E+02  0.00000000000E+00 0.  1.
</event>
<event>
 7    1  0.2250716E-008  0.4614232E+02  0.7816164E-02  0.1320468E+00
        -11   -1    0    0    0    0  0.00000000000E+00  0.00000000000E+00  0.45593999997E+02  0.45594000000E+02  0.51100000000E-03 0. -1.
         11   -1    0    0    0    0 -0.00000000000E+00 -0.00000000000E+00 -0.45593999997E+02  0.45594000000E+02  0.51100000000E-03 0.  1.
    9900012    2    1    2    0    0 -0.22459746437E+02 -0.17341281221E+02  0.34985044644E+02  0.46142316598E+02  0.99999893983E+01 0.  0.
         12    1    1    2    0    0  0.22459746437E+02  0.17341281221E+02 -0.34985044644E+02  0.45045683402E+02  0.00000000000E+00 0. -1.
         11    1    3    3    0    0 -0.43118374074E+01 -0.89127130529E+00  0.10997595176E+02  0.11846240175E+02  0.51100000000E-03 0. -1.
        -11    1    3    3    0    0 -0.34398236007E+01 -0.35036928253E+01  0.44729598542E+01  0.66419590436E+01  0.51100000000E-03 0.  1.
         12    1    3    3    0    0 -0.14708085429E+02 -0.12946317091E+02  0.19514489613E+02  0.27654117380E+02  0.00000000000E+00 0. -1.
</event>
<event>
 7    1  0.2250716E-008  0.4614232E+02  0.7816164E-02  0.1320468E+00
        -11   -1    0    0    0    0  0.00000000000E+00  0.00000000000E+00  0.45593999997E+02  0.45594000000E+02  0.51100000000E-03 0. -1.
         11   -1    0    0    0    0 -0.00000000000E+00 -0.00000000000E+00 -0.45593999997E+02  0.45594000000E+02  0.51100000000E-03 0.  1.
    9900012    2    1    2    0    0 -0.20581751995E+02  0.20453391626E+02 -0.34455242326E+02  0.46142317988E+02  0.10000002068E+02 0.  0.
         12    1    1    2    0    0  0.20581751995E+02 -0.20453391626E+02  0.34455242326E+02  0.45045682012E+02  0.00000000000E+00 0. -1.
         11    1    3    3    0    0 -0.19819573143E+01  0.44940113525E+00 -0.29858430872E+01  0.36118382271E+01  0.51100000000E-03 0. -1.
        -11    1    3    3    0    0 -0.16869375412E+02  0.13516241494E+02 -0.26378964149E+02  0.34104462476E+02  0.51100000000E-03 0.  1.
        -12    1    3    3    0    0 -0.17304192685E+01  0.64877489961E+01 -0.50904350902E+01  0.84260172851E+01  0.00000000000E+00 0.  1.
</event>
<event>
 7    1  0.2250716E-008  0.4614232E+02  0.7816164E-02  0.1320468E+00
        -11   -1    0    0    0    0  0.00000000000E+00  0.00000000000E+00  0.45593999997E+02  0.45594000000E+02  0.51100000000E-03 0.  1.
         11   -1    0    0    0    0 -0.00000000000E+00 -0.00000000000E+00 -0.45593999997E+02  0.45594000000E+02  0.51100000000E-03 0. -1.
    9900012    2    1    2    0    0 -0.17366280862E+02 -0.25194854518E+02  0.33056697157E+02  0.46142316166E+02  0.99999854527E+01 0.  0.
         12    1    1    2    0    0  0.17366280862E+02  0.25194854518E+02 -0.33056697157E+02  0.45045683834E+02  0.00000000000E+00 0. -1.
         11    1    3    3    0    0 -0.22734150106E+01 -0.93698095289E+00  0.61848268894E+01  0.66557068016E+01  0.51100000000E-03 0. -1.
        -11    1    3    3    0    0 -0.70841246020E+01 -0.73741852474E+01  0.88056837414E+01  0.13494572830E+02  0.51100000000E-03 0.  1.
        -12    1    3    3    0    0 -0.80087412493E+01 -0.16883688318E+02  0.18066186526E+02  0.25992036535E+02  0.00000000000E+00 0.  1.
</event>
<event>
 7    1  0.2250716E-008  0.4614232E+02  0.7816164E-02  0.1320468E+00
        -11   -1    0    0    0    0  0.00000000000E+00  0.00000000000E+00  0.45593999997E+02  0.45594000000E+02  0.51100000000E-03 0. -1.
         11   -1    0    0    0    0 -0.00000000000E+00 -0.00000000000E+00 -0.45593999997E+02  0.45594000000E+02  0.51100000000E-03 0.  1.
    9900012    2    1    2    0    0  0.19388397292E+02  0.36049200916E+02 -0.18805813967E+02  0.46142317907E+02  0.10000001334E+02 0.  0.
         12    1    1    2    0    0 -0.19388397292E+02 -0.36049200916E+02  0.18805813967E+02  0.45045682093E+02  0.00000000000E+00 0. -1.
         11    1    3    3    0    0  0.21290863220E+01  0.48470577100E+01 -0.29215911259E+00  0.53021065831E+01  0.51100000000E-03 0. -1.
        -11    1    3    3    0    0  0.89069118214E+01  0.20493710776E+02 -0.14653230018E+02  0.26721571994E+02  0.51100000000E-03 0.  1.
        -12    1    3    3    0    0  0.83523991488E+01  0.10708432429E+02 -0.38604248359E+01  0.14118639331E+02  0.00000000000E+00 0.  1.
</event>
<event>
 7    1  0.2250716E-008  0.4614232E+02  0.7816164E-02  0.1320468E+00
        -11   -1    0    0    0    0  0.00000000000E+00  0.00000000000E+00  0.45593999997E+02  0.45594000000E+02  0.51100000000E-03 0.  1.
         11   -1    0    0    0    0 -0.00000000000E+00 -0.00000000000E+00 -0.45593999997E+02  0.45594000000E+02  0.51100000000E-03 0. -1.
    9900012    2    1    2    0    0  0.15820583518E+02 -0.11583155619E+02  0.40554324265E+02  0.46142316816E+02  0.99999913775E+01 0.  0.
         12    1    1    2    0    0 -0.15820583518E+02  0.11583155619E+02 -0.40554324265E+02  0.45045683184E+02  0.00000000000E+00 0. -1.
         11    1    3    3    0    0  0.37173261236E+01 -0.71151000703E+01  0.17347548068E+02  0.19114930990E+02  0.51100000000E-03 0. -1.
        -11    1    3    3    0    0  0.54179801635E+01 -0.29840856572E+01  0.15657098032E+02  0.16834607073E+02  0.51100000000E-03 0.  1.
        -12    1    3    3    0    0  0.66852772311E+01 -0.14839698912E+01  0.75496781648E+01  0.10192778752E+02  0.00000000000E+00 0.  1.
</event>
<event>
 7    1  0.2250716E-008  0.4614232E+02  0.7816164E-02  0.1320468E+00
        -11   -1    0    0    0    0  0.00000000000E+00  0.00000000000E+00  0.45593999997E+02  0.45594000000E+02  0.51100000000E-03 0.  1.
         11   -1    0    0    0    0 -0.00000000000E+00 -0.00000000000E+00 -0.45593999997E+02  0.45594000000E+02  0.51100000000E-03 0. -1.
    9900012    2    1    2    0    0 -0.18488149340E+01 -0.21072853545E+02  0.39769714801E+02  0.46142317759E+02  0.99999999818E+01 0.  0.
         12    1    1    2    0    0  0.18488149340E+01  0.21072853545E+02 -0.39769714801E+02  0.45045682241E+02  0.00000000000E+00 0. -1.
         11    1    3    3    0    0 -0.33814937145E+01 -0.43746888464E+01  0.10718008992E+02  0.12060187364E+02  0.51100000000E-03 0. -1.
        -11    1    3    3    0    0  0.27093669559E+00 -0.15310925719E+02  0.28045930840E+02  0.31954218657E+02  0.51100000000E-03 0.  1.
        -12    1    3    3    0    0  0.12617420849E+01 -0.13872389798E+01  0.10057749698E+01  0.21279117383E+01  0.00000000000E+00 0.  1.
</event>
<event>
 7    1  0.2250716E-008  0.4614232E+02  0.7816164E-02  0.1320468E+00
        -11   -1    0    0    0    0  0.00000000000E+00  0.00000000000E+00  0.45593999997E+02  0.45594000000E+02  0.51100000000E-03 0.  1.
         11   -1    0    0    0    0 -0.00000000000E+00 -0.00000000000E+00 -0.45593999997E+02  0.45594000000E+02  0.51100000000E-03 0. -1.
    9900012    2    1    2    0    0  0.19478303210E+02 -0.16964658964E+01  0.40581168146E+02  0.46142317626E+02  0.99999987645E+01 0.  0.
         12    1    1    2    0    0 -0.19478303210E+02  0.16964658964E+01 -0.40581168146E+02  0.45045682374E+02  0.00000000000E+00 0. -1.
         11    1    3    3    0    0  0.39378086187E+01 -0.68053535336E+00  0.56098389734E+01  0.68876526229E+01  0.51100000000E-03 0. -1.
        -11    1    3    3    0    0  0.78077801120E+00  0.22826597992E+01  0.27352496142E+01  0.36471551619E+01  0.51100000000E-03 0.  1.
        -12    1    3    3    0    0  0.14759716581E+02 -0.32985903423E+01  0.32236079558E+02  0.35607509841E+02  0.00000000000E+00 0.  1.
</event>
<event>
 7    1  0.2250716E-008  0.4614232E+02  0.7816164E-02  0.1320468E+00
        -11   -1    0    0    0    0  0.00000000000E+00  0.00000000000E+00  0.45593999997E+02  0.45594000000E+02  0.51100000000E-03 0. -1.
         11   -1    0    0    0    0 -0.00000000000E+00 -0.00000000000E+00 -0.45593999997E+02  0.45594000000E+02  0.51100000000E-03 0.  1.
    9900012    2    1    2    0    0 -0.38947274300E+02 -0.22327404394E+02 -0.37027416771E+01  0.46142318095E+02  0.10000003044E+02 0.  0.
         12    1    1    2    0    0  0.38947274300E+02  0.22327404394E+02  0.37027416771E+01  0.45045681905E+02  0.00000000000E+00 0. -1.
         11    1    3    3    0    0 -0.72765967730E+00  0.61014520801E+00 -0.61657366263E+00  0.11322230891E+01  0.51100000000E-03 0. -1.
        -11    1    3    3    0    0 -0.31095208557E+02 -0.20202509078E+02 -0.41164840215E+01  0.37309500254E+02  0.51100000000E-03 0.  1.
        -12    1    3    3    0    0 -0.71244060654E+01 -0.27350405242E+01  0.10303160071E+01  0.77005947516E+01  0.00000000000E+00 0.  1.
</event>
<event>
 7    1  0.2250716E-008  0.4614231E+02  0.7816164E-02  0.1320468E+00
        -11   -1    0    0    0    0  0.00000000000E+00  0.00000000000E+00  0.45593999997E+02  0.45594000000E+02  0.51100000000E-03 0.  1.
         11   -1    0    0    0    0 -0.00000000000E+00 -0.00000000000E+00 -0.45593999997E+02  0.45594000000E+02  0.51100000000E-03 0. -1.
    9900012    2    1    2    0    0 -0.16374221355E+02  0.98339026234E+01  0.40795747211E+02  0.46142314787E+02  0.99999728831E+01 0.  0.
         12    1    1    2    0    0  0.16374221355E+02 -0.98339026234E+01 -0.40795747211E+02  0.45045685213E+02  0.00000000000E+00 0. -1.
         11    1    3    3    0    0 -0.55330947642E+01  0.22971973228E+01  0.72069872864E+01  0.93719218529E+01  0.51100000000E-03 0. -1.
        -11    1    3    3    0    0  0.44730437586E+00  0.18976788973E+01  0.80711229882E+01  0.83032700157E+01  0.51100000000E-03 0.  1.
        -12    1    3    3    0    0 -0.11288430967E+02  0.56390264033E+01  0.25517636936E+02  0.28467122919E+02  0.00000000000E+00 0.  1.
</event>
<event>
 7    1  0.2250716E-008  0.4614232E+02  0.7816164E-02  0.1320468E+00
        -11   -1    0    0    0    0  0.00000000000E+00  0.00000000000E+00  0.45593999997E+02  0.45594000000E+02  0.51100000000E-03 0. -1.
         11   -1    0    0    0    0 -0.00000000000E+00 -0.00000000000E+00 -0.45593999997E+02  0.45594000000E+02  0.51100000000E-03 0.  1.
    9900012    2    1    2    0    0 -0.47604241348E+01 -0.22996033810E+02 -0.38440009178E+02  0.46142317471E+02  0.99999973504E+01 0.  0.
         12    1    1    2    0    0  0.47604241348E+01  0.22996033810E+02  0.38440009178E+02  0.45045682529E+02  0.00000000000E+00 0. -1.
         11    1    3    3    0    0 -0.30615841785E+01 -0.26093582223E+01 -0.49305674341E+01  0.63633751655E+01  0.51100000000E-03 0. -1.
        -11    1    3    3    0    0  0.20377934613E+00 -0.12045582219E+01 -0.12370081204E+00  0.12279204713E+01  0.51100000000E-03 0.  1.
        -12    1    3    3    0    0 -0.19026193024E+01 -0.19182117366E+02 -0.33385740932E+02  0.38551021834E+02  0.00000000000E+00 0.  1.
</event>
<event>
 7    1  0.2250716E-008  0.4614232E+02  0.7816164E-02  0.1320468E+00
        -11   -1    0    0    0    0  0.00000000000E+00  0.00000000000E+00  0.45593999997E+02  0.45594000000E+02  0.51100000000E-03 0.  1.
         11   -1    0    0    0    0 -0.00000000000E+00 -0.00000000000E+00 -0.45593999997E+02  0.45594000000E+02  0.51100000000E-03 0. -1.
    9900012    2    1    2    0    0  0.21084234279E+02 -0.25787975464E+02  0.30324064400E+02  0.46142317683E+02  0.99999992849E+01 0.  0.
         12    1    1    2    0    0 -0.21084234279E+02  0.25787975464E+02 -0.30324064400E+02  0.45045682317E+02  0.00000000000E+00 0. -1.
         11    1    3    3    0    0  0.16333328265E+01 -0.35420314117E+01  0.53209264128E+00  0.39366083732E+01  0.51100000000E-03 0. -1.
        -11    1    3    3    0    0  0.11169307180E+01 -0.33074395909E+01  0.27670282631E+01  0.44545635640E+01  0.51100000000E-03 0.  1.
        -12    1    3    3    0    0  0.18333970734E+02 -0.18938504462E+02  0.27024943496E+02  0.37751145745E+02  0.00000000000E+00 0.  1.
</event>
<event>
 7    1  0.2250716E-008  0.4614232E+02  0.7816164E-02  0.1320468E+00
        -11   -1    0    0    0    0  0.00000000000E+00  0.00000000000E+00  0.45593999997E+02  0.45594000000E+02  0.51100000000E-03 0.  1.
         11   -1    0    0    0    0 -0.00000000000E+00 -0.00000000000E+00 -0.45593999997E+02  0.45594000000E+02  0.51100000000E-03 0. -1.
    9900012    2    1    2    0    0 -0.36225435619E+02 -0.15431374721E+01  0.26729194698E+02  0.46142319761E+02  0.10000018234E+02 0.  0.
         12    1    1    2    0    0  0.36225435619E+02  0.15431374721E+01 -0.26729194698E+02  0.45045680239E+02  0.00000000000E+00 0. -1.
         11    1    3    3    0    0 -0.36224241853E+01  0.15119148871E+01  0.26394790748E+01  0.47301895999E+01  0.51100000000E-03 0. -1.
        -11    1    3    3    0    0 -0.26239153986E+02 -0.26553874927E+01  0.22895446275E+02  0.34924858554E+02  0.51100000000E-03 0.  1.
         12    1    3    3    0    0 -0.63638574480E+01 -0.39966486654E+00  0.11942693473E+01  0.64872716066E+01  0.00000000000E+00 0. -1.
</event>
<event>
 7    1  0.2250716E-008  0.4614232E+02  0.7816164E-02  0.1320468E+00
        -11   -1    0    0    0    0  0.00000000000E+00  0.00000000000E+00  0.45593999997E+02  0.45594000000E+02  0.51100000000E-03 0. -1.
         11   -1    0    0    0    0 -0.00000000000E+00 -0.00000000000E+00 -0.45593999997E+02  0.45594000000E+02  0.51100000000E-03 0.  1.
    9900012    2    1    2    0    0 -0.12280522692E+02  0.10620078686E+02 -0.42018043930E+02  0.46142319579E+02  0.10000016581E+02 0.  0.
         12    1    1    2    0    0  0.12280522692E+02 -0.10620078686E+02  0.42018043930E+02  0.45045680421E+02  0.00000000000E+00 0. -1.
         11    1    3    3    0    0 -0.23369117413E+01  0.60678451346E+00 -0.30534757942E+01  0.38926929777E+01  0.51100000000E-03 0. -1.
        -11    1    3    3    0    0 -0.19628515293E+01  0.78007921089E+01 -0.18533971754E+02  0.20204287982E+02  0.51100000000E-03 0.  1.
        -12    1    3    3    0    0 -0.79807594213E+01  0.22125020639E+01 -0.20430596382E+02  0.22045338619E+02  0.00000000000E+00 0.  1.
</event>
<event>
 7    1  0.2250716E-008  0.4614232E+02  0.7816164E-02  0.1320468E+00
        -11   -1    0    0    0    0  0.00000000000E+00  0.00000000000E+00  0.45593999997E+02  0.45594000000E+02  0.51100000000E-03 0. -1.
         11   -1    0    0    0    0 -0.00000000000E+00 -0.00000000000E+00 -0.45593999997E+02  0.45594000000E+02  0.51100000000E-03 0.  1.
    9900012    2    1    2    0    0  0.41121262598E+02 -0.14440290670E+02  0.11385660983E+02  0.46142317540E+02  0.99999979815E+01 0.  0.
         12    1    1    2    0    0 -0.41121262598E+02  0.14440290670E+02 -0.11385660983E+02  0.45045682460E+02  0.00000000000E+00 0. -1.
         11    1    3    3    0    0  0.18500637916E+02 -0.89752004398E+01  0.66410445461E+01  0.21608593178E+02  0.51100000000E-03 0. -1.
        -11    1    3    3    0    0  0.13498931202E+02 -0.60538078209E+01  0.41904588113E+01  0.15376269965E+02  0.51100000000E-03 0.  1.
         12    1    3    3    0    0  0.91216934802E+01  0.58871759018E+00  0.55415762548E+00  0.91574543964E+01  0.00000000000E+00 0. -1.
</event>
<event>
 7    1  0.2250716E-008  0.4614232E+02  0.7816164E-02  0.1320468E+00
        -11   -1    0    0    0    0  0.00000000000E+00  0.00000000000E+00  0.45593999997E+02  0.45594000000E+02  0.51100000000E-03 0.  1.
         11   -1    0    0    0    0 -0.00000000000E+00 -0.00000000000E+00 -0.45593999997E+02  0.45594000000E+02  0.51100000000E-03 0. -1.
    9900012    2    1    2    0    0 -0.37869164320E+02 -0.11945205541E+02  0.21268572804E+02  0.46142315070E+02  0.99999754567E+01 0.  0.
         12    1    1    2    0    0  0.37869164320E+02  0.11945205541E+02 -0.21268572804E+02  0.45045684930E+02  0.00000000000E+00 0. -1.
         11    1    3    3    0    0 -0.25118835180E+02 -0.68563965313E+01  0.17882102911E+02  0.31586953936E+02  0.51100000000E-03 0. -1.
        -11    1    3    3    0    0 -0.82344630899E+01 -0.41980160420E+01  0.36676112203E+01  0.99438972939E+01  0.51100000000E-03 0.  1.
         12    1    3    3    0    0 -0.45158660504E+01 -0.89079296796E+00 -0.28114132739E+00  0.46114638395E+01  0.00000000000E+00 0. -1.
</event>
<event>
 7    1  0.2250716E-008  0.4614232E+02  0.7816164E-02  0.1320468E+00
        -11   -1    0    0    0    0  0.00000000000E+00  0.00000000000E+00  0.45593999997E+02  0.45594000000E+02  0.51100000000E-03 0.  1.
         11   -1    0    0    0    0 -0.00000000000E+00 -0.00000000000E+00 -0.45593999997E+02  0.45594000000E+02  0.51100000000E-03 0. -1.
    9900012    2    1    2    0    0 -0.14826109077E+01  0.11137554068E+02  0.43621900960E+02  0.46142317754E+02  0.99999999314E+01 0.  0.
         12    1    1    2    0    0  0.14826109077E+01 -0.11137554068E+02 -0.43621900960E+02  0.45045682246E+02  0.00000000000E+00 0. -1.
         11    1    3    3    0    0  0.13784869806E+01  0.51024688128E+01  0.12345748943E+02  0.13429554407E+02  0.51100000000E-03 0. -1.
        -11    1    3    3    0    0 -0.31329860965E+01  0.54880731679E+01  0.31449236572E+02  0.32077858878E+02  0.51100000000E-03 0.  1.
         12    1    3    3    0    0  0.27188820814E+00  0.54701208709E+00 -0.17308455538E+00  0.63490446877E+00  0.00000000000E+00 0. -1.
</event>
<event>
 7    1  0.2250716E-008  0.4614231E+02  0.7816164E-02  0.1320468E+00
        -11   -1    0    0    0    0  0.00000000000E+00  0.00000000000E+00  0.45593999997E+02  0.45594000000E+02  0.51100000000E-03 0.  1.
         11   -1    0    0    0    0 -0.00000000000E+00 -0.00000000000E+00 -0.45593999997E+02  0.45594000000E+02  0.51100000000E-03 0. -1.
    9900012    2    1    2    0    0  0.24771181261E+02 -0.60701758013E+01  0.37130259550E+02  0.46142305094E+02  0.99998844879E+01 0.  0.
         12    1    1    2    0    0 -0.24771181261E+02  0.60701758013E+01 -0.37130259550E+02  0.45045694906E+02  0.00000000000E+00 0. -1.
         11    1    3    3    0    0  0.10926569033E+02  0.12770165142E+01  0.14611936391E+02  0.18290143995E+02  0.51100000000E-03 0.  1.
        -11    1    3    3    0    0  0.11584223763E+01 -0.14743928468E+01  0.55992218113E+01  0.59048337675E+01  0.51100000000E-03 0. -1.
         12    1    3    3    0    0  0.12686189852E+02 -0.58727994686E+01  0.16919101348E+02  0.21947327331E+02  0.00000000000E+00 0. -1.
</event>
<event>
 7    1  0.2250716E-008  0.4614232E+02  0.7816164E-02  0.1320468E+00
        -11   -1    0    0    0    0  0.00000000000E+00  0.00000000000E+00  0.45593999997E+02  0.45594000000E+02  0.51100000000E-03 0.  1.
         11   -1    0    0    0    0 -0.00000000000E+00 -0.00000000000E+00 -0.45593999997E+02  0.45594000000E+02  0.51100000000E-03 0. -1.
    9900012    2    1    2    0    0 -0.12232166604E+02 -0.16613306392E+02  0.40043546387E+02  0.46142318117E+02  0.10000003241E+02 0.  0.
         12    1    1    2    0    0  0.12232166604E+02  0.16613306392E+02 -0.40043546387E+02  0.45045681883E+02  0.00000000000E+00 0. -1.
         11    1    3    3    0    0 -0.99041415459E-02 -0.64570942969E+01  0.12269273872E+02  0.13864676212E+02  0.51100000000E-03 0. -1.
        -11    1    3    3    0    0 -0.64046942241E+01 -0.79162870139E+01  0.18135270156E+02  0.20798455041E+02  0.51100000000E-03 0.  1.
         12    1    3    3    0    0 -0.58175682388E+01 -0.22399250812E+01  0.96390023583E+01  0.11479186863E+02  0.00000000000E+00 0. -1.
</event>
<event>
 7    1  0.2250716E-008  0.4614232E+02  0.7816164E-02  0.1320468E+00
        -11   -1    0    0    0    0  0.00000000000E+00  0.00000000000E+00  0.45593999997E+02  0.45594000000E+02  0.51100000000E-03 0. -1.
         11   -1    0    0    0    0 -0.00000000000E+00 -0.00000000000E+00 -0.45593999997E+02  0.45594000000E+02  0.51100000000E-03 0.  1.
    9900012    2    1    2    0    0 -0.40484298475E+02  0.11722945171E+02 -0.15896776743E+02  0.46142318994E+02  0.10000011244E+02 0.  0.
         12    1    1    2    0    0  0.40484298475E+02 -0.11722945171E+02  0.15896776743E+02  0.45045681006E+02  0.00000000000E+00 0. -1.
         11    1    3    3    0    0 -0.27120237797E+01  0.18808919607E+01 -0.31294932997E+01  0.45482475882E+01  0.51100000000E-03 0. -1.
        -11    1    3    3    0    0 -0.35496318913E+02  0.10375057296E+02 -0.10765593641E+02  0.38516600018E+02  0.51100000000E-03 0.  1.
        -12    1    3    3    0    0 -0.22759557819E+01 -0.53300408566E+00 -0.20016898023E+01  0.30774713876E+01  0.00000000000E+00 0.  1.
</event>
<event>
 7    1  0.2250716E-008  0.4614232E+02  0.7816164E-02  0.1320468E+00
        -11   -1    0    0    0    0  0.00000000000E+00  0.00000000000E+00  0.45593999997E+02  0.45594000000E+02  0.51100000000E-03 0.  1.
         11   -1    0    0    0    0 -0.00000000000E+00 -0.00000000000E+00 -0.45593999997E+02  0.45594000000E+02  0.51100000000E-03 0. -1.
    9900012    2    1    2    0    0 -0.41641763777E+02  0.69069877389E+01  0.15728019703E+02  0.46142316812E+02  0.99999913493E+01 0.  0.
         12    1    1    2    0    0  0.41641763777E+02 -0.69069877389E+01 -0.15728019703E+02  0.45045683188E+02  0.00000000000E+00 0. -1.
         11    1    3    3    0    0 -0.15173039181E+02 -0.38655241979E+00  0.57191146047E+01  0.16219704463E+02  0.51100000000E-03 0. -1.
        -11    1    3    3    0    0 -0.84067416159E+01  0.17569386471E+01  0.63477435606E+01  0.10679606106E+02  0.51100000000E-03 0.  1.
        -12    1    3    3    0    0 -0.18061982980E+02  0.55366015116E+01  0.36611615374E+01  0.19243006243E+02  0.00000000000E+00 0.  1.
</event>
<event>
 7    1  0.2250716E-008  0.4614232E+02  0.7816164E-02  0.1320468E+00
        -11   -1    0    0    0    0  0.00000000000E+00  0.00000000000E+00  0.45593999997E+02  0.45594000000E+02  0.51100000000E-03 0.  1.
         11   -1    0    0    0    0 -0.00000000000E+00 -0.00000000000E+00 -0.45593999997E+02  0.45594000000E+02  0.51100000000E-03 0. -1.
    9900012    2    1    2    0    0  0.18214031881E+02 -0.51475515074E+01  0.40876220023E+02  0.46142316441E+02  0.99999879658E+01 0.  0.
         12    1    1    2    0    0 -0.18214031881E+02  0.51475515074E+01 -0.40876220023E+02  0.45045683559E+02  0.00000000000E+00 0. -1.
         11    1    3    3    0    0  0.51028433370E+01 -0.10318923916E+01  0.14176479236E+02  0.15102197715E+02  0.51100000000E-03 0.  1.
        -11    1    3    3    0    0  0.75151455117E+01 -0.62623996411E+01  0.15282299725E+02  0.18145074992E+02  0.51100000000E-03 0. -1.
         12    1    3    3    0    0  0.55960430322E+01  0.21467405253E+01  0.11417441063E+02  0.12895043735E+02  0.00000000000E+00 0. -1.
</event>
<event>
 7    1  0.2250716E-008  0.4614232E+02  0.7816164E-02  0.1320468E+00
        -11   -1    0    0    0    0  0.00000000000E+00  0.00000000000E+00  0.45593999997E+02  0.45594000000E+02  0.51100000000E-03 0.  1.
         11   -1    0    0    0    0 -0.00000000000E+00 -0.00000000000E+00 -0.45593999997E+02  0.45594000000E+02  0.51100000000E-03 0. -1.
    9900012    2    1    2    0    0 -0.43564591810E+02  0.10156623310E+02  0.52993302746E+01  0.46142316988E+02  0.99999929503E+01 0.  0.
         12    1    1    2    0    0  0.43564591810E+02 -0.10156623310E+02 -0.52993302746E+01  0.45045683012E+02  0.00000000000E+00 0. -1.
         11    1    3    3    0    0 -0.47185604418E+01 -0.48581417015E+00  0.13777088186E+01  0.49395252708E+01  0.51100000000E-03 0. -1.
        -11    1    3    3    0    0 -0.27916952672E+02  0.52889370350E+01 -0.10331293167E-01  0.28413539175E+02  0.51100000000E-03 0.  1.
         12    1    3    3    0    0 -0.10929078697E+02  0.53535004448E+01  0.39319527492E+01  0.12789252542E+02  0.00000000000E+00 0. -1.
</event>
<event>
 7    1  0.2250716E-008  0.4614232E+02  0.7816164E-02  0.1320468E+00
        -11   -1    0    0    0    0  0.00000000000E+00  0.00000000000E+00  0.45593999997E+02  0.45594000000E+02  0.51100000000E-03 0.  1.
         11   -1    0    0    0    0 -0.00000000000E+00 -0.00000000000E+00 -0.45593999997E+02  0.45594000000E+02  0.51100000000E-03 0. -1.
    9900012    2    1    2    0    0 -0.39182119144E+02  0.80392938337E+01  0.20718226183E+02  0.46142316498E+02  0.99999884842E+01 0.  0.
         12    1    1    2    0    0  0.39182119144E+02 -0.80392938337E+01 -0.20718226183E+02  0.45045683502E+02  0.00000000000E+00 0. -1.
         11    1    3    3    0    0 -0.53536291223E+00 -0.98615363833E+00  0.68338899015E+00  0.13138238920E+01  0.51100000000E-03 0. -1.
        -11    1    3    3    0    0 -0.26041657933E+02  0.61685096278E+01  0.16457960196E+02  0.31417875692E+02  0.51100000000E-03 0.  1.
        -12    1    3    3    0    0 -0.12605098299E+02  0.28569378442E+01  0.35768769974E+01  0.13410616915E+02  0.00000000000E+00 0.  1.
</event>
<event>
 7    1  0.2250716E-008  0.4614232E+02  0.7816164E-02  0.1320468E+00
        -11   -1    0    0    0    0  0.00000000000E+00  0.00000000000E+00  0.45593999997E+02  0.45594000000E+02  0.51100000000E-03 0.  1.
         11   -1    0    0    0    0 -0.00000000000E+00 -0.00000000000E+00 -0.45593999997E+02  0.45594000000E+02  0.51100000000E-03 0. -1.
    9900012    2    1    2    0    0 -0.31959237143E+02  0.60670528239E+01  0.31159452475E+02  0.46142318218E+02  0.10000004164E+02 0.  0.
         12    1    1    2    0    0  0.31959237143E+02 -0.60670528239E+01 -0.31159452475E+02  0.45045681782E+02  0.00000000000E+00 0. -1.
         11    1    3    3    0    0 -0.62326740385E+01  0.14608176663E+01  0.76095150810E+01  0.99440904035E+01  0.51100000000E-03 0. -1.
        -11    1    3    3    0    0 -0.15088851995E+02 -0.16015308545E+01  0.13038737875E+02  0.20006175078E+02  0.51100000000E-03 0.  1.
        -12    1    3    3    0    0 -0.10637711109E+02  0.62077660121E+01  0.10511199519E+02  0.16192052736E+02  0.00000000000E+00 0.  1.
</event>
<event>
 7    1  0.2250716E-008  0.4614232E+02  0.7816164E-02  0.1320468E+00
        -11   -1    0    0    0    0  0.00000000000E+00  0.00000000000E+00  0.45593999997E+02  0.45594000000E+02  0.51100000000E-03 0.  1.
         11   -1    0    0    0    0 -0.00000000000E+00 -0.00000000000E+00 -0.45593999997E+02  0.45594000000E+02  0.51100000000E-03 0. -1.
    9900012    2    1    2    0    0  0.42104996391E+02  0.52801429786E+01  0.15113002035E+02  0.46142318060E+02  0.10000002722E+02 0.  0.
         12    1    1    2    0    0 -0.42104996391E+02 -0.52801429786E+01 -0.15113002035E+02  0.45045681940E+02  0.00000000000E+00 0. -1.
         11    1    3    3    0    0  0.12056641277E+01  0.97377556915E+00  0.67071556238E+00  0.16887049697E+01  0.51100000000E-03 0. -1.
        -11    1    3    3    0    0  0.20524333955E+02 -0.85724239772E+00  0.10491892722E+02  0.23066490023E+02  0.51100000000E-03 0.  1.
         12    1    3    3    0    0  0.20374998308E+02  0.51636098072E+01  0.39503937511E+01  0.21387123067E+02  0.00000000000E+00 0. -1.
</event>
<event>
 7    1  0.2250716E-008  0.4614232E+02  0.7816164E-02  0.1320468E+00
        -11   -1    0    0    0    0  0.00000000000E+00  0.00000000000E+00  0.45593999997E+02  0.45594000000E+02  0.51100000000E-03 0. -1.
         11   -1    0    0    0    0 -0.00000000000E+00 -0.00000000000E+00 -0.45593999997E+02  0.45594000000E+02  0.51100000000E-03 0.  1.
    9900012    2    1    2    0    0  0.27234873122E+02 -0.15925581532E+01 -0.35844648610E+02  0.46142318860E+02  0.10000010016E+02 0.  0.
         12    1    1    2    0    0 -0.27234873122E+02  0.15925581532E+01  0.35844648610E+02  0.45045681140E+02  0.00000000000E+00 0. -1.
         11    1    3    3    0    0  0.50008832911E+01 -0.46434678871E+00 -0.18958040214E+01  0.53682888130E+01  0.51100000000E-03 0. -1.
        -11    1    3    3    0    0  0.14724369575E+02 -0.19953751001E+01 -0.20095582029E+02  0.24992418821E+02  0.51100000000E-03 0.  1.
        -12    1    3    3    0    0  0.75096202557E+01  0.86716373562E+00 -0.13853262560E+02  0.15781611226E+02  0.00000000000E+00 0.  1.
</event>
<event>
 7    1  0.2250716E-008  0.4614231E+02  0.7816164E-02  0.1320468E+00
        -11   -1    0    0    0    0  0.00000000000E+00  0.00000000000E+00  0.45593999997E+02  0.45594000000E+02  0.51100000000E-03 0.  1.
         11   -1    0    0    0    0 -0.00000000000E+00 -0.00000000000E+00 -0.45593999997E+02  0.45594000000E+02  0.51100000000E-03 0. -1.
    9900012    2    1    2    0    0 -0.90583309475E+00 -0.34776240997E+02  0.28616542864E+02  0.46142312115E+02  0.99999485180E+01 0.  0.
         12    1    1    2    0    0  0.90583309475E+00  0.34776240997E+02 -0.28616542864E+02  0.45045687885E+02  0.00000000000E+00 0. -1.
         11    1    3    3    0    0 -0.25967931322E+01 -0.26770987621E+01  0.16491749017E+01  0.40779860803E+01  0.51100000000E-03 0. -1.
        -11    1    3    3    0    0 -0.10918806645E+00 -0.12338909211E+02  0.11978169911E+02  0.17197010125E+02  0.51100000000E-03 0.  1.
        -12    1    3    3    0    0  0.18001481039E+01 -0.19760233024E+02  0.14989198052E+02  0.24867315911E+02  0.00000000000E+00 0.  1.
</event>
<event>
 7    1  0.2250716E-008  0.4614232E+02  0.7816164E-02  0.1320468E+00
        -11   -1    0    0    0    0  0.00000000000E+00  0.00000000000E+00  0.45593999997E+02  0.45594000000E+02  0.51100000000E-03 0. -1.
         11   -1    0    0    0    0 -0.00000000000E+00 -0.00000000000E+00 -0.45593999997E+02  0.45594000000E+02  0.51100000000E-03 0.  1.
    9900012    2    1    2    0    0  0.37038651243E+01 -0.43002187182E+02 -0.12892120416E+02  0.46142317763E+02  0.10000000021E+02 0.  0.
         12    1    1    2    0    0 -0.37038651243E+01  0.43002187182E+02  0.12892120416E+02  0.45045682237E+02  0.00000000000E+00 0. -1.
         11    1    3    3    0    0  0.36477429978E+01 -0.12425802183E+02 -0.11014132560E+01  0.12996911182E+02  0.51100000000E-03 0. -1.
        -11    1    3    3    0    0  0.71827344532E+00 -0.93871304585E+00  0.13872717293E+00  0.11901026907E+01  0.51100000000E-03 0.  1.
         12    1    3    3    0    0 -0.66215131875E+00 -0.29637671954E+02 -0.11929434333E+02  0.31955303890E+02  0.00000000000E+00 0. -1.
</event>
<event>
 7    1  0.2250716E-008  0.4614232E+02  0.7816164E-02  0.1320468E+00
        -11   -1    0    0    0    0  0.00000000000E+00  0.00000000000E+00  0.45593999997E+02  0.45594000000E+02  0.51100000000E-03 0.  1.
         11   -1    0    0    0    0 -0.00000000000E+00 -0.00000000000E+00 -0.45593999997E+02  0.45594000000E+02  0.51100000000E-03 0. -1.
    9900012    2    1    2    0    0 -0.27635221295E+02  0.90276859955E+01  0.34407977718E+02  0.46142317620E+02  0.99999987140E+01 0.  0.
         12    1    1    2    0    0  0.27635221295E+02 -0.90276859955E+01 -0.34407977718E+02  0.45045682380E+02  0.00000000000E+00 0. -1.
         11    1    3    3    0    0 -0.42818836663E+01  0.45933013132E+01  0.66965599790E+01  0.91802429433E+01  0.51100000000E-03 0. -1.
        -11    1    3    3    0    0 -0.69909711102E+01  0.32584759119E+01  0.11879635507E+02  0.14163935978E+02  0.51100000000E-03 0.  1.
        -12    1    3    3    0    0 -0.16362366519E+02  0.11759087704E+01  0.15831782231E+02  0.22798138699E+02  0.00000000000E+00 0.  1.
</event>
<event>
 7    1  0.2250716E-008  0.4614232E+02  0.7816164E-02  0.1320468E+00
        -11   -1    0    0    0    0  0.00000000000E+00  0.00000000000E+00  0.45593999997E+02  0.45594000000E+02  0.51100000000E-03 0.  1.
         11   -1    0    0    0    0 -0.00000000000E+00 -0.00000000000E+00 -0.45593999997E+02  0.45594000000E+02  0.51100000000E-03 0. -1.
    9900012    2    1    2    0    0 -0.17679191358E+02 -0.22219022578E+02  0.34969623908E+02  0.46142319101E+02  0.10000012221E+02 0.  0.
         12    1    1    2    0    0  0.17679191358E+02  0.22219022578E+02 -0.34969623908E+02  0.45045680899E+02  0.00000000000E+00 0. -1.
         11    1    3    3    0    0 -0.95819665136E+01 -0.15426401068E+02  0.17491274882E+02  0.25213738902E+02  0.51100000000E-03 0. -1.
        -11    1    3    3    0    0 -0.16074126647E+01  0.56072117487E+00  0.24707921639E+01  0.30004996066E+01  0.51100000000E-03 0.  1.
        -12    1    3    3    0    0 -0.64898121793E+01 -0.73533426848E+01  0.15007556862E+02  0.17928080592E+02  0.00000000000E+00 0.  1.
</event>
<event>
 7    1  0.2250716E-008  0.4614232E+02  0.7816164E-02  0.1320468E+00
        -11   -1    0    0    0    0  0.00000000000E+00  0.00000000000E+00  0.45593999997E+02  0.45594000000E+02  0.51100000000E-03 0.  1.
         11   -1    0    0    0    0 -0.00000000000E+00 -0.00000000000E+00 -0.45593999997E+02  0.45594000000E+02  0.51100000000E-03 0. -1.
    9900012    2    1    2    0    0  0.33099055501E+02  0.29497987856E+02 -0.79645946450E+01  0.46142317294E+02  0.99999957360E+01 0.  0.
         12    1    1    2    0    0 -0.33099055501E+02 -0.29497987856E+02  0.79645946450E+01  0.45045682706E+02  0.00000000000E+00 0. -1.
         11    1    3    3    0    0  0.55628827487E+01  0.92970327684E+01 -0.24160743868E+01  0.11100355782E+02  0.51100000000E-03 0. -1.
        -11    1    3    3    0    0  0.84432262559E+01  0.45724148282E+01  0.57736964810E+00  0.96191685161E+01  0.51100000000E-03 0.  1.
         12    1    3    3    0    0  0.19092946497E+02  0.15628540259E+02 -0.61258899063E+01  0.25422792996E+02  0.00000000000E+00 0. -1.
</event>
<event>
 7    1  0.2250716E-008  0.4614232E+02  0.7816164E-02  0.1320468E+00
        -11   -1    0    0    0    0  0.00000000000E+00  0.00000000000E+00  0.45593999997E+02  0.45594000000E+02  0.51100000000E-03 0. -1.
         11   -1    0    0    0    0 -0.00000000000E+00 -0.00000000000E+00 -0.45593999997E+02  0.45594000000E+02  0.51100000000E-03 0.  1.
    9900012    2    1    2    0    0  0.11885639208E+02  0.42741556553E+02 -0.78105307817E+01  0.46142317997E+02  0.10000002153E+02 0.  0.
         12    1    1    2    0    0 -0.11885639208E+02 -0.42741556553E+02  0.78105307817E+01  0.45045682003E+02  0.00000000000E+00 0. -1.
         11    1    3    3    0    0  0.28461188391E+01  0.13412283192E+02  0.15852366257E+01  0.13802271852E+02  0.51100000000E-03 0. -1.
        -11    1    3    3    0    0  0.58693093254E+01  0.20883272115E+02 -0.48067298422E+01  0.22218562020E+02  0.51100000000E-03 0.  1.
        -12    1    3    3    0    0  0.31702110440E+01  0.84460012463E+01 -0.45890375651E+01  0.10121484125E+02  0.00000000000E+00 0.  1.
</event>
<event>
 7    1  0.2250716E-008  0.4614232E+02  0.7816164E-02  0.1320468E+00
        -11   -1    0    0    0    0  0.00000000000E+00  0.00000000000E+00  0.45593999997E+02  0.45594000000E+02  0.51100000000E-03 0. -1.
         11   -1    0    0    0    0 -0.00000000000E+00 -0.00000000000E+00 -0.45593999997E+02  0.45594000000E+02  0.51100000000E-03 0.  1.
    9900012    2    1    2    0    0 -0.17460534449E+01 -0.44584599509E+02 -0.61869404977E+01  0.46142318201E+02  0.10000004010E+02 0.  0.
         12    1    1    2    0    0  0.17460534449E+01  0.44584599509E+02  0.61869404977E+01  0.45045681799E+02  0.00000000000E+00 0. -1.
         11    1    3    3    0    0  0.12088423298E+01 -0.69348262904E+01 -0.31010028798E+01  0.76921605924E+01  0.51100000000E-03 0.  1.
        -11    1    3    3    0    0 -0.39893580253E+01 -0.34583419481E+02 -0.41131444526E+01  0.35054897490E+02  0.51100000000E-03 0. -1.
         12    1    3    3    0    0  0.10344622507E+01 -0.30663537376E+01  0.10272068348E+01  0.33952601187E+01  0.00000000000E+00 0. -1.
</event>
<event>
 7    1  0.2250716E-008  0.4614232E+02  0.7816164E-02  0.1320468E+00
        -11   -1    0    0    0    0  0.00000000000E+00  0.00000000000E+00  0.45593999997E+02  0.45594000000E+02  0.51100000000E-03 0.  1.
         11   -1    0    0    0    0 -0.00000000000E+00 -0.00000000000E+00 -0.45593999997E+02  0.45594000000E+02  0.51100000000E-03 0. -1.
    9900012    2    1    2    0    0 -0.44178190089E+02 -0.41719738779E+01  0.77456840459E+01  0.46142317999E+02  0.10000002167E+02 0.  0.
         12    1    1    2    0    0  0.44178190089E+02  0.41719738779E+01 -0.77456840459E+01  0.45045682001E+02  0.00000000000E+00 0. -1.
         11    1    3    3    0    0 -0.11314284497E+02  0.93962542817E+00 -0.68960347003E+00  0.11374158555E+02  0.51100000000E-03 0. -1.
        -11    1    3    3    0    0 -0.32566398549E+02 -0.53134973165E+01  0.76031260342E+01  0.33861646356E+02  0.51100000000E-03 0.  1.
         12    1    3    3    0    0 -0.29750704407E+00  0.20189801040E+00  0.83216148170E+00  0.90651308843E+00  0.00000000000E+00 0. -1.
</event>
<event>
 7    1  0.2250716E-008  0.4614232E+02  0.7816164E-02  0.1320468E+00
        -11   -1    0    0    0    0  0.00000000000E+00  0.00000000000E+00  0.45593999997E+02  0.45594000000E+02  0.51100000000E-03 0. -1.
         11   -1    0    0    0    0 -0.00000000000E+00 -0.00000000000E+00 -0.45593999997E+02  0.45594000000E+02  0.51100000000E-03 0.  1.
    9900012    2    1    2    0    0 -0.30207310089E+02 -0.12332241410E+02 -0.31057167333E+02  0.46142318700E+02  0.10000008565E+02 0.  0.
         12    1    1    2    0    0  0.30207310089E+02  0.12332241410E+02  0.31057167333E+02  0.45045681300E+02  0.00000000000E+00 0. -1.
         11    1    3    3    0    0 -0.13350653065E+02 -0.99735844354E+01 -0.16777217031E+02  0.23647142223E+02  0.51100000000E-03 0. -1.
        -11    1    3    3    0    0 -0.79810205791E+01 -0.47596421563E+00 -0.88265370830E+01  0.11909281614E+02  0.51100000000E-03 0.  1.
        -12    1    3    3    0    0 -0.88756364448E+01 -0.18826927586E+01 -0.54534132192E+01  0.10585894864E+02  0.00000000000E+00 0.  1.
</event>
<event>
 7    1  0.2250716E-008  0.4614232E+02  0.7816164E-02  0.1320468E+00
        -11   -1    0    0    0    0  0.00000000000E+00  0.00000000000E+00  0.45593999997E+02  0.45594000000E+02  0.51100000000E-03 0. -1.
         11   -1    0    0    0    0 -0.00000000000E+00 -0.00000000000E+00 -0.45593999997E+02  0.45594000000E+02  0.51100000000E-03 0.  1.
    9900012    2    1    2    0    0  0.40422023472E+02  0.17168816134E+02  0.10020219737E+02  0.46142322820E+02  0.10000046128E+02 0.  0.
         12    1    1    2    0    0 -0.40422023472E+02 -0.17168816134E+02 -0.10020219737E+02  0.45045677180E+02  0.00000000000E+00 0. -1.
         11    1    3    3    0    0  0.10391849527E+02  0.16292589789E+01  0.40204715341E+01  0.11260959685E+02  0.51100000000E-03 0. -1.
        -11    1    3    3    0    0  0.54548468593E+01  0.34480882931E+01 -0.11956541805E+01  0.65630980730E+01  0.51100000000E-03 0.  1.
        -12    1    3    3    0    0  0.24575327086E+02  0.12091468862E+02  0.71954023830E+01  0.28318265062E+02  0.00000000000E+00 0.  1.
</event>
<event>
 7    1  0.2250716E-008  0.4614232E+02  0.7816164E-02  0.1320468E+00
        -11   -1    0    0    0    0  0.00000000000E+00  0.00000000000E+00  0.45593999997E+02  0.45594000000E+02  0.51100000000E-03 0.  1.
         11   -1    0    0    0    0 -0.00000000000E+00 -0.00000000000E+00 -0.45593999997E+02  0.45594000000E+02  0.51100000000E-03 0. -1.
    9900012    2    1    2    0    0  0.24938022172E+02 -0.22808665700E+02  0.29782096555E+02  0.46142318119E+02  0.10000003267E+02 0.  0.
         12    1    1    2    0    0 -0.24938022172E+02  0.22808665700E+02 -0.29782096555E+02  0.45045681881E+02  0.00000000000E+00 0. -1.
         11    1    3    3    0    0  0.59486179833E+01 -0.55561518536E+01  0.12013826272E+02  0.14511681546E+02  0.51100000000E-03 0. -1.
        -11    1    3    3    0    0  0.14457521264E+02 -0.10145843018E+02  0.10872421877E+02  0.20740482381E+02  0.51100000000E-03 0.  1.
         12    1    3    3    0    0  0.45318829246E+01 -0.71066708286E+01  0.68958484064E+01  0.10890154193E+02  0.00000000000E+00 0. -1.
</event>
<event>
 7    1  0.2250716E-008  0.4614232E+02  0.7816164E-02  0.1320468E+00
        -11   -1    0    0    0    0  0.00000000000E+00  0.00000000000E+00  0.45593999997E+02  0.45594000000E+02  0.51100000000E-03 0.  1.
         11   -1    0    0    0    0 -0.00000000000E+00 -0.00000000000E+00 -0.45593999997E+02  0.45594000000E+02  0.51100000000E-03 0. -1.
    9900012    2    1    2    0    0  0.11275970658E+02 -0.32488157438E+02  0.29094425898E+02  0.46142317562E+02  0.99999981821E+01 0.  0.
         12    1    1    2    0    0 -0.11275970658E+02  0.32488157438E+02 -0.29094425898E+02  0.45045682438E+02  0.00000000000E+00 0. -1.
         11    1    3    3    0    0  0.51120166747E+01 -0.13589212190E+02  0.81061324626E+01  0.16628553340E+02  0.51100000000E-03 0. -1.
        -11    1    3    3    0    0  0.69109727009E+01 -0.15133439813E+02  0.14999283587E+02  0.22400023496E+02  0.51100000000E-03 0.  1.
        -12    1    3    3    0    0 -0.74701871759E+00 -0.37655054354E+01  0.59890098480E+01  0.71137407253E+01  0.00000000000E+00 0.  1.
</event>
<event>
 7    1  0.2250716E-008  0.4614232E+02  0.7816164E-02  0.1320468E+00
        -11   -1    0    0    0    0  0.00000000000E+00  0.00000000000E+00  0.45593999997E+02  0.45594000000E+02  0.51100000000E-03 0.  1.
         11   -1    0    0    0    0 -0.00000000000E+00 -0.00000000000E+00 -0.45593999997E+02  0.45594000000E+02  0.51100000000E-03 0. -1.
    9900012    2    1    2    0    0  0.23102259237E+02  0.15695376285E+02  0.35341961121E+02  0.46142318359E+02  0.10000005454E+02 0.  0.
         12    1    1    2    0    0 -0.23102259237E+02 -0.15695376285E+02 -0.35341961121E+02  0.45045681641E+02  0.00000000000E+00 0. -1.
         11    1    3    3    0    0  0.28067337319E+01  0.28491827965E+01  0.85527236128E+01  0.94416459533E+01  0.51100000000E-03 0. -1.
        -11    1    3    3    0    0  0.15332662048E+02  0.93599982620E+01  0.24119620770E+02  0.30074178281E+02  0.51100000000E-03 0.  1.
         12    1    3    3    0    0  0.49628634576E+01  0.34861952262E+01  0.26696167384E+01  0.66264941246E+01  0.00000000000E+00 0. -1.
</event>
<event>
 7    1  0.2250716E-008  0.4614232E+02  0.7816164E-02  0.1320468E+00
        -11   -1    0    0    0    0  0.00000000000E+00  0.00000000000E+00  0.45593999997E+02  0.45594000000E+02  0.51100000000E-03 0.  1.
         11   -1    0    0    0    0 -0.00000000000E+00 -0.00000000000E+00 -0.45593999997E+02  0.45594000000E+02  0.51100000000E-03 0. -1.
    9900012    2    1    2    0    0 -0.29834338988E+02 -0.33747828046E+02  0.33088476143E+00  0.46142321346E+02  0.10000032690E+02 0.  0.
         12    1    1    2    0    0  0.29834338988E+02  0.33747828046E+02 -0.33088476143E+00  0.45045678654E+02  0.00000000000E+00 0. -1.
         11    1    3    3    0    0 -0.46228028603E+01 -0.36910804005E+01 -0.16903204872E+01  0.61523625071E+01  0.51100000000E-03 0. -1.
        -11    1    3    3    0    0 -0.23958072798E+01 -0.45295122214E+01  0.26036474334E+01  0.57476389678E+01  0.51100000000E-03 0.  1.
        -12    1    3    3    0    0 -0.22815728848E+02 -0.25527235424E+02 -0.58244218471E+00  0.34242319871E+02  0.00000000000E+00 0.  1.
</event>
<event>
 7    1  0.2250716E-008  0.4614232E+02  0.7816164E-02  0.1320468E+00
        -11   -1    0    0    0    0  0.00000000000E+00  0.00000000000E+00  0.45593999997E+02  0.45594000000E+02  0.51100000000E-03 0. -1.
         11   -1    0    0    0    0 -0.00000000000E+00 -0.00000000000E+00 -0.45593999997E+02  0.45594000000E+02  0.51100000000E-03 0.  1.
    9900012    2    1    2    0    0  0.39887487515E+02 -0.81505767055E+01 -0.19278743435E+02  0.46142317528E+02  0.99999978787E+01 0.  0.
         12    1    1    2    0    0 -0.39887487515E+02  0.81505767055E+01  0.19278743435E+02  0.45045682472E+02  0.00000000000E+00 0. -1.
         11    1    3    3    0    0  0.28932290722E+01  0.13109636229E+01 -0.29584308127E+00  0.31901290686E+01  0.51100000000E-03 0. -1.
        -11    1    3    3    0    0  0.85109340551E+01 -0.19361305352E+01 -0.68312598338E+01  0.11083804000E+02  0.51100000000E-03 0.  1.
        -12    1    3    3    0    0  0.28483324388E+02 -0.75254097933E+01 -0.12151640520E+02  0.31868384460E+02  0.00000000000E+00 0.  1.
</event>
<event>
 7    1  0.2250716E-008  0.4614232E+02  0.7816164E-02  0.1320468E+00
        -11   -1    0    0    0    0  0.00000000000E+00  0.00000000000E+00  0.45593999997E+02  0.45594000000E+02  0.51100000000E-03 0. -1.
         11   -1    0    0    0    0 -0.00000000000E+00 -0.00000000000E+00 -0.45593999997E+02  0.45594000000E+02  0.51100000000E-03 0.  1.
    9900012    2    1    2    0    0  0.28495566411E+02  0.28615998399E+02 -0.19955972040E+02  0.46142317748E+02  0.99999998810E+01 0.  0.
         12    1    1    2    0    0 -0.28495566411E+02 -0.28615998399E+02  0.19955972040E+02  0.45045682252E+02  0.00000000000E+00 0. -1.
         11    1    3    3    0    0  0.36555981767E+01  0.30445616493E+01  0.39666995143E+00  0.47738978809E+01  0.51100000000E-03 0. -1.
        -11    1    3    3    0    0  0.15685309274E+02  0.19255100519E+02 -0.12959149023E+02  0.28012985680E+02  0.51100000000E-03 0.  1.
         12    1    3    3    0    0  0.91546589602E+01  0.63163362304E+01 -0.73934929680E+01  0.13355434187E+02  0.00000000000E+00 0. -1.
</event>
<event>
 7    1  0.2250716E-008  0.4614232E+02  0.7816164E-02  0.1320468E+00
        -11   -1    0    0    0    0  0.00000000000E+00  0.00000000000E+00  0.45593999997E+02  0.45594000000E+02  0.51100000000E-03 0.  1.
         11   -1    0    0    0    0 -0.00000000000E+00 -0.00000000000E+00 -0.45593999997E+02  0.45594000000E+02  0.51100000000E-03 0. -1.
    9900012    2    1    2    0    0 -0.35660026395E+01  0.41480362406E+02  0.17198159233E+02  0.46142317397E+02  0.99999966774E+01 0.  0.
         12    1    1    2    0    0  0.35660026395E+01 -0.41480362406E+02 -0.17198159233E+02  0.45045682603E+02  0.00000000000E+00 0. -1.
         11    1    3    3    0    0  0.67641502117E+00  0.26644537990E+02  0.11397170003E+02  0.28987659897E+02  0.51100000000E-03 0.  1.
        -11    1    3    3    0    0 -0.10798547434E+01  0.92504750013E+01  0.15126163794E+01  0.94353263106E+01  0.51100000000E-03 0. -1.
        -12    1    3    3    0    0 -0.31625629173E+01  0.55853494150E+01  0.42883728514E+01  0.77193311890E+01  0.00000000000E+00 0.  1.
</event>
<event>
 7    1  0.2250716E-008  0.4614232E+02  0.7816164E-02  0.1320468E+00
        -11   -1    0    0    0    0  0.00000000000E+00  0.00000000000E+00  0.45593999997E+02  0.45594000000E+02  0.51100000000E-03 0.  1.
         11   -1    0    0    0    0 -0.00000000000E+00 -0.00000000000E+00 -0.45593999997E+02  0.45594000000E+02  0.51100000000E-03 0. -1.
    9900012    2    1    2    0    0  0.57228184585E+01  0.25155408537E+02  0.36926525783E+02  0.46142317230E+02  0.99999951565E+01 0.  0.
         12    1    1    2    0    0 -0.57228184585E+01 -0.25155408537E+02 -0.36926525783E+02  0.45045682770E+02  0.00000000000E+00 0. -1.
         11    1    3    3    0    0 -0.17580187053E+00  0.70936373283E+01  0.66467927388E+01  0.97226771425E+01  0.51100000000E-03 0. -1.
        -11    1    3    3    0    0 -0.15012812437E+01  0.16401542526E+01  0.34633440562E+01  0.41156656397E+01  0.51100000000E-03 0.  1.
        -12    1    3    3    0    0  0.73999015727E+01  0.16421616957E+02  0.26816388988E+02  0.32303974448E+02  0.00000000000E+00 0.  1.
</event>
<event>
 7    1  0.2250716E-008  0.4614232E+02  0.7816164E-02  0.1320468E+00
        -11   -1    0    0    0    0  0.00000000000E+00  0.00000000000E+00  0.45593999997E+02  0.45594000000E+02  0.51100000000E-03 0.  1.
         11   -1    0    0    0    0 -0.00000000000E+00 -0.00000000000E+00 -0.45593999997E+02  0.45594000000E+02  0.51100000000E-03 0. -1.
    9900012    2    1    2    0    0 -0.15497812983E+01 -0.36911201220E+02  0.25773531220E+02  0.46142317530E+02  0.99999978960E+01 0.  0.
         12    1    1    2    0    0  0.15497812983E+01  0.36911201220E+02 -0.25773531220E+02  0.45045682470E+02  0.00000000000E+00 0. -1.
         11    1    3    3    0    0 -0.16379194525E+01 -0.16923460103E+02  0.93634298257E+01  0.19410309125E+02  0.51100000000E-03 0. -1.
        -11    1    3    3    0    0  0.10271417444E+01 -0.13888381690E+02  0.14866965157E+02  0.20370783475E+02  0.51100000000E-03 0.  1.
         12    1    3    3    0    0 -0.93900359017E+00 -0.60993594275E+01  0.15431362377E+01  0.63612249304E+01  0.00000000000E+00 0. -1.
</event>
<event>
 7    1  0.2250716E-008  0.4614232E+02  0.7816164E-02  0.1320468E+00
        -11   -1    0    0    0    0  0.00000000000E+00  0.00000000000E+00  0.45593999997E+02  0.45594000000E+02  0.51100000000E-03 0.  1.
         11   -1    0    0    0    0 -0.00000000000E+00 -0.00000000000E+00 -0.45593999997E+02  0.45594000000E+02  0.51100000000E-03 0. -1.
    9900012    2    1    2    0    0 -0.41967974607E+01  0.42437391569E+02  0.14510970212E+02  0.46142316871E+02  0.99999918836E+01 0.  0.
         12    1    1    2    0    0  0.41967974607E+01 -0.42437391569E+02 -0.14510970212E+02  0.45045683129E+02  0.00000000000E+00 0. -1.
         11    1    3    3    0    0 -0.30401093985E+01  0.11988811012E+02  0.41217007010E+01  0.13036957911E+02  0.51100000000E-03 0.  1.
        -11    1    3    3    0    0 -0.27120289272E+01  0.12709006670E+02  0.76741475681E+01  0.15091934687E+02  0.51100000000E-03 0. -1.
         12    1    3    3    0    0  0.15553408650E+01  0.17739573887E+02  0.27151219426E+01  0.18013424274E+02  0.00000000000E+00 0. -1.
</event>
<event>
 7    1  0.2250716E-008  0.4614232E+02  0.7816164E-02  0.1320468E+00
        -11   -1    0    0    0    0  0.00000000000E+00  0.00000000000E+00  0.45593999997E+02  0.45594000000E+02  0.51100000000E-03 0.  1.
         11   -1    0    0    0    0 -0.00000000000E+00 -0.00000000000E+00 -0.45593999997E+02  0.45594000000E+02  0.51100000000E-03 0. -1.
    9900012    2    1    2    0    0 -0.28854976868E+02 -0.20766079567E+02  0.27663582058E+02  0.46142317378E+02  0.99999965059E+01 0.  0.
         12    1    1    2    0    0  0.28854976868E+02  0.20766079567E+02 -0.27663582058E+02  0.45045682622E+02  0.00000000000E+00 0. -1.
         11    1    3    3    0    0 -0.10252771511E+02 -0.99496856146E+01  0.11669488862E+02  0.18447019760E+02  0.51100000000E-03 0.  1.
        -11    1    3    3    0    0 -0.12326196413E+02 -0.69837936933E+01  0.62418982882E+01  0.15481272133E+02  0.51100000000E-03 0. -1.
        -12    1    3    3    0    0 -0.62760089441E+01 -0.38326002588E+01  0.97521949081E+01  0.12214025485E+02  0.00000000000E+00 0.  1.
</event>
<event>
 7    1  0.2250716E-008  0.4614232E+02  0.7816164E-02  0.1320468E+00
        -11   -1    0    0    0    0  0.00000000000E+00  0.00000000000E+00  0.45593999997E+02  0.45594000000E+02  0.51100000000E-03 0.  1.
         11   -1    0    0    0    0 -0.00000000000E+00 -0.00000000000E+00 -0.45593999997E+02  0.45594000000E+02  0.51100000000E-03 0. -1.
    9900012    2    1    2    0    0  0.10110106989E+02  0.59455234074E+01  0.43491953249E+02  0.46142317528E+02  0.99999978737E+01 0.  0.
         12    1    1    2    0    0 -0.10110106989E+02 -0.59455234074E+01 -0.43491953249E+02  0.45045682472E+02  0.00000000000E+00 0. -1.
         11    1    3    3    0    0  0.63243374391E+01  0.93866492698E+00  0.11882121987E+02  0.13493078191E+02  0.51100000000E-03 0. -1.
        -11    1    3    3    0    0  0.18745259553E+01  0.47932134567E+01  0.13672483128E+02  0.14609090935E+02  0.51100000000E-03 0.  1.
        -12    1    3    3    0    0  0.19112435947E+01  0.21364502374E+00  0.17937348134E+02  0.18040148402E+02  0.00000000000E+00 0.  1.
</event>
<event>
 7    1  0.2250716E-008  0.4614232E+02  0.7816164E-02  0.1320468E+00
        -11   -1    0    0    0    0  0.00000000000E+00  0.00000000000E+00  0.45593999997E+02  0.45594000000E+02  0.51100000000E-03 0.  1.
         11   -1    0    0    0    0 -0.00000000000E+00 -0.00000000000E+00 -0.45593999997E+02  0.45594000000E+02  0.51100000000E-03 0. -1.
    9900012    2    1    2    0    0 -0.20526883151E+02  0.12371710104E+02  0.38140547080E+02  0.46142317917E+02  0.10000001421E+02 0.  0.
         12    1    1    2    0    0  0.20526883151E+02 -0.12371710104E+02 -0.38140547080E+02  0.45045682083E+02  0.00000000000E+00 0. -1.
         11    1    3    3    0    0 -0.81944399235E+01  0.33897238104E+01  0.14919109422E+02  0.17355659002E+02  0.51100000000E-03 0.  1.
        -11    1    3    3    0    0 -0.96936073526E+01  0.96295393088E+01  0.21779281013E+02  0.25710525714E+02  0.51100000000E-03 0. -1.
         12    1    3    3    0    0 -0.26388358748E+01 -0.64755301549E+00  0.14421566450E+01  0.30761332011E+01  0.00000000000E+00 0. -1.
</event>
<event>
 7    1  0.2250716E-008  0.4614232E+02  0.7816164E-02  0.1320468E+00
        -11   -1    0    0    0    0  0.00000000000E+00  0.00000000000E+00  0.45593999997E+02  0.45594000000E+02  0.51100000000E-03 0.  1.
         11   -1    0    0    0    0 -0.00000000000E+00 -0.00000000000E+00 -0.45593999997E+02  0.45594000000E+02  0.51100000000E-03 0. -1.
    9900012    2    1    2    0    0  0.37383194682E+01 -0.44756602266E+02 -0.34619406875E+01  0.46142317497E+02  0.99999975878E+01 0.  0.
         12    1    1    2    0    0 -0.37383194682E+01  0.44756602266E+02  0.34619406875E+01  0.45045682503E+02  0.00000000000E+00 0. -1.
         11    1    3    3    0    0  0.10381048980E+01 -0.21652191172E+02  0.17436554537E+01  0.21747077480E+02  0.51100000000E-03 0. -1.
        -11    1    3    3    0    0  0.17023585826E+01 -0.20484543005E+01 -0.12725465755E+01  0.29518747962E+01  0.51100000000E-03 0.  1.
        -12    1    3    3    0    0  0.99785598770E+00 -0.21055956794E+02 -0.39330495656E+01  0.21443365220E+02  0.00000000000E+00 0.  1.
</event>
<event>
 7    1  0.2250716E-008  0.4614232E+02  0.7816164E-02  0.1320468E+00
        -11   -1    0    0    0    0  0.00000000000E+00  0.00000000000E+00  0.45593999997E+02  0.45594000000E+02  0.51100000000E-03 0.  1.
         11   -1    0    0    0    0 -0.00000000000E+00 -0.00000000000E+00 -0.45593999997E+02  0.45594000000E+02  0.51100000000E-03 0. -1.
    9900012    2    1    2    0    0  0.23842429875E+02 -0.37078381187E+02  0.92652926826E+01  0.46142318050E+02  0.10000002637E+02 0.  0.
         12    1    1    2    0    0 -0.23842429875E+02  0.37078381187E+02 -0.92652926826E+01  0.45045681950E+02  0.00000000000E+00 0. -1.
         11    1    3    3    0    0  0.11856281687E+02 -0.13155353581E+02  0.51319417455E+01  0.18438317971E+02  0.51100000000E-03 0.  1.
        -11    1    3    3    0    0  0.81914551470E+01 -0.12209387575E+02  0.45297482885E+01  0.15384658014E+02  0.51100000000E-03 0. -1.
        -12    1    3    3    0    0  0.37946930418E+01 -0.11713640031E+02 -0.39639735137E+00  0.12319342065E+02  0.00000000000E+00 0.  1.
</event>
<event>
 7    1  0.2250716E-008  0.4614232E+02  0.7816164E-02  0.1320468E+00
        -11   -1    0    0    0    0  0.00000000000E+00  0.00000000000E+00  0.45593999997E+02  0.45594000000E+02  0.51100000000E-03 0.  1.
         11   -1    0    0    0    0 -0.00000000000E+00 -0.00000000000E+00 -0.45593999997E+02  0.45594000000E+02  0.51100000000E-03 0. -1.
    9900012    2    1    2    0    0 -0.33010506155E+02  0.70406643258E+01  0.29830336962E+02  0.46142317920E+02  0.10000001450E+02 0.  0.
         12    1    1    2    0    0  0.33010506155E+02 -0.70406643258E+01 -0.29830336962E+02  0.45045682080E+02  0.00000000000E+00 0. -1.
         11    1    3    3    0    0 -0.13097418481E+02  0.14882333767E+01  0.75363229819E+01  0.15183984121E+02  0.51100000000E-03 0. -1.
        -11    1    3    3    0    0 -0.18356963673E+02  0.56345710037E+01  0.17730596983E+02  0.26136192824E+02  0.51100000000E-03 0.  1.
        -12    1    3    3    0    0 -0.15561240017E+01 -0.82140054629E-01  0.45634169965E+01  0.48221409749E+01  0.00000000000E+00 0.  1.
</event>
<event>
 7    1  0.2250716E-008  0.4614232E+02  0.7816164E-02  0.1320468E+00
        -11   -1    0    0    0    0  0.00000000000E+00  0.00000000000E+00  0.45593999997E+02  0.45594000000E+02  0.51100000000E-03 0.  1.
         11   -1    0    0    0    0 -0.00000000000E+00 -0.00000000000E+00 -0.45593999997E+02  0.45594000000E+02  0.51100000000E-03 0. -1.
    9900012    2    1    2    0    0  0.11802003191E+02  0.15377746427E+02  0.40661420388E+02  0.46142317938E+02  0.10000001609E+02 0.  0.
         12    1    1    2    0    0 -0.11802003191E+02 -0.15377746427E+02 -0.40661420388E+02  0.45045682062E+02  0.00000000000E+00 0. -1.
         11    1    3    3    0    0  0.97179806712E+01  0.10623656945E+02  0.22999587246E+02  0.27134521351E+02  0.51100000000E-03 0. -1.
        -11    1    3    3    0    0  0.15648789688E+01 -0.47680983989E+00  0.27892419884E+01  0.32335839159E+01  0.51100000000E-03 0.  1.
        -12    1    3    3    0    0  0.51914355071E+00  0.52308993227E+01  0.14872591154E+02  0.15774212671E+02  0.00000000000E+00 0.  1.
</event>
<event>
 7    1  0.2250716E-008  0.4614232E+02  0.7816164E-02  0.1320468E+00
        -11   -1    0    0    0    0  0.00000000000E+00  0.00000000000E+00  0.45593999997E+02  0.45594000000E+02  0.51100000000E-03 0.  1.
         11   -1    0    0    0    0 -0.00000000000E+00 -0.00000000000E+00 -0.45593999997E+02  0.45594000000E+02  0.51100000000E-03 0. -1.
    9900012    2    1    2    0    0 -0.24640152699E+01 -0.82602182078E+01  0.44213243688E+02  0.46142317704E+02  0.99999994773E+01 0.  0.
         12    1    1    2    0    0  0.24640152699E+01  0.82602182078E+01 -0.44213243688E+02  0.45045682296E+02  0.00000000000E+00 0. -1.
         11    1    3    3    0    0  0.16059695998E+01  0.17558432371E+00  0.81662275850E+01  0.83244964678E+01  0.51100000000E-03 0. -1.
        -11    1    3    3    0    0 -0.40702253304E+01 -0.12980545985E+01  0.14771765995E+02  0.15377150284E+02  0.51100000000E-03 0.  1.
         12    1    3    3    0    0  0.24046071315E-03 -0.71377479331E+01  0.21275250108E+02  0.22440670952E+02  0.00000000000E+00 0. -1.
</event>
<event>
 7    1  0.2569158E-008  0.4614232E+02  0.7816164E-02  0.1320468E+00
        -11   -1    0    0    0    0  0.00000000000E+00  0.00000000000E+00  0.45593999997E+02  0.45594000000E+02  0.51100000000E-03 0. -1.
         11   -1    0    0    0    0 -0.00000000000E+00 -0.00000000000E+00 -0.45593999997E+02  0.45594000000E+02  0.51100000000E-03 0.  1.
    9900012    2    1    2    0    0 -0.12431286441E+02  0.78234852864E+01 -0.42583673636E+02  0.46142322461E+02  0.10000042854E+02 0.  0.
         12    1    1    2    0    0  0.12431286441E+02 -0.78234852864E+01  0.42583673636E+02  0.45045677539E+02  0.00000000000E+00 0. -1.
         11    1    3    3    0    0  0.56513079023E+00  0.15739220221E+01 -0.23338690311E+01  0.28711579994E+01  0.51100000000E-03 0. -1.
        -11    1    3    3    0    0 -0.78270852078E+00  0.30797415212E+00 -0.10883954897E+02  0.10916407612E+02  0.51100000000E-03 0.  1.
        -12    1    3    3    0    0 -0.12213708711E+02  0.59415891121E+01 -0.29365849709E+02  0.32354756849E+02  0.00000000000E+00 0.  1.
</event>
<event>
 7    1  0.2250716E-008  0.4614232E+02  0.7816164E-02  0.1320468E+00
        -11   -1    0    0    0    0  0.00000000000E+00  0.00000000000E+00  0.45593999997E+02  0.45594000000E+02  0.51100000000E-03 0.  1.
         11   -1    0    0    0    0 -0.00000000000E+00 -0.00000000000E+00 -0.45593999997E+02  0.45594000000E+02  0.51100000000E-03 0. -1.
    9900012    2    1    2    0    0 -0.18835075979E+02  0.17200194256E+01  0.40882698282E+02  0.46142316824E+02  0.99999914564E+01 0.  0.
         12    1    1    2    0    0  0.18835075979E+02 -0.17200194256E+01 -0.40882698282E+02  0.45045683176E+02  0.00000000000E+00 0. -1.
         11    1    3    3    0    0 -0.98337646992E+01  0.27163282956E+01  0.17384821611E+02  0.20157216828E+02  0.51100000000E-03 0. -1.
        -11    1    3    3    0    0 -0.41764134013E+01 -0.36585085723E+01  0.10820881543E+02  0.12162178731E+02  0.51100000000E-03 0.  1.
         12    1    3    3    0    0 -0.48248978789E+01  0.26621997023E+01  0.12676995129E+02  0.13822921265E+02  0.00000000000E+00 0. -1.
</event>
<event>
 7    1  0.2250716E-008  0.4614232E+02  0.7816164E-02  0.1320468E+00
        -11   -1    0    0    0    0  0.00000000000E+00  0.00000000000E+00  0.45593999997E+02  0.45594000000E+02  0.51100000000E-03 0. -1.
         11   -1    0    0    0    0 -0.00000000000E+00 -0.00000000000E+00 -0.45593999997E+02  0.45594000000E+02  0.51100000000E-03 0.  1.
    9900012    2    1    2    0    0 -0.27814470604E+02  0.79486151346E+01 -0.34529526565E+02  0.46142318050E+02  0.10000002630E+02 0.  0.
         12    1    1    2    0    0  0.27814470604E+02 -0.79486151346E+01  0.34529526565E+02  0.45045681950E+02  0.00000000000E+00 0. -1.
         11    1    3    3    0    0 -0.81036749083E+01  0.36690376480E+01 -0.78348383818E+01  0.11853947740E+02  0.51100000000E-03 0. -1.
        -11    1    3    3    0    0 -0.15742619120E+02  0.93101170403E-01 -0.19110781304E+02  0.24760062336E+02  0.51100000000E-03 0.  1.
         12    1    3    3    0    0 -0.39681765758E+01  0.41864763162E+01 -0.75839068801E+01  0.95283079741E+01  0.00000000000E+00 0. -1.
</event>
<event>
 7    1  0.2250716E-008  0.4614231E+02  0.7816164E-02  0.1320468E+00
        -11   -1    0    0    0    0  0.00000000000E+00  0.00000000000E+00  0.45593999997E+02  0.45594000000E+02  0.51100000000E-03 0. -1.
         11   -1    0    0    0    0 -0.00000000000E+00 -0.00000000000E+00 -0.45593999997E+02  0.45594000000E+02  0.51100000000E-03 0.  1.
    9900012    2    1    2    0    0  0.35003225985E+02  0.18577235536E+02 -0.21419017164E+02  0.46142314238E+02  0.99999678710E+01 0.  0.
         12    1    1    2    0    0 -0.35003225985E+02 -0.18577235536E+02  0.21419017164E+02  0.45045685762E+02  0.00000000000E+00 0. -1.
         11    1    3    3    0    0  0.16264170434E+02  0.71261990774E+01 -0.13152136556E+02  0.22097163833E+02  0.51100000000E-03 0. -1.
        -11    1    3    3    0    0  0.94235487961E+01  0.34554903628E+01 -0.55591349962E+01  0.11473781753E+02  0.51100000000E-03 0.  1.
        -12    1    3    3    0    0  0.93155067551E+01  0.79955460962E+01 -0.27077456116E+01  0.12571368652E+02  0.00000000000E+00 0.  1.
</event>
<event>
 7    1  0.2250716E-008  0.4614232E+02  0.7816164E-02  0.1320468E+00
        -11   -1    0    0    0    0  0.00000000000E+00  0.00000000000E+00  0.45593999997E+02  0.45594000000E+02  0.51100000000E-03 0. -1.
         11   -1    0    0    0    0 -0.00000000000E+00 -0.00000000000E+00 -0.45593999997E+02  0.45594000000E+02  0.51100000000E-03 0.  1.
    9900012    2    1    2    0    0  0.35199826769E+02 -0.16404436154E+02 -0.22824985808E+02  0.46142319772E+02  0.10000018334E+02 0.  0.
         12    1    1    2    0    0 -0.35199826769E+02  0.16404436154E+02  0.22824985808E+02  0.45045680228E+02  0.00000000000E+00 0. -1.
         11    1    3    3    0    0  0.16455580137E+01 -0.34380109803E+01 -0.21811976598E+01  0.43915150199E+01  0.51100000000E-03 0. -1.
        -11    1    3    3    0    0  0.64578213791E+01 -0.29280266467E+01 -0.20189464139E+01  0.73724447703E+01  0.51100000000E-03 0.  1.
        -12    1    3    3    0    0  0.27096447376E+02 -0.10038398527E+02 -0.18624841734E+02  0.34378359982E+02  0.00000000000E+00 0.  1.
</event>
<event>
 7    1  0.2250716E-008  0.4614232E+02  0.7816164E-02  0.1320468E+00
        -11   -1    0    0    0    0  0.00000000000E+00  0.00000000000E+00  0.45593999997E+02  0.45594000000E+02  0.51100000000E-03 0.  1.
         11   -1    0    0    0    0 -0.00000000000E+00 -0.00000000000E+00 -0.45593999997E+02  0.45594000000E+02  0.51100000000E-03 0. -1.
    9900012    2    1    2    0    0 -0.36231134649E+02 -0.47670079159E+01  0.26338071392E+02  0.46142317775E+02  0.10000000129E+02 0.  0.
         12    1    1    2    0    0  0.36231134649E+02  0.47670079159E+01 -0.26338071392E+02  0.45045682225E+02  0.00000000000E+00 0. -1.
         11    1    3    3    0    0 -0.69300450558E+01 -0.20770084069E+01  0.26811015347E+01  0.77154257237E+01  0.51100000000E-03 0.  1.
        -11    1    3    3    0    0 -0.67714371658E+01  0.74711511007E+00  0.91633603628E+01  0.11418306165E+02  0.51100000000E-03 0. -1.
         12    1    3    3    0    0 -0.22529652428E+02 -0.34371146191E+01  0.14493609494E+02  0.27008585887E+02  0.00000000000E+00 0. -1.
</event>
<event>
 7    1  0.2250716E-008  0.4614232E+02  0.7816164E-02  0.1320468E+00
        -11   -1    0    0    0    0  0.00000000000E+00  0.00000000000E+00  0.45593999997E+02  0.45594000000E+02  0.51100000000E-03 0.  1.
         11   -1    0    0    0    0 -0.00000000000E+00 -0.00000000000E+00 -0.45593999997E+02  0.45594000000E+02  0.51100000000E-03 0. -1.
    9900012    2    1    2    0    0  0.41950658763E+02  0.15863595952E+02  0.41955026221E+01  0.46142315529E+02  0.99999796444E+01 0.  0.
         12    1    1    2    0    0 -0.41950658763E+02 -0.15863595952E+02 -0.41955026221E+01  0.45045684471E+02  0.00000000000E+00 0. -1.
         11    1    3    3    0    0  0.14671195654E+02  0.43960436853E+01  0.90762335916E+00  0.15342521384E+02  0.51100000000E-03 0. -1.
        -11    1    3    3    0    0  0.24354158679E+02  0.12563708641E+02  0.36857843363E+01  0.27650620720E+02  0.51100000000E-03 0.  1.
         12    1    3    3    0    0  0.29253044308E+01 -0.10961563746E+01 -0.39790507331E+00  0.31491734246E+01  0.00000000000E+00 0. -1.
</event>
<event>
 7    1  0.2250716E-008  0.4614232E+02  0.7816164E-02  0.1320468E+00
        -11   -1    0    0    0    0  0.00000000000E+00  0.00000000000E+00  0.45593999997E+02  0.45594000000E+02  0.51100000000E-03 0. -1.
         11   -1    0    0    0    0 -0.00000000000E+00 -0.00000000000E+00 -0.45593999997E+02  0.45594000000E+02  0.51100000000E-03 0.  1.
    9900012    2    1    2    0    0  0.44736443260E+02 -0.41477010812E+01  0.32496980523E+01  0.46142319660E+02  0.10000017318E+02 0.  0.
         12    1    1    2    0    0 -0.44736443260E+02  0.41477010812E+01 -0.32496980523E+01  0.45045680340E+02  0.00000000000E+00 0. -1.
         11    1    3    3    0    0  0.26910231647E+01  0.11253680374E+01  0.44065522024E+00  0.29499552839E+01  0.51100000000E-03 0. -1.
        -11    1    3    3    0    0  0.29182400955E+02 -0.97288598038E+00 -0.61109094028E+00  0.29205007534E+02  0.51100000000E-03 0.  1.
        -12    1    3    3    0    0  0.12863019140E+02 -0.43001831382E+01  0.34201337723E+01  0.13987356843E+02  0.00000000000E+00 0.  1.
</event>
<event>
 7    1  0.2250716E-008  0.4614232E+02  0.7816164E-02  0.1320468E+00
        -11   -1    0    0    0    0  0.00000000000E+00  0.00000000000E+00  0.45593999997E+02  0.45594000000E+02  0.51100000000E-03 0. -1.
         11   -1    0    0    0    0 -0.00000000000E+00 -0.00000000000E+00 -0.45593999997E+02  0.45594000000E+02  0.51100000000E-03 0.  1.
    9900012    2    1    2    0    0  0.21514121411E+02 -0.12827801462E+02 -0.37439331448E+02  0.46142318191E+02  0.10000003916E+02 0.  0.
         12    1    1    2    0    0 -0.21514121411E+02  0.12827801462E+02  0.37439331448E+02  0.45045681809E+02  0.00000000000E+00 0. -1.
         11    1    3    3    0    0  0.47914345257E+01 -0.38099294828E+01 -0.76489472511E+01  0.97969281813E+01  0.51100000000E-03 0. -1.
        -11    1    3    3    0    0  0.82568630736E+01 -0.91332973301E+01 -0.16503780983E+02  0.20590475830E+02  0.51100000000E-03 0.  1.
         12    1    3    3    0    0  0.84658238115E+01  0.11542535095E+00 -0.13286603214E+02  0.15754914179E+02  0.00000000000E+00 0. -1.
</event>
<event>
 7    1  0.2250716E-008  0.4614232E+02  0.7816164E-02  0.1320468E+00
        -11   -1    0    0    0    0  0.00000000000E+00  0.00000000000E+00  0.45593999997E+02  0.45594000000E+02  0.51100000000E-03 0.  1.
         11   -1    0    0    0    0 -0.00000000000E+00 -0.00000000000E+00 -0.45593999997E+02  0.45594000000E+02  0.51100000000E-03 0. -1.
    9900012    2    1    2    0    0 -0.76178533982E+01 -0.41261111571E+02  0.16389095390E+02  0.46142318007E+02  0.10000002246E+02 0.  0.
         12    1    1    2    0    0  0.76178533982E+01  0.41261111571E+02 -0.16389095390E+02  0.45045681993E+02  0.00000000000E+00 0. -1.
         11    1    3    3    0    0  0.16820376623E+01 -0.76495619814E+01  0.14747488369E+01  0.79699393723E+01  0.51100000000E-03 0. -1.
        -11    1    3    3    0    0 -0.26610310110E+01 -0.99224987218E+01  0.65686456612E+01  0.12193611976E+02  0.51100000000E-03 0.  1.
        -12    1    3    3    0    0 -0.66388600495E+01 -0.23689050868E+02  0.83457008923E+01  0.25978766660E+02  0.00000000000E+00 0.  1.
</event>
<event>
 7    1  0.2250716E-008  0.4614232E+02  0.7816164E-02  0.1320468E+00
        -11   -1    0    0    0    0  0.00000000000E+00  0.00000000000E+00  0.45593999997E+02  0.45594000000E+02  0.51100000000E-03 0. -1.
         11   -1    0    0    0    0 -0.00000000000E+00 -0.00000000000E+00 -0.45593999997E+02  0.45594000000E+02  0.51100000000E-03 0.  1.
    9900012    2    1    2    0    0 -0.66412689291E+01 -0.71126060944E+01 -0.43982014995E+02  0.46142320280E+02  0.10000022968E+02 0.  0.
         12    1    1    2    0    0  0.66412689291E+01  0.71126060944E+01  0.43982014995E+02  0.45045679720E+02  0.00000000000E+00 0. -1.
         11    1    3    3    0    0 -0.65329835283E+00  0.33932510062E+00 -0.54658758519E+01  0.55152279510E+01  0.51100000000E-03 0. -1.
        -11    1    3    3    0    0 -0.51092569778E+01 -0.55742929984E+01 -0.37613485014E+02  0.38366020180E+02  0.51100000000E-03 0.  1.
         12    1    3    3    0    0 -0.87871359853E+00 -0.18776381966E+01 -0.90265412874E+00  0.22610721487E+01  0.00000000000E+00 0. -1.
</event>
<event>
 7    1  0.2250716E-008  0.4614232E+02  0.7816164E-02  0.1320468E+00
        -11   -1    0    0    0    0  0.00000000000E+00  0.00000000000E+00  0.45593999997E+02  0.45594000000E+02  0.51100000000E-03 0.  1.
         11   -1    0    0    0    0 -0.00000000000E+00 -0.00000000000E+00 -0.45593999997E+02  0.45594000000E+02  0.51100000000E-03 0. -1.
    9900012    2    1    2    0    0 -0.21461755233E+02  0.16543644065E+02  0.35983530171E+02  0.46142317186E+02  0.99999947518E+01 0.  0.
         12    1    1    2    0    0  0.21461755233E+02 -0.16543644065E+02 -0.35983530171E+02  0.45045682814E+02  0.00000000000E+00 0. -1.
         11    1    3    3    0    0 -0.83859996828E+01  0.62361736034E+01  0.14414229024E+02  0.17804068369E+02  0.51100000000E-03 0. -1.
        -11    1    3    3    0    0 -0.13778090878E+02  0.87127775301E+01  0.20816649249E+02  0.26440143093E+02  0.51100000000E-03 0.  1.
         12    1    3    3    0    0  0.70233532784E+00  0.15946929312E+01  0.75265189844E+00  0.18981057236E+01  0.00000000000E+00 0. -1.
</event>
<event>
 7    1  0.2250716E-008  0.4614232E+02  0.7816164E-02  0.1320468E+00
        -11   -1    0    0    0    0  0.00000000000E+00  0.00000000000E+00  0.45593999997E+02  0.45594000000E+02  0.51100000000E-03 0.  1.
         11   -1    0    0    0    0 -0.00000000000E+00 -0.00000000000E+00 -0.45593999997E+02  0.45594000000E+02  0.51100000000E-03 0. -1.
    9900012    2    1    2    0    0 -0.14247724870E+01 -0.30661488767E+02  0.32969026149E+02  0.46142317019E+02  0.99999932322E+01 0.  0.
         12    1    1    2    0    0  0.14247724870E+01  0.30661488767E+02 -0.32969026149E+02  0.45045682981E+02  0.00000000000E+00 0. -1.
         11    1    3    3    0    0  0.12368044656E+01 -0.68503637977E+00  0.88572143932E+00  0.16683713187E+01  0.51100000000E-03 0. -1.
        -11    1    3    3    0    0 -0.29014461746E+01 -0.12238504042E+02  0.95321988261E+01  0.15781704148E+02  0.51100000000E-03 0.  1.
        -12    1    3    3    0    0  0.23986922200E+00 -0.17737948344E+02  0.22551105883E+02  0.28692241552E+02  0.00000000000E+00 0.  1.
</event>
<event>
 7    1  0.2250716E-008  0.4614232E+02  0.7816164E-02  0.1320468E+00
        -11   -1    0    0    0    0  0.00000000000E+00  0.00000000000E+00  0.45593999997E+02  0.45594000000E+02  0.51100000000E-03 0.  1.
         11   -1    0    0    0    0 -0.00000000000E+00 -0.00000000000E+00 -0.45593999997E+02  0.45594000000E+02  0.51100000000E-03 0. -1.
    9900012    2    1    2    0    0 -0.12230218177E+02 -0.20187363074E+02  0.38366725646E+02  0.46142317617E+02  0.99999986881E+01 0.  0.
         12    1    1    2    0    0  0.12230218177E+02  0.20187363074E+02 -0.38366725646E+02  0.45045682383E+02  0.00000000000E+00 0. -1.
         11    1    3    3    0    0 -0.26779772307E+01 -0.17913497833E+01  0.11169202786E+01  0.34099864024E+01  0.51100000000E-03 0. -1.
        -11    1    3    3    0    0 -0.23744251625E+01 -0.22680087676E+01  0.55511129951E+01  0.64495437333E+01  0.51100000000E-03 0.  1.
         12    1    3    3    0    0 -0.71778157834E+01 -0.16128004523E+02  0.31698692372E+02  0.36282787482E+02  0.00000000000E+00 0. -1.
</event>
<event>
 7    1  0.2250716E-008  0.4614232E+02  0.7816164E-02  0.1320468E+00
        -11   -1    0    0    0    0  0.00000000000E+00  0.00000000000E+00  0.45593999997E+02  0.45594000000E+02  0.51100000000E-03 0.  1.
         11   -1    0    0    0    0 -0.00000000000E+00 -0.00000000000E+00 -0.45593999997E+02  0.45594000000E+02  0.51100000000E-03 0. -1.
    9900012    2    1    2    0    0 -0.16889742604E+02  0.30749173610E+02  0.28254882952E+02  0.46142317703E+02  0.99999994744E+01 0.  0.
         12    1    1    2    0    0  0.16889742604E+02 -0.30749173610E+02 -0.28254882952E+02  0.45045682297E+02  0.00000000000E+00 0. -1.
         11    1    3    3    0    0 -0.80070208027E+01  0.14158591320E+02  0.17461946413E+02  0.23864150165E+02  0.51100000000E-03 0. -1.
        -11    1    3    3    0    0 -0.17114834644E+01  0.37407410387E+01  0.49722275716E+01  0.64533221253E+01  0.51100000000E-03 0.  1.
        -12    1    3    3    0    0 -0.71712383369E+01  0.12849841251E+02  0.58207089673E+01  0.15824845413E+02  0.00000000000E+00 0.  1.
</event>
<event>
 7    1  0.2250716E-008  0.4614232E+02  0.7816164E-02  0.1320468E+00
        -11   -1    0    0    0    0  0.00000000000E+00  0.00000000000E+00  0.45593999997E+02  0.45594000000E+02  0.51100000000E-03 0.  1.
         11   -1    0    0    0    0 -0.00000000000E+00 -0.00000000000E+00 -0.45593999997E+02  0.45594000000E+02  0.51100000000E-03 0. -1.
    9900012    2    1    2    0    0 -0.18028008679E+01 -0.33535292608E+02  0.30020785179E+02  0.46142317809E+02  0.10000000433E+02 0.  0.
         12    1    1    2    0    0  0.18028008679E+01  0.33535292608E+02 -0.30020785179E+02  0.45045682191E+02  0.00000000000E+00 0. -1.
         11    1    3    3    0    0  0.10736267688E+01 -0.11733951129E+02  0.88408152643E+01  0.14730862105E+02  0.51100000000E-03 0. -1.
        -11    1    3    3    0    0 -0.52148426479E+01 -0.16685241903E+02  0.14791112406E+02  0.22899102334E+02  0.51100000000E-03 0.  1.
        -12    1    3    3    0    0  0.23384150112E+01 -0.51160995757E+01  0.63888575090E+01  0.85123533704E+01  0.00000000000E+00 0.  1.
</event>
<event>
 7    1  0.2250716E-008  0.4614232E+02  0.7816164E-02  0.1320468E+00
        -11   -1    0    0    0    0  0.00000000000E+00  0.00000000000E+00  0.45593999997E+02  0.45594000000E+02  0.51100000000E-03 0.  1.
         11   -1    0    0    0    0 -0.00000000000E+00 -0.00000000000E+00 -0.45593999997E+02  0.45594000000E+02  0.51100000000E-03 0. -1.
    9900012    2    1    2    0    0  0.44291829912E+02 -0.80528251277E+01 -0.15809727078E+01  0.46142315810E+02  0.99999822068E+01 0.  0.
         12    1    1    2    0    0 -0.44291829912E+02  0.80528251277E+01  0.15809727078E+01  0.45045684190E+02  0.00000000000E+00 0. -1.
         11    1    3    3    0    0  0.33567340155E+01 -0.17787679435E+01  0.10135543137E+01  0.39317898285E+01  0.51100000000E-03 0. -1.
        -11    1    3    3    0    0  0.40527655360E+01  0.53214916136E+00 -0.23290176261E+01  0.47045100259E+01  0.51100000000E-03 0.  1.
        -12    1    3    3    0    0  0.36882330360E+02 -0.68062063455E+01 -0.26550939539E+00  0.37506015955E+02  0.00000000000E+00 0.  1.
</event>
<event>
 7    1  0.2250716E-008  0.4614232E+02  0.7816164E-02  0.1320468E+00
        -11   -1    0    0    0    0  0.00000000000E+00  0.00000000000E+00  0.45593999997E+02  0.45594000000E+02  0.51100000000E-03 0.  1.
         11   -1    0    0    0    0 -0.00000000000E+00 -0.00000000000E+00 -0.45593999997E+02  0.45594000000E+02  0.51100000000E-03 0. -1.
    9900012    2    1    2    0    0  0.32889897067E+02 -0.12211086551E+02  0.28253452116E+02  0.46142317407E+02  0.99999967668E+01 0.  0.
         12    1    1    2    0    0 -0.32889897067E+02  0.12211086551E+02 -0.28253452116E+02  0.45045682593E+02  0.00000000000E+00 0. -1.
         11    1    3    3    0    0  0.22065634024E+02 -0.79431570200E+01  0.23327014587E+02  0.33077719966E+02  0.51100000000E-03 0. -1.
        -11    1    3    3    0    0  0.67412948418E+01 -0.90462194973E+00  0.25265163579E+01  0.72558033452E+01  0.51100000000E-03 0.  1.
         12    1    3    3    0    0  0.40829682011E+01 -0.33633075813E+01  0.23999211710E+01  0.58087940956E+01  0.00000000000E+00 0. -1.
</event>
<event>
 7    1  0.2250716E-008  0.4614232E+02  0.7816164E-02  0.1320468E+00
        -11   -1    0    0    0    0  0.00000000000E+00  0.00000000000E+00  0.45593999997E+02  0.45594000000E+02  0.51100000000E-03 0.  1.
         11   -1    0    0    0    0 -0.00000000000E+00 -0.00000000000E+00 -0.45593999997E+02  0.45594000000E+02  0.51100000000E-03 0. -1.
    9900012    2    1    2    0    0 -0.32356589077E+02  0.17890725083E+02  0.25731043215E+02  0.46142317792E+02  0.10000000281E+02 0.  0.
         12    1    1    2    0    0  0.32356589077E+02 -0.17890725083E+02 -0.25731043215E+02  0.45045682208E+02  0.00000000000E+00 0. -1.
         11    1    3    3    0    0 -0.11686030207E+02  0.93757803605E+01  0.65870548166E+01  0.16366363395E+02  0.51100000000E-03 0. -1.
        -11    1    3    3    0    0 -0.99622449947E+01  0.45094986877E+01  0.64648219668E+01  0.12703378569E+02  0.51100000000E-03 0.  1.
         12    1    3    3    0    0 -0.10708313875E+02  0.40054460344E+01  0.12679166432E+02  0.17072575828E+02  0.00000000000E+00 0. -1.
</event>
<event>
 7    1  0.2250716E-008  0.4614232E+02  0.7816164E-02  0.1320468E+00
        -11   -1    0    0    0    0  0.00000000000E+00  0.00000000000E+00  0.45593999997E+02  0.45594000000E+02  0.51100000000E-03 0. -1.
         11   -1    0    0    0    0 -0.00000000000E+00 -0.00000000000E+00 -0.45593999997E+02  0.45594000000E+02  0.51100000000E-03 0.  1.
    9900012    2    1    2    0    0  0.28262459329E+02  0.99037131201E+01 -0.33649122171E+02  0.46142316924E+02  0.99999923672E+01 0.  0.
         12    1    1    2    0    0 -0.28262459329E+02 -0.99037131201E+01  0.33649122171E+02  0.45045683076E+02  0.00000000000E+00 0. -1.
         11    1    3    3    0    0  0.33015435214E+01  0.79120349010E+00 -0.94960156646E+01  0.10084666893E+02  0.51100000000E-03 0. -1.
        -11    1    3    3    0    0  0.14670037752E+01  0.12444713839E+01 -0.24876011845E+01  0.31446731175E+01  0.51100000000E-03 0.  1.
         12    1    3    3    0    0  0.23493912032E+02  0.78680382461E+01 -0.21665505322E+02  0.32912976913E+02  0.00000000000E+00 0. -1.
</event>
<event>
 7    1  0.2250716E-008  0.4614232E+02  0.7816164E-02  0.1320468E+00
        -11   -1    0    0    0    0  0.00000000000E+00  0.00000000000E+00  0.45593999997E+02  0.45594000000E+02  0.51100000000E-03 0. -1.
         11   -1    0    0    0    0 -0.00000000000E+00 -0.00000000000E+00 -0.45593999997E+02  0.45594000000E+02  0.51100000000E-03 0.  1.
    9900012    2    1    2    0    0 -0.39327688542E+02  0.16873132948E+02  0.14062121206E+02  0.46142323689E+02  0.10000054051E+02 0.  0.
         12    1    1    2    0    0  0.39327688542E+02 -0.16873132948E+02 -0.14062121206E+02  0.45045676311E+02  0.00000000000E+00 0. -1.
         11    1    3    3    0    0 -0.16338120652E+02  0.66692514389E+01  0.23864969592E+01  0.17807539673E+02  0.51100000000E-03 0. -1.
        -11    1    3    3    0    0 -0.45769083790E+01  0.42504187687E+01  0.44901815410E+01  0.76925860769E+01  0.51100000000E-03 0.  1.
        -12    1    3    3    0    0 -0.18412659511E+02  0.59534627403E+01  0.71854427060E+01  0.20642197939E+02  0.00000000000E+00 0.  1.
</event>
<event>
 7    1  0.2250716E-008  0.4614231E+02  0.7816164E-02  0.1320468E+00
        -11   -1    0    0    0    0  0.00000000000E+00  0.00000000000E+00  0.45593999997E+02  0.45594000000E+02  0.51100000000E-03 0. -1.
         11   -1    0    0    0    0 -0.00000000000E+00 -0.00000000000E+00 -0.45593999997E+02  0.45594000000E+02  0.51100000000E-03 0.  1.
    9900012    2    1    2    0    0  0.43334346670E+02 -0.73421607258E+01 -0.98661554324E+01  0.46142312654E+02  0.99999534324E+01 0.  0.
         12    1    1    2    0    0 -0.43334346670E+02  0.73421607258E+01  0.98661554324E+01  0.45045687346E+02  0.00000000000E+00 0. -1.
         11    1    3    3    0    0  0.11593606089E+02 -0.56118430746E+01 -0.11286491224E+01  0.12929746090E+02  0.51100000000E-03 0. -1.
        -11    1    3    3    0    0  0.28263478712E+00  0.42422251934E+00 -0.10510048054E+00  0.52047434224E+00  0.51100000000E-03 0.  1.
        -12    1    3    3    0    0  0.31458105794E+02 -0.21545401705E+01 -0.86324058295E+01  0.32692092222E+02  0.00000000000E+00 0.  1.
</event>
<event>
 7    1  0.2250716E-008  0.4614232E+02  0.7816164E-02  0.1320468E+00
        -11   -1    0    0    0    0  0.00000000000E+00  0.00000000000E+00  0.45593999997E+02  0.45594000000E+02  0.51100000000E-03 0.  1.
         11   -1    0    0    0    0 -0.00000000000E+00 -0.00000000000E+00 -0.45593999997E+02  0.45594000000E+02  0.51100000000E-03 0. -1.
    9900012    2    1    2    0    0  0.88094683814E+01 -0.40430868156E+02  0.17800328423E+02  0.46142317355E+02  0.99999962958E+01 0.  0.
         12    1    1    2    0    0 -0.88094683814E+01  0.40430868156E+02 -0.17800328423E+02  0.45045682645E+02  0.00000000000E+00 0. -1.
         11    1    3    3    0    0  0.10305508157E+02 -0.25752907173E+02  0.11439730640E+02  0.30004719023E+02  0.51100000000E-03 0. -1.
        -11    1    3    3    0    0  0.30260287657E+00 -0.25839526125E+01  0.10022377818E+01  0.27879850137E+01  0.51100000000E-03 0.  1.
         12    1    3    3    0    0 -0.17986426527E+01 -0.12094008370E+02  0.53583600008E+01  0.13349613318E+02  0.00000000000E+00 0. -1.
</event>
<event>
 7    1  0.2250716E-008  0.4614232E+02  0.7816164E-02  0.1320468E+00
        -11   -1    0    0    0    0  0.00000000000E+00  0.00000000000E+00  0.45593999997E+02  0.45594000000E+02  0.51100000000E-03 0.  1.
         11   -1    0    0    0    0 -0.00000000000E+00 -0.00000000000E+00 -0.45593999997E+02  0.45594000000E+02  0.51100000000E-03 0. -1.
    9900012    2    1    2    0    0 -0.16988614818E+02 -0.41623747391E+02 -0.28220578071E+01  0.46142318847E+02  0.10000009898E+02 0.  0.
         12    1    1    2    0    0  0.16988614818E+02  0.41623747391E+02  0.28220578071E+01  0.45045681153E+02  0.00000000000E+00 0. -1.
         11    1    3    3    0    0 -0.11825761065E+01  0.30034897905E-01  0.26150431801E+00  0.12115168641E+01  0.51100000000E-03 0. -1.
        -11    1    3    3    0    0 -0.87725531423E+01 -0.16937937994E+02 -0.23927832671E+01  0.19224381503E+02  0.51100000000E-03 0.  1.
        -12    1    3    3    0    0 -0.70334855694E+01 -0.24715844295E+02 -0.69077885800E+00  0.25706420480E+02  0.00000000000E+00 0.  1.
</event>
<event>
 7    1  0.2250716E-008  0.4614232E+02  0.7816164E-02  0.1320468E+00
        -11   -1    0    0    0    0  0.00000000000E+00  0.00000000000E+00  0.45593999997E+02  0.45594000000E+02  0.51100000000E-03 0. -1.
         11   -1    0    0    0    0 -0.00000000000E+00 -0.00000000000E+00 -0.45593999997E+02  0.45594000000E+02  0.51100000000E-03 0.  1.
    9900012    2    1    2    0    0  0.25502881639E+02  0.20373120005E+02 -0.31042752685E+02  0.46142317800E+02  0.10000000350E+02 0.  0.
         12    1    1    2    0    0 -0.25502881639E+02 -0.20373120005E+02  0.31042752685E+02  0.45045682200E+02  0.00000000000E+00 0. -1.
         11    1    3    3    0    0  0.38847937747E+01  0.26925866886E+01 -0.13015404292E+01  0.49026170050E+01  0.51100000000E-03 0. -1.
        -11    1    3    3    0    0  0.10762790309E+02  0.10337540350E+02 -0.19780598752E+02  0.24778508490E+02  0.51100000000E-03 0.  1.
        -12    1    3    3    0    0  0.10855297556E+02  0.73429929661E+01 -0.99606135034E+01  0.16461192304E+02  0.00000000000E+00 0.  1.
</event>
<event>
 7    1  0.2250716E-008  0.4614232E+02  0.7816164E-02  0.1320468E+00
        -11   -1    0    0    0    0  0.00000000000E+00  0.00000000000E+00  0.45593999997E+02  0.45594000000E+02  0.51100000000E-03 0.  1.
         11   -1    0    0    0    0 -0.00000000000E+00 -0.00000000000E+00 -0.45593999997E+02  0.45594000000E+02  0.51100000000E-03 0. -1.
    9900012    2    1    2    0    0  0.26774736728E+02 -0.26208900461E+02  0.25006409194E+02  0.46142317732E+02  0.99999997357E+01 0.  0.
         12    1    1    2    0    0 -0.26774736728E+02  0.26208900461E+02 -0.25006409194E+02  0.45045682268E+02  0.00000000000E+00 0. -1.
         11    1    3    3    0    0  0.35599327358E+00  0.70302371571E+00  0.81420435735E+00  0.11330942381E+01  0.51100000000E-03 0. -1.
        -11    1    3    3    0    0  0.28098075871E+01 -0.29269160595E+01  0.43134130933E+01  0.59217724602E+01  0.51100000000E-03 0.  1.
        -12    1    3    3    0    0  0.23608935867E+02 -0.23985008118E+02  0.19878791743E+02  0.39087451034E+02  0.00000000000E+00 0.  1.
</event>
<event>
 7    1  0.2250716E-008  0.4614232E+02  0.7816164E-02  0.1320468E+00
        -11   -1    0    0    0    0  0.00000000000E+00  0.00000000000E+00  0.45593999997E+02  0.45594000000E+02  0.51100000000E-03 0. -1.
         11   -1    0    0    0    0 -0.00000000000E+00 -0.00000000000E+00 -0.45593999997E+02  0.45594000000E+02  0.51100000000E-03 0.  1.
    9900012    2    1    2    0    0 -0.34849231701E+02 -0.46371637440E+01 -0.28162764931E+02  0.46142316896E+02  0.99999921106E+01 0.  0.
         12    1    1    2    0    0  0.34849231701E+02  0.46371637440E+01  0.28162764931E+02  0.45045683104E+02  0.00000000000E+00 0. -1.
         11    1    3    3    0    0 -0.30892923199E+01  0.13464661571E+00 -0.45864757417E+01  0.55315112528E+01  0.51100000000E-03 0. -1.
        -11    1    3    3    0    0 -0.49352045735E+01 -0.21157308937E+01 -0.75032830115E+01  0.92266905014E+01  0.51100000000E-03 0.  1.
         12    1    3    3    0    0 -0.26824734808E+02 -0.26560794661E+01 -0.16073006178E+02  0.31384115142E+02  0.00000000000E+00 0. -1.
</event>
<event>
 7    1  0.2250716E-008  0.4614232E+02  0.7816164E-02  0.1320468E+00
        -11   -1    0    0    0    0  0.00000000000E+00  0.00000000000E+00  0.45593999997E+02  0.45594000000E+02  0.51100000000E-03 0. -1.
         11   -1    0    0    0    0 -0.00000000000E+00 -0.00000000000E+00 -0.45593999997E+02  0.45594000000E+02  0.51100000000E-03 0.  1.
    9900012    2    1    2    0    0  0.26820899332E+02  0.32502928738E+02 -0.15915791974E+02  0.46142318168E+02  0.10000003711E+02 0.  0.
         12    1    1    2    0    0 -0.26820899332E+02 -0.32502928738E+02  0.15915791974E+02  0.45045681832E+02  0.00000000000E+00 0. -1.
         11    1    3    3    0    0  0.16990609893E+02  0.18057206739E+02 -0.79301278593E+01  0.26031336267E+02  0.51100000000E-03 0. -1.
        -11    1    3    3    0    0  0.66372147393E+01  0.11040624219E+02 -0.84711328847E+01  0.15417785031E+02  0.51100000000E-03 0.  1.
         12    1    3    3    0    0  0.31930747001E+01  0.34050977801E+01  0.48546877022E+00  0.46931968698E+01  0.00000000000E+00 0. -1.
</event>
<event>
 7    1  0.2250716E-008  0.4614232E+02  0.7816164E-02  0.1320468E+00
        -11   -1    0    0    0    0  0.00000000000E+00  0.00000000000E+00  0.45593999997E+02  0.45594000000E+02  0.51100000000E-03 0. -1.
         11   -1    0    0    0    0 -0.00000000000E+00 -0.00000000000E+00 -0.45593999997E+02  0.45594000000E+02  0.51100000000E-03 0.  1.
    9900012    2    1    2    0    0  0.78598403673E+01  0.43233918392E+02  0.99078146307E+01  0.46142316734E+02  0.99999906320E+01 0.  0.
         12    1    1    2    0    0 -0.78598403673E+01 -0.43233918392E+02 -0.99078146307E+01  0.45045683266E+02  0.00000000000E+00 0. -1.
         11    1    3    3    0    0  0.16375966431E+01  0.98218932339E+01  0.56057650124E+01  0.11426981714E+02  0.51100000000E-03 0.  1.
        -11    1    3    3    0    0 -0.10867566311E+00  0.75563192623E+01  0.27804717300E+01  0.80523781889E+01  0.51100000000E-03 0. -1.
         12    1    3    3    0    0  0.63309193873E+01  0.25855705896E+02  0.15215778883E+01  0.26662956831E+02  0.00000000000E+00 0. -1.
</event>
<event>
 7    1  0.2250716E-008  0.4614232E+02  0.7816164E-02  0.1320468E+00
        -11   -1    0    0    0    0  0.00000000000E+00  0.00000000000E+00  0.45593999997E+02  0.45594000000E+02  0.51100000000E-03 0. -1.
         11   -1    0    0    0    0 -0.00000000000E+00 -0.00000000000E+00 -0.45593999997E+02  0.45594000000E+02  0.51100000000E-03 0.  1.
    9900012    2    1    2    0    0  0.83320974197E+01 -0.43714899134E+02  0.69783369868E+01  0.46142318289E+02  0.10000004816E+02 0.  0.
         12    1    1    2    0    0 -0.83320974197E+01  0.43714899134E+02 -0.69783369868E+01  0.45045681711E+02  0.00000000000E+00 0. -1.
         11    1    3    3    0    0  0.13581917845E+01 -0.17081742489E+01 -0.41350942149E+00  0.22211561158E+01  0.51100000000E-03 0. -1.
        -11    1    3    3    0    0 -0.25171248720E+00 -0.22313523152E+02  0.35604679203E+01  0.22597203515E+02  0.51100000000E-03 0.  1.
        -12    1    3    3    0    0  0.72256181223E+01 -0.19693201733E+02  0.38313784879E+01  0.21323958659E+02  0.00000000000E+00 0.  1.
</event>
<event>
 7    1  0.2250716E-008  0.4614232E+02  0.7816164E-02  0.1320468E+00
        -11   -1    0    0    0    0  0.00000000000E+00  0.00000000000E+00  0.45593999997E+02  0.45594000000E+02  0.51100000000E-03 0.  1.
         11   -1    0    0    0    0 -0.00000000000E+00 -0.00000000000E+00 -0.45593999997E+02  0.45594000000E+02  0.51100000000E-03 0. -1.
    9900012    2    1    2    0    0 -0.17105233354E+02  0.35974570835E+02 -0.21032227951E+02  0.46142319103E+02  0.10000012239E+02 0.  0.
         12    1    1    2    0    0  0.17105233354E+02 -0.35974570835E+02  0.21032227951E+02  0.45045680897E+02  0.00000000000E+00 0. -1.
         11    1    3    3    0    0 -0.61695190895E+00  0.67828012334E+01 -0.32052679006E+01  0.75273345086E+01  0.51100000000E-03 0. -1.
        -11    1    3    3    0    0 -0.17054032490E+02  0.26816621727E+02 -0.16109671752E+02  0.35629941752E+02  0.51100000000E-03 0.  1.
        -12    1    3    3    0    0  0.56575104546E+00  0.23751478747E+01 -0.17172882983E+01  0.29850428425E+01  0.00000000000E+00 0.  1.
</event>
<event>
 7    1  0.2250716E-008  0.4614232E+02  0.7816164E-02  0.1320468E+00
        -11   -1    0    0    0    0  0.00000000000E+00  0.00000000000E+00  0.45593999997E+02  0.45594000000E+02  0.51100000000E-03 0.  1.
         11   -1    0    0    0    0 -0.00000000000E+00 -0.00000000000E+00 -0.45593999997E+02  0.45594000000E+02  0.51100000000E-03 0. -1.
    9900012    2    1    2    0    0 -0.15030601257E+02  0.41575721890E+02  0.86402454491E+01  0.46142318007E+02  0.10000002238E+02 0.  0.
         12    1    1    2    0    0  0.15030601257E+02 -0.41575721890E+02 -0.86402454491E+01  0.45045681993E+02  0.00000000000E+00 0. -1.
         11    1    3    3    0    0 -0.21137673353E+00  0.21677555113E+01  0.10139933518E+01  0.24025042890E+01  0.51100000000E-03 0. -1.
        -11    1    3    3    0    0 -0.13015276045E+02  0.26425400567E+02  0.83353448464E+01  0.30613349696E+02  0.51100000000E-03 0.  1.
         12    1    3    3    0    0 -0.18039484784E+01  0.12982565812E+02 -0.70909274909E+00  0.13126464022E+02  0.00000000000E+00 0. -1.
</event>
<event>
 7    1  0.2250716E-008  0.4614232E+02  0.7816164E-02  0.1320468E+00
        -11   -1    0    0    0    0  0.00000000000E+00  0.00000000000E+00  0.45593999997E+02  0.45594000000E+02  0.51100000000E-03 0.  1.
         11   -1    0    0    0    0 -0.00000000000E+00 -0.00000000000E+00 -0.45593999997E+02  0.45594000000E+02  0.51100000000E-03 0. -1.
    9900012    2    1    2    0    0 -0.64913385014E+00  0.29126398531E+02  0.34356150535E+02  0.46142317124E+02  0.99999941906E+01 0.  0.
         12    1    1    2    0    0  0.64913385014E+00 -0.29126398531E+02 -0.34356150535E+02  0.45045682876E+02  0.00000000000E+00 0. -1.
         11    1    3    3    0    0 -0.90486186734E-01  0.13432909415E+02  0.15233520312E+02  0.20310376275E+02  0.51100000000E-03 0.  1.
        -11    1    3    3    0    0 -0.10400867688E+01  0.13691717650E+01 -0.24617181485E+00  0.17369549885E+01  0.51100000000E-03 0. -1.
        -12    1    3    3    0    0  0.48143910534E+00  0.14324317351E+02  0.19368802039E+02  0.24094985860E+02  0.00000000000E+00 0.  1.
</event>
<event>
 7    1  0.2250716E-008  0.4614232E+02  0.7816164E-02  0.1320468E+00
        -11   -1    0    0    0    0  0.00000000000E+00  0.00000000000E+00  0.45593999997E+02  0.45594000000E+02  0.51100000000E-03 0.  1.
         11   -1    0    0    0    0 -0.00000000000E+00 -0.00000000000E+00 -0.45593999997E+02  0.45594000000E+02  0.51100000000E-03 0. -1.
    9900012    2    1    2    0    0 -0.18776040030E+02  0.31614324522E+02  0.26021305748E+02  0.46142317110E+02  0.99999940645E+01 0.  0.
         12    1    1    2    0    0  0.18776040030E+02 -0.31614324522E+02 -0.26021305748E+02  0.45045682890E+02  0.00000000000E+00 0. -1.
         11    1    3    3    0    0 -0.28034090369E+01  0.11497119939E+02  0.65830853210E+01  0.13541782812E+02  0.51100000000E-03 0. -1.
        -11    1    3    3    0    0 -0.98868285939E+01  0.10066415610E+02  0.80849890674E+01  0.16261892613E+02  0.51100000000E-03 0.  1.
        -12    1    3    3    0    0 -0.60858023991E+01  0.10050788974E+02  0.11353231359E+02  0.16338641686E+02  0.00000000000E+00 0.  1.
</event>
<event>
 7    1  0.2250716E-008  0.4614232E+02  0.7816164E-02  0.1320468E+00
        -11   -1    0    0    0    0  0.00000000000E+00  0.00000000000E+00  0.45593999997E+02  0.45594000000E+02  0.51100000000E-03 0. -1.
         11   -1    0    0    0    0 -0.00000000000E+00 -0.00000000000E+00 -0.45593999997E+02  0.45594000000E+02  0.51100000000E-03 0.  1.
    9900012    2    1    2    0    0 -0.37194500694E+02 -0.10445664687E+02 -0.23163994811E+02  0.46142318207E+02  0.10000004065E+02 0.  0.
         12    1    1    2    0    0  0.37194500694E+02  0.10445664687E+02  0.23163994811E+02  0.45045681793E+02  0.00000000000E+00 0. -1.
         11    1    3    3    0    0 -0.14885400701E+02 -0.66654517578E+01 -0.13688476836E+02  0.21292670089E+02  0.51100000000E-03 0. -1.
        -11    1    3    3    0    0 -0.16814486549E+02 -0.26475979425E+01 -0.89057642099E+01  0.19210657698E+02  0.51100000000E-03 0.  1.
        -12    1    3    3    0    0 -0.54946134441E+01 -0.11326149862E+01 -0.56975376574E+00  0.56389904203E+01  0.00000000000E+00 0.  1.
</event>
<event>
 7    1  0.2250716E-008  0.4614232E+02  0.7816164E-02  0.1320468E+00
        -11   -1    0    0    0    0  0.00000000000E+00  0.00000000000E+00  0.45593999997E+02  0.45594000000E+02  0.51100000000E-03 0. -1.
         11   -1    0    0    0    0 -0.00000000000E+00 -0.00000000000E+00 -0.45593999997E+02  0.45594000000E+02  0.51100000000E-03 0.  1.
    9900012    2    1    2    0    0  0.31155400589E+02 -0.14622847151E+02 -0.29062464518E+02  0.46142317760E+02  0.99999999867E+01 0.  0.
         12    1    1    2    0    0 -0.31155400589E+02  0.14622847151E+02  0.29062464518E+02  0.45045682240E+02  0.00000000000E+00 0. -1.
         11    1    3    3    0    0  0.17837314114E+02 -0.33549806965E+01 -0.13709939959E+02  0.22746167242E+02  0.51100000000E-03 0. -1.
        -11    1    3    3    0    0  0.34770388311E+01 -0.17902892541E+01 -0.25234111811E+01  0.46543032665E+01  0.51100000000E-03 0.  1.
         12    1    3    3    0    0  0.98410476434E+01 -0.94775772000E+01 -0.12829113378E+02  0.18741847251E+02  0.00000000000E+00 0. -1.
</event>
<event>
 7    1  0.2250716E-008  0.4614232E+02  0.7816164E-02  0.1320468E+00
        -11   -1    0    0    0    0  0.00000000000E+00  0.00000000000E+00  0.45593999997E+02  0.45594000000E+02  0.51100000000E-03 0. -1.
         11   -1    0    0    0    0 -0.00000000000E+00 -0.00000000000E+00 -0.45593999997E+02  0.45594000000E+02  0.51100000000E-03 0.  1.
    9900012    2    1    2    0    0 -0.10080035558E+02 -0.43522115023E+02  0.57733751456E+01  0.46142317926E+02  0.10000001504E+02 0.  0.
         12    1    1    2    0    0  0.10080035558E+02  0.43522115023E+02 -0.57733751456E+01  0.45045682074E+02  0.00000000000E+00 0. -1.
         11    1    3    3    0    0 -0.67108309498E+01 -0.13081158505E+02  0.34592831511E+01  0.15103595600E+02  0.51100000000E-03 0. -1.
        -11    1    3    3    0    0 -0.11517468012E+01 -0.15254433176E+02  0.33353228231E+01  0.15657222960E+02  0.51100000000E-03 0.  1.
        -12    1    3    3    0    0 -0.22174578068E+01 -0.15186523342E+02 -0.10212308285E+01  0.15381499366E+02  0.00000000000E+00 0.  1.
</event>
<event>
 7    1  0.2250716E-008  0.4614232E+02  0.7816164E-02  0.1320468E+00
        -11   -1    0    0    0    0  0.00000000000E+00  0.00000000000E+00  0.45593999997E+02  0.45594000000E+02  0.51100000000E-03 0.  1.
         11   -1    0    0    0    0 -0.00000000000E+00 -0.00000000000E+00 -0.45593999997E+02  0.45594000000E+02  0.51100000000E-03 0. -1.
    9900012    2    1    2    0    0 -0.43237755312E+02  0.12319779381E+02  0.27987657291E+01  0.46142317210E+02  0.99999949762E+01 0.  0.
         12    1    1    2    0    0  0.43237755312E+02 -0.12319779381E+02 -0.27987657291E+01  0.45045682790E+02  0.00000000000E+00 0. -1.
         11    1    3    3    0    0 -0.43979478897E+01 -0.20117396465E+00 -0.53313751500E+00  0.44347099652E+01  0.51100000000E-03 0. -1.
        -11    1    3    3    0    0 -0.37494357851E+02  0.13394750446E+02  0.38999937711E+01  0.40005701617E+02  0.51100000000E-03 0.  1.
        -12    1    3    3    0    0 -0.13454495708E+01 -0.87379710024E+00 -0.56809052705E+00  0.17019056280E+01  0.00000000000E+00 0.  1.
</event>
<event>
 7    1  0.2250716E-008  0.4614232E+02  0.7816164E-02  0.1320468E+00
        -11   -1    0    0    0    0  0.00000000000E+00  0.00000000000E+00  0.45593999997E+02  0.45594000000E+02  0.51100000000E-03 0. -1.
         11   -1    0    0    0    0 -0.00000000000E+00 -0.00000000000E+00 -0.45593999997E+02  0.45594000000E+02  0.51100000000E-03 0.  1.
    9900012    2    1    2    0    0 -0.70416738179E+01 -0.43801041620E+02  0.78100576849E+01  0.46142318540E+02  0.10000007101E+02 0.  0.
         12    1    1    2    0    0  0.70416738179E+01  0.43801041620E+02 -0.78100576849E+01  0.45045681460E+02  0.00000000000E+00 0. -1.
         11    1    3    3    0    0 -0.14118104840E+01 -0.14078668768E+01 -0.39140487317E+00  0.20318700798E+01  0.51100000000E-03 0. -1.
        -11    1    3    3    0    0 -0.40377427045E+01 -0.34651232118E+02  0.38760437006E+01  0.35100355674E+02  0.51100000000E-03 0.  1.
        -12    1    3    3    0    0 -0.15921206294E+01 -0.77419426258E+01  0.43254188575E+01  0.90100927860E+01  0.00000000000E+00 0.  1.
</event>
<event>
 7    1  0.2250716E-008  0.4614232E+02  0.7816164E-02  0.1320468E+00
        -11   -1    0    0    0    0  0.00000000000E+00  0.00000000000E+00  0.45593999997E+02  0.45594000000E+02  0.51100000000E-03 0.  1.
         11   -1    0    0    0    0 -0.00000000000E+00 -0.00000000000E+00 -0.45593999997E+02  0.45594000000E+02  0.51100000000E-03 0. -1.
    9900012    2    1    2    0    0 -0.14918209706E+02  0.31344051456E+02  0.28707336128E+02  0.46142315522E+02  0.99999795816E+01 0.  0.
         12    1    1    2    0    0  0.14918209706E+02 -0.31344051456E+02 -0.28707336128E+02  0.45045684478E+02  0.00000000000E+00 0. -1.
         11    1    3    3    0    0 -0.72074102256E+01  0.15394026874E+02  0.16624859053E+02  0.23776222668E+02  0.51100000000E-03 0. -1.
        -11    1    3    3    0    0 -0.81995223125E+01  0.15394415768E+02  0.98869872328E+01  0.20049257338E+02  0.51100000000E-03 0.  1.
         12    1    3    3    0    0  0.48872283202E+00  0.55560881370E+00  0.21954898426E+01  0.23168355162E+01  0.00000000000E+00 0. -1.
</event>
<event>
 7    1  0.2250716E-008  0.4614232E+02  0.7816164E-02  0.1320468E+00
        -11   -1    0    0    0    0  0.00000000000E+00  0.00000000000E+00  0.45593999997E+02  0.45594000000E+02  0.51100000000E-03 0.  1.
         11   -1    0    0    0    0 -0.00000000000E+00 -0.00000000000E+00 -0.45593999997E+02  0.45594000000E+02  0.51100000000E-03 0. -1.
    9900012    2    1    2    0    0  0.37776014089E+02 -0.95173378448E-01  0.24537260344E+02  0.46142318258E+02  0.10000004527E+02 0.  0.
         12    1    1    2    0    0 -0.37776014089E+02  0.95173378448E-01 -0.24537260344E+02  0.45045681742E+02  0.00000000000E+00 0. -1.
         11    1    3    3    0    0  0.25725103295E+02 -0.12603718173E+00  0.16817872113E+02  0.30734958070E+02  0.51100000000E-03 0. -1.
        -11    1    3    3    0    0  0.12539062828E+02 -0.16664128106E+00  0.79333790505E+01  0.14838947717E+02  0.51100000000E-03 0.  1.
         12    1    3    3    0    0 -0.48815203376E+00  0.19750508434E+00 -0.21399081886E+00  0.56841247080E+00  0.00000000000E+00 0. -1.
</event>
<event>
 7    1  0.2250716E-008  0.4614232E+02  0.7816164E-02  0.1320468E+00
        -11   -1    0    0    0    0  0.00000000000E+00  0.00000000000E+00  0.45593999997E+02  0.45594000000E+02  0.51100000000E-03 0.  1.
         11   -1    0    0    0    0 -0.00000000000E+00 -0.00000000000E+00 -0.45593999997E+02  0.45594000000E+02  0.51100000000E-03 0. -1.
    9900012    2    1    2    0    0  0.26982641686E+01 -0.67189146782E+00  0.44959775452E+02  0.46142317894E+02  0.10000001213E+02 0.  0.
         12    1    1    2    0    0 -0.26982641686E+01  0.67189146782E+00 -0.44959775452E+02  0.45045682106E+02  0.00000000000E+00 0. -1.
         11    1    3    3    0    0  0.16583863491E+00 -0.14559878783E+01  0.68347734100E+01  0.69901023585E+01  0.51100000000E-03 0. -1.
        -11    1    3    3    0    0 -0.60877667961E+00 -0.29696347800E+01  0.24259059466E+02  0.24447725993E+02  0.51100000000E-03 0.  1.
         12    1    3    3    0    0  0.31412022133E+01  0.37537311905E+01  0.13865942576E+02  0.14704489543E+02  0.00000000000E+00 0. -1.
</event>
<event>
 7    1  0.2250716E-008  0.4614232E+02  0.7816164E-02  0.1320468E+00
        -11   -1    0    0    0    0  0.00000000000E+00  0.00000000000E+00  0.45593999997E+02  0.45594000000E+02  0.51100000000E-03 0.  1.
         11   -1    0    0    0    0 -0.00000000000E+00 -0.00000000000E+00 -0.45593999997E+02  0.45594000000E+02  0.51100000000E-03 0. -1.
    9900012    2    1    2    0    0 -0.40557897091E+02 -0.17670355525E+02  0.84811049002E+01  0.46142316287E+02  0.99999865584E+01 0.  0.
         12    1    1    2    0    0  0.40557897091E+02  0.17670355525E+02 -0.84811049002E+01  0.45045683713E+02  0.00000000000E+00 0. -1.
         11    1    3    3    0    0 -0.20114288601E+01 -0.16841102402E+01 -0.33687434505E+00  0.26449117085E+01  0.51100000000E-03 0. -1.
        -11    1    3    3    0    0 -0.79849139088E+01 -0.57413399061E+01  0.50187369774E+01  0.11041266012E+02  0.51100000000E-03 0.  1.
        -12    1    3    3    0    0 -0.30561554322E+02 -0.10244905379E+02  0.37992422679E+01  0.32456138566E+02  0.00000000000E+00 0.  1.
</event>
