<event>
 7    1  0.7596051E-010  0.4778727E+02  0.7816164E-02  0.1312668E+00
        -11   -1    0    0    0    0  0.00000000000E+00  0.00000000000E+00  0.45593999997E+02  0.45594000000E+02  0.51100000000E-03 0.  1.
         11   -1    0    0    0    0 -0.00000000000E+00 -0.00000000000E+00 -0.45593999997E+02  0.45594000000E+02  0.51100000000E-03 0. -1.
    9900012    2    1    2    0    0  0.86189157372E+01 -0.33306046759E+02 -0.26458359212E+02  0.47787271534E+02  0.20000002233E+02 0.  0.
         12    1    1    2    0    0 -0.86189157372E+01  0.33306046759E+02  0.26458359212E+02  0.43400728466E+02  0.00000000000E+00 0. -1.
         11    1    3    3    0    0 -0.12468694832E+01 -0.40773784208E+01 -0.83108107406E+00  0.43440067113E+01  0.51100000000E-03 0.  1.
        -11    1    3    3    0    0  0.61716569017E+01 -0.42345814403E+01 -0.13458851992E+02  0.15400056042E+02  0.51100000000E-03 0. -1.
        -12    1    3    3    0    0  0.36941283187E+01 -0.24994086898E+02 -0.12168426146E+02  0.28043208781E+02  0.00000000000E+00 0.  1.
</event>
<event>
 7    1  0.7596051E-010  0.4778729E+02  0.7816164E-02  0.1312668E+00
        -11   -1    0    0    0    0  0.00000000000E+00  0.00000000000E+00  0.45593999997E+02  0.45594000000E+02  0.51100000000E-03 0. -1.
         11   -1    0    0    0    0 -0.00000000000E+00 -0.00000000000E+00 -0.45593999997E+02  0.45594000000E+02  0.51100000000E-03 0.  1.
    9900012    2    1    2    0    0  0.30139877706E+02 -0.15138024657E+02 -0.27313914130E+02  0.47787286599E+02  0.20000070919E+02 0.  0.
         12    1    1    2    0    0 -0.30139877706E+02  0.15138024657E+02  0.27313914130E+02  0.43400713401E+02  0.00000000000E+00 0. -1.
         11    1    3    3    0    0  0.10240175631E+02 -0.88007883903E+01 -0.16542024669E+02  0.21353071294E+02  0.51100000000E-03 0. -1.
        -11    1    3    3    0    0  0.10067453908E+02 -0.90601792302E+01 -0.37654129609E+01  0.14057695789E+02  0.51100000000E-03 0.  1.
         12    1    3    3    0    0  0.98322481670E+01  0.27229429639E+01 -0.70064764997E+01  0.12376519517E+02  0.00000000000E+00 0. -1.
</event>
<event>
 7    1  0.7596051E-010  0.4778727E+02  0.7816164E-02  0.1312668E+00
        -11   -1    0    0    0    0  0.00000000000E+00  0.00000000000E+00  0.45593999997E+02  0.45594000000E+02  0.51100000000E-03 0. -1.
         11   -1    0    0    0    0 -0.00000000000E+00 -0.00000000000E+00 -0.45593999997E+02  0.45594000000E+02  0.51100000000E-03 0.  1.
    9900012    2    1    2    0    0 -0.22049156518E+02  0.14999752841E+02 -0.34241282564E+02  0.47787270512E+02  0.19999997574E+02 0.  0.
         12    1    1    2    0    0  0.22049156518E+02 -0.14999752841E+02  0.34241282564E+02  0.43400729488E+02  0.00000000000E+00 0. -1.
         11    1    3    3    0    0 -0.46650540756E+01  0.66481409992E+01 -0.10745635298E+02  0.13469565193E+02  0.51100000000E-03 0. -1.
        -11    1    3    3    0    0 -0.18593120695E+02  0.11279982834E+02 -0.21454689765E+02  0.30549073031E+02  0.51100000000E-03 0.  1.
         12    1    3    3    0    0  0.12090182523E+01 -0.29283709921E+01 -0.20409575011E+01  0.37686322882E+01  0.00000000000E+00 0. -1.
</event>
<event>
 7    1  0.7596051E-010  0.4778727E+02  0.7816164E-02  0.1312668E+00
        -11   -1    0    0    0    0  0.00000000000E+00  0.00000000000E+00  0.45593999997E+02  0.45594000000E+02  0.51100000000E-03 0. -1.
         11   -1    0    0    0    0 -0.00000000000E+00 -0.00000000000E+00 -0.45593999997E+02  0.45594000000E+02  0.51100000000E-03 0.  1.
    9900012    2    1    2    0    0 -0.12282095872E+02 -0.89380176685E+01  0.40655688175E+02  0.47787273971E+02  0.20000013342E+02 0.  0.
        -12    1    1    2    0    0  0.12282095872E+02  0.89380176685E+01 -0.40655688175E+02  0.43400726029E+02  0.00000000000E+00 0.  1.
         11    1    3    3    0    0 -0.57422594788E+01 -0.89741517136E+01  0.18123839065E+02  0.21023379500E+02  0.51100000000E-03 0. -1.
        -11    1    3    3    0    0 -0.10390553064E+02 -0.38025732623E+00  0.18136530326E+02  0.20905547616E+02  0.51100000000E-03 0.  1.
        -12    1    3    3    0    0  0.38507166700E+01  0.41639137136E+00  0.43953187843E+01  0.58583468540E+01  0.00000000000E+00 0.  1.
</event>
<event>
 7    1  0.7596051E-010  0.4778727E+02  0.7816164E-02  0.1312668E+00
        -11   -1    0    0    0    0  0.00000000000E+00  0.00000000000E+00  0.45593999997E+02  0.45594000000E+02  0.51100000000E-03 0. -1.
         11   -1    0    0    0    0 -0.00000000000E+00 -0.00000000000E+00 -0.45593999997E+02  0.45594000000E+02  0.51100000000E-03 0.  1.
    9900012    2    1    2    0    0 -0.36655213391E+02  0.19707141566E+02 -0.12314504584E+02  0.47787272810E+02  0.20000008050E+02 0.  0.
         12    1    1    2    0    0  0.36655213391E+02 -0.19707141566E+02  0.12314504584E+02  0.43400727190E+02  0.00000000000E+00 0. -1.
         11    1    3    3    0    0 -0.89571785506E+01  0.78098963864E+01  0.18908226096E+01  0.12033317895E+02  0.51100000000E-03 0. -1.
        -11    1    3    3    0    0 -0.18810460290E+02  0.14178423105E+02 -0.11327470944E+02  0.26137572502E+02  0.51100000000E-03 0.  1.
        -12    1    3    3    0    0 -0.88875745507E+01 -0.22811779253E+01 -0.28778562490E+01  0.96163824128E+01  0.00000000000E+00 0.  1.
</event>
<event>
 7    1  0.7596051E-010  0.4778728E+02  0.7816164E-02  0.1312668E+00
        -11   -1    0    0    0    0  0.00000000000E+00  0.00000000000E+00  0.45593999997E+02  0.45594000000E+02  0.51100000000E-03 0. -1.
         11   -1    0    0    0    0 -0.00000000000E+00 -0.00000000000E+00 -0.45593999997E+02  0.45594000000E+02  0.51100000000E-03 0.  1.
    9900012    2    1    2    0    0  0.38444666419E+02  0.19922315602E+02  0.29549739016E+01  0.47787275285E+02  0.20000019335E+02 0.  0.
         12    1    1    2    0    0 -0.38444666419E+02 -0.19922315602E+02 -0.29549739016E+01  0.43400724715E+02  0.00000000000E+00 0. -1.
         11    1    3    3    0    0  0.12270948901E+02  0.10632117953E+02  0.95092197347E+00  0.16264143751E+02  0.51100000000E-03 0. -1.
        -11    1    3    3    0    0  0.19328868110E+02  0.10130377470E+02 -0.42276289531E+01  0.22228417328E+02  0.51100000000E-03 0.  1.
         12    1    3    3    0    0  0.68448494087E+01 -0.84017982175E+00  0.62316808812E+01  0.92947142057E+01  0.00000000000E+00 0. -1.
</event>
<event>
 7    1  0.7596051E-010  0.4778727E+02  0.7816164E-02  0.1312668E+00
        -11   -1    0    0    0    0  0.00000000000E+00  0.00000000000E+00  0.45593999997E+02  0.45594000000E+02  0.51100000000E-03 0. -1.
         11   -1    0    0    0    0 -0.00000000000E+00 -0.00000000000E+00 -0.45593999997E+02  0.45594000000E+02  0.51100000000E-03 0.  1.
    9900012    2    1    2    0    0  0.20662464786E+02 -0.12515122181E+02  0.36056310592E+02  0.47787271115E+02  0.20000000323E+02 0.  0.
        -12    1    1    2    0    0 -0.20662464786E+02  0.12515122181E+02 -0.36056310592E+02  0.43400728885E+02  0.00000000000E+00 0.  1.
         11    1    3    3    0    0 -0.70569523751E+00  0.19872243085E+01  0.11030385815E+01  0.23798656672E+01  0.51100000000E-03 0. -1.
        -11    1    3    3    0    0  0.90369383400E+01  0.10905191357E+01  0.10704880777E+02  0.14051688840E+02  0.51100000000E-03 0.  1.
         12    1    3    3    0    0  0.12331221683E+02 -0.15592865625E+02  0.24248391233E+02  0.31355716608E+02  0.00000000000E+00 0. -1.
</event>
<event>
 7    1  0.7596051E-010  0.4778727E+02  0.7816164E-02  0.1312668E+00
        -11   -1    0    0    0    0  0.00000000000E+00  0.00000000000E+00  0.45593999997E+02  0.45594000000E+02  0.51100000000E-03 0. -1.
         11   -1    0    0    0    0 -0.00000000000E+00 -0.00000000000E+00 -0.45593999997E+02  0.45594000000E+02  0.51100000000E-03 0.  1.
    9900012    2    1    2    0    0 -0.62286345705E+01  0.61390118649E+01  0.42510466764E+02  0.47787272589E+02  0.20000007043E+02 0.  0.
        -12    1    1    2    0    0  0.62286345705E+01 -0.61390118649E+01 -0.42510466764E+02  0.43400727411E+02  0.00000000000E+00 0.  1.
         11    1    3    3    0    0 -0.32594470940E+01  0.15157509874E+01  0.58641314620E+01  0.68781926753E+01  0.51100000000E-03 0. -1.
        -11    1    3    3    0    0  0.39008490292E+01 -0.12122546004E+01  0.28399717863E+02  0.28691987720E+02  0.51100000000E-03 0.  1.
        -12    1    3    3    0    0 -0.68700365057E+01  0.58355154780E+01  0.82466174390E+01  0.12217092194E+02  0.00000000000E+00 0.  1.
</event>
<event>
 7    1  0.7596051E-010  0.4778725E+02  0.7816164E-02  0.1312668E+00
        -11   -1    0    0    0    0  0.00000000000E+00  0.00000000000E+00  0.45593999997E+02  0.45594000000E+02  0.51100000000E-03 0.  1.
         11   -1    0    0    0    0 -0.00000000000E+00 -0.00000000000E+00 -0.45593999997E+02  0.45594000000E+02  0.51100000000E-03 0. -1.
    9900012    2    1    2    0    0 -0.16516325958E+02 -0.35829306503E+02  0.18085825686E+02  0.47787247491E+02  0.19999892608E+02 0.  0.
        -12    1    1    2    0    0  0.16516325958E+02  0.35829306503E+02 -0.18085825686E+02  0.43400752509E+02  0.00000000000E+00 0.  1.
         11    1    3    3    0    0 -0.11134833473E+02 -0.31967596994E+02  0.15966293521E+02  0.37427721052E+02  0.51100000000E-03 0. -1.
        -11    1    3    3    0    0 -0.58862692393E+00 -0.46075922005E+01  0.28568454502E+01  0.54532516657E+01  0.51100000000E-03 0.  1.
        -12    1    3    3    0    0 -0.47928655604E+01  0.74588269207E+00 -0.73731328439E+00  0.49062747732E+01  0.00000000000E+00 0.  1.
</event>
<event>
 7    1  0.7596051E-010  0.4778727E+02  0.7816164E-02  0.1312668E+00
        -11   -1    0    0    0    0  0.00000000000E+00  0.00000000000E+00  0.45593999997E+02  0.45594000000E+02  0.51100000000E-03 0. -1.
         11   -1    0    0    0    0 -0.00000000000E+00 -0.00000000000E+00 -0.45593999997E+02  0.45594000000E+02  0.51100000000E-03 0.  1.
    9900012    2    1    2    0    0  0.99676049786E+00  0.58515312254E+01  0.42992896064E+02  0.47787273495E+02  0.20000011173E+02 0.  0.
        -12    1    1    2    0    0 -0.99676049786E+00 -0.58515312254E+01 -0.42992896064E+02  0.43400726505E+02  0.00000000000E+00 0.  1.
         11    1    3    3    0    0 -0.27944438799E+01  0.11171003087E+01  0.28865885577E+02  0.29022339328E+02  0.51100000000E-03 0. -1.
        -11    1    3    3    0    0  0.15520174658E+01  0.34612072942E+01  0.15422155664E+02  0.15881800897E+02  0.51100000000E-03 0.  1.
        -12    1    3    3    0    0  0.22391869120E+01  0.12732236226E+01 -0.12951451767E+01  0.28831332693E+01  0.00000000000E+00 0.  1.
</event>
<event>
 7    1  0.7596051E-010  0.4778727E+02  0.7816164E-02  0.1312668E+00
        -11   -1    0    0    0    0  0.00000000000E+00  0.00000000000E+00  0.45593999997E+02  0.45594000000E+02  0.51100000000E-03 0. -1.
         11   -1    0    0    0    0 -0.00000000000E+00 -0.00000000000E+00 -0.45593999997E+02  0.45594000000E+02  0.51100000000E-03 0.  1.
    9900012    2    1    2    0    0 -0.49001194426E+01 -0.22076364597E+02 -0.37043842193E+02  0.47787270873E+02  0.19999999218E+02 0.  0.
         12    1    1    2    0    0  0.49001194426E+01  0.22076364597E+02  0.37043842193E+02  0.43400729127E+02  0.00000000000E+00 0. -1.
         11    1    3    3    0    0  0.20070204043E-01  0.52618549693E+00 -0.64481011925E+01  0.64695659236E+01  0.51100000000E-03 0. -1.
        -11    1    3    3    0    0 -0.49535231633E+01 -0.62366096658E+01 -0.17527845244E+01  0.81550564500E+01  0.51100000000E-03 0.  1.
        -12    1    3    3    0    0  0.33333516648E-01 -0.16365940428E+02 -0.28842956476E+02  0.33162648499E+02  0.00000000000E+00 0.  1.
</event>
<event>
 7    1  0.7596051E-010  0.4778727E+02  0.7816164E-02  0.1312668E+00
        -11   -1    0    0    0    0  0.00000000000E+00  0.00000000000E+00  0.45593999997E+02  0.45594000000E+02  0.51100000000E-03 0. -1.
         11   -1    0    0    0    0 -0.00000000000E+00 -0.00000000000E+00 -0.45593999997E+02  0.45594000000E+02  0.51100000000E-03 0.  1.
    9900012    2    1    2    0    0  0.25237410393E+01 -0.23593652603E+02  0.36339967423E+02  0.47787274841E+02  0.20000017310E+02 0.  0.
        -12    1    1    2    0    0 -0.25237410393E+01  0.23593652603E+02 -0.36339967423E+02  0.43400725159E+02  0.00000000000E+00 0.  1.
         11    1    3    3    0    0 -0.26347522950E+01 -0.42275909144E+01  0.41162536145E+01  0.64620421444E+01  0.51100000000E-03 0. -1.
        -11    1    3    3    0    0 -0.58347732390E+01 -0.62830016413E+01  0.83722974288E+01  0.11983991525E+02  0.51100000000E-03 0.  1.
         12    1    3    3    0    0  0.10993266573E+02 -0.13083060047E+02  0.23851416380E+02  0.29341241172E+02  0.00000000000E+00 0. -1.
</event>
<event>
 7    1  0.7596051E-010  0.4778727E+02  0.7816164E-02  0.1312668E+00
        -11   -1    0    0    0    0  0.00000000000E+00  0.00000000000E+00  0.45593999997E+02  0.45594000000E+02  0.51100000000E-03 0. -1.
         11   -1    0    0    0    0 -0.00000000000E+00 -0.00000000000E+00 -0.45593999997E+02  0.45594000000E+02  0.51100000000E-03 0.  1.
    9900012    2    1    2    0    0 -0.12364620107E+02  0.17686273992E+02 -0.37655481770E+02  0.47787269299E+02  0.19999992040E+02 0.  0.
         12    1    1    2    0    0  0.12364620107E+02 -0.17686273992E+02  0.37655481770E+02  0.43400730701E+02  0.00000000000E+00 0. -1.
         11    1    3    3    0    0 -0.35846615122E+01  0.16185929969E+02 -0.19204698631E+02  0.25370348380E+02  0.51100000000E-03 0.  1.
        -11    1    3    3    0    0  0.11237957572E+01  0.59368456685E+00  0.19387040539E+00  0.12856765783E+01  0.51100000000E-03 0. -1.
        -12    1    3    3    0    0 -0.99037543517E+01  0.90665945651E+00 -0.18644653544E+02  0.21131244341E+02  0.00000000000E+00 0.  1.
</event>
<event>
 7    1  0.7596051E-010  0.4778726E+02  0.7816164E-02  0.1312668E+00
        -11   -1    0    0    0    0  0.00000000000E+00  0.00000000000E+00  0.45593999997E+02  0.45594000000E+02  0.51100000000E-03 0. -1.
         11   -1    0    0    0    0 -0.00000000000E+00 -0.00000000000E+00 -0.45593999997E+02  0.45594000000E+02  0.51100000000E-03 0.  1.
    9900012    2    1    2    0    0 -0.67211343052E+01  0.15931164895E+02 -0.39807644013E+02  0.47787260570E+02  0.19999952241E+02 0.  0.
         12    1    1    2    0    0  0.67211343052E+01 -0.15931164895E+02  0.39807644013E+02  0.43400739430E+02  0.00000000000E+00 0. -1.
         11    1    3    3    0    0 -0.32486677049E+01  0.15758149526E+01 -0.41568521274E+01  0.55060380031E+01  0.51100000000E-03 0. -1.
        -11    1    3    3    0    0 -0.56795682260E+01  0.16754619883E+02 -0.21918525552E+02  0.28167295669E+02  0.51100000000E-03 0.  1.
         12    1    3    3    0    0  0.22071016256E+01 -0.23992699406E+01 -0.13732266333E+02  0.14113926898E+02  0.00000000000E+00 0. -1.
</event>
<event>
 7    1  0.7596051E-010  0.4778727E+02  0.7816164E-02  0.1312668E+00
        -11   -1    0    0    0    0  0.00000000000E+00  0.00000000000E+00  0.45593999997E+02  0.45594000000E+02  0.51100000000E-03 0. -1.
         11   -1    0    0    0    0 -0.00000000000E+00 -0.00000000000E+00 -0.45593999997E+02  0.45594000000E+02  0.51100000000E-03 0.  1.
    9900012    2    1    2    0    0 -0.23610750598E+02  0.27631743567E+02 -0.23720082467E+02  0.47787272948E+02  0.20000008681E+02 0.  0.
         12    1    1    2    0    0  0.23610750598E+02 -0.27631743567E+02  0.23720082467E+02  0.43400727052E+02  0.00000000000E+00 0. -1.
         11    1    3    3    0    0 -0.64058862975E+01  0.10526721722E+00 -0.26919121878E+01  0.69493058597E+01  0.51100000000E-03 0. -1.
        -11    1    3    3    0    0 -0.94736606731E+01  0.59629733668E+01 -0.27371748813E+01  0.11523863263E+02  0.51100000000E-03 0.  1.
        -12    1    3    3    0    0 -0.77312036273E+01  0.21563502983E+02 -0.18290995398E+02  0.29314103825E+02  0.00000000000E+00 0.  1.
</event>
<event>
 7    1  0.7596051E-010  0.4778728E+02  0.7816164E-02  0.1312668E+00
        -11   -1    0    0    0    0  0.00000000000E+00  0.00000000000E+00  0.45593999997E+02  0.45594000000E+02  0.51100000000E-03 0. -1.
         11   -1    0    0    0    0 -0.00000000000E+00 -0.00000000000E+00 -0.45593999997E+02  0.45594000000E+02  0.51100000000E-03 0.  1.
    9900012    2    1    2    0    0 -0.22089150732E+02  0.29627913701E+02  0.22756950828E+02  0.47787278102E+02  0.20000032176E+02 0.  0.
        -12    1    1    2    0    0  0.22089150732E+02 -0.29627913701E+02 -0.22756950828E+02  0.43400721898E+02  0.00000000000E+00 0.  1.
         11    1    3    3    0    0 -0.40178006998E+01  0.15572443805E+02  0.10187155524E+02  0.19037380767E+02  0.51100000000E-03 0. -1.
        -11    1    3    3    0    0 -0.19367453390E+01  0.83717512649E+01  0.27337617540E+01  0.90172421138E+01  0.51100000000E-03 0.  1.
        -12    1    3    3    0    0 -0.16134604693E+02  0.56837186309E+01  0.98360335498E+01  0.19732655221E+02  0.00000000000E+00 0.  1.
</event>
<event>
 7    1  0.7596051E-010  0.4778728E+02  0.7816164E-02  0.1312668E+00
        -11   -1    0    0    0    0  0.00000000000E+00  0.00000000000E+00  0.45593999997E+02  0.45594000000E+02  0.51100000000E-03 0. -1.
         11   -1    0    0    0    0 -0.00000000000E+00 -0.00000000000E+00 -0.45593999997E+02  0.45594000000E+02  0.51100000000E-03 0.  1.
    9900012    2    1    2    0    0 -0.20629217161E+02 -0.25287439282E+02 -0.28611251766E+02  0.47787275194E+02  0.20000018918E+02 0.  0.
         12    1    1    2    0    0  0.20629217161E+02  0.25287439282E+02  0.28611251766E+02  0.43400724806E+02  0.00000000000E+00 0. -1.
         11    1    3    3    0    0  0.61399282632E+00 -0.41173549848E+01 -0.34646088865E+01  0.54160053785E+01  0.51100000000E-03 0. -1.
        -11    1    3    3    0    0 -0.15788077014E+02 -0.10758358676E+02 -0.62208585935E+01  0.20092405011E+02  0.51100000000E-03 0.  1.
        -12    1    3    3    0    0 -0.54551329735E+01 -0.10411725620E+02 -0.18925784286E+02  0.22278864805E+02  0.00000000000E+00 0.  1.
</event>
<event>
 7    1  0.7596051E-010  0.4778728E+02  0.7816164E-02  0.1312668E+00
        -11   -1    0    0    0    0  0.00000000000E+00  0.00000000000E+00  0.45593999997E+02  0.45594000000E+02  0.51100000000E-03 0. -1.
         11   -1    0    0    0    0 -0.00000000000E+00 -0.00000000000E+00 -0.45593999997E+02  0.45594000000E+02  0.51100000000E-03 0.  1.
    9900012    2    1    2    0    0 -0.18431687039E+02 -0.42795425852E+01 -0.39058681643E+02  0.47787283605E+02  0.20000057270E+02 0.  0.
         12    1    1    2    0    0  0.18431687039E+02  0.42795425852E+01  0.39058681643E+02  0.43400716395E+02  0.00000000000E+00 0. -1.
         11    1    3    3    0    0  0.10248143361E+01  0.22171173202E+01 -0.88213818157E+00  0.25969254259E+01  0.51100000000E-03 0. -1.
        -11    1    3    3    0    0 -0.97995808206E+01 -0.54556334796E+01 -0.88190681461E+01  0.14267854925E+02  0.51100000000E-03 0.  1.
        -12    1    3    3    0    0 -0.96569205550E+01 -0.10410264258E+01 -0.29357475316E+02  0.30922503255E+02  0.00000000000E+00 0.  1.
</event>
<event>
 7    1  0.7596051E-010  0.4778727E+02  0.7816164E-02  0.1312668E+00
        -11   -1    0    0    0    0  0.00000000000E+00  0.00000000000E+00  0.45593999997E+02  0.45594000000E+02  0.51100000000E-03 0. -1.
         11   -1    0    0    0    0 -0.00000000000E+00 -0.00000000000E+00 -0.45593999997E+02  0.45594000000E+02  0.51100000000E-03 0.  1.
    9900012    2    1    2    0    0 -0.26844603917E+02  0.28305167999E+02 -0.19021244226E+02  0.47787273891E+02  0.20000012976E+02 0.  0.
         12    1    1    2    0    0  0.26844603917E+02 -0.28305167999E+02  0.19021244226E+02  0.43400726109E+02  0.00000000000E+00 0. -1.
         11    1    3    3    0    0 -0.50855557938E+01  0.13751963726E+00 -0.51509981413E+01  0.72397908461E+01  0.51100000000E-03 0. -1.
        -11    1    3    3    0    0 -0.20275108408E+02  0.17382294745E+02 -0.12778303739E+02  0.29605898707E+02  0.51100000000E-03 0.  1.
         12    1    3    3    0    0 -0.14839397152E+01  0.10785353617E+02 -0.10919423459E+01  0.10941584337E+02  0.00000000000E+00 0. -1.
</event>
<event>
 7    1  0.7596051E-010  0.4778727E+02  0.7816164E-02  0.1312668E+00
        -11   -1    0    0    0    0  0.00000000000E+00  0.00000000000E+00  0.45593999997E+02  0.45594000000E+02  0.51100000000E-03 0. -1.
         11   -1    0    0    0    0 -0.00000000000E+00 -0.00000000000E+00 -0.45593999997E+02  0.45594000000E+02  0.51100000000E-03 0.  1.
    9900012    2    1    2    0    0 -0.19563899416E+02  0.20578060169E+02  0.32824089127E+02  0.47787267890E+02  0.19999985620E+02 0.  0.
        -12    1    1    2    0    0  0.19563899416E+02 -0.20578060169E+02 -0.32824089127E+02  0.43400732110E+02  0.00000000000E+00 0.  1.
         11    1    3    3    0    0 -0.34086433282E+01  0.30433669325E+01  0.73808571845E+00  0.46287905994E+01  0.51100000000E-03 0. -1.
        -11    1    3    3    0    0 -0.28031827757E-01 -0.16389899915E+00  0.11729128368E+02  0.11730306952E+02  0.51100000000E-03 0.  1.
         12    1    3    3    0    0 -0.16127224260E+02  0.17698592235E+02  0.20356875041E+02  0.31428170339E+02  0.00000000000E+00 0. -1.
</event>
<event>
 7    1  0.7596051E-010  0.4778732E+02  0.7816164E-02  0.1312668E+00
        -11   -1    0    0    0    0  0.00000000000E+00  0.00000000000E+00  0.45593999997E+02  0.45594000000E+02  0.51100000000E-03 0. -1.
         11   -1    0    0    0    0 -0.00000000000E+00 -0.00000000000E+00 -0.45593999997E+02  0.45594000000E+02  0.51100000000E-03 0.  1.
    9900012    2    1    2    0    0  0.20259527320E+02 -0.47122134195E+01  0.38091544249E+02  0.47787318602E+02  0.20000216832E+02 0.  0.
        -12    1    1    2    0    0 -0.20259527320E+02  0.47122134195E+01 -0.38091544249E+02  0.43400681398E+02  0.00000000000E+00 0.  1.
         11    1    3    3    0    0  0.42545166080E+01 -0.18927060971E+01  0.19364472515E+02  0.19916476696E+02  0.51100000000E-03 0. -1.
        -11    1    3    3    0    0  0.45362086216E+01  0.43914196279E+01  0.97619081589E+01  0.11625687342E+02  0.51100000000E-03 0.  1.
        -12    1    3    3    0    0  0.11468802091E+02 -0.72109269503E+01  0.89651635747E+01  0.16245154564E+02  0.00000000000E+00 0.  1.
</event>
<event>
 7    1  0.7596051E-010  0.4778727E+02  0.7816164E-02  0.1312668E+00
        -11   -1    0    0    0    0  0.00000000000E+00  0.00000000000E+00  0.45593999997E+02  0.45594000000E+02  0.51100000000E-03 0. -1.
         11   -1    0    0    0    0 -0.00000000000E+00 -0.00000000000E+00 -0.45593999997E+02  0.45594000000E+02  0.51100000000E-03 0.  1.
    9900012    2    1    2    0    0 -0.56301551627E+01  0.18639035621E+02  0.38788024915E+02  0.47787272208E+02  0.20000005305E+02 0.  0.
        -12    1    1    2    0    0  0.56301551627E+01 -0.18639035621E+02 -0.38788024915E+02  0.43400727792E+02  0.00000000000E+00 0.  1.
         11    1    3    3    0    0 -0.34474237529E+01  0.10178367301E+02  0.19344779379E+02  0.22129265260E+02  0.51100000000E-03 0. -1.
        -11    1    3    3    0    0 -0.61601119338E+01  0.79073640830E+01  0.61234916649E+01  0.11746085995E+02  0.51100000000E-03 0.  1.
        -12    1    3    3    0    0  0.39773805240E+01  0.55330423689E+00  0.13319753871E+02  0.13911920953E+02  0.00000000000E+00 0.  1.
</event>
<event>
 7    1  0.7596051E-010  0.4778727E+02  0.7816164E-02  0.1312668E+00
        -11   -1    0    0    0    0  0.00000000000E+00  0.00000000000E+00  0.45593999997E+02  0.45594000000E+02  0.51100000000E-03 0. -1.
         11   -1    0    0    0    0 -0.00000000000E+00 -0.00000000000E+00 -0.45593999997E+02  0.45594000000E+02  0.51100000000E-03 0.  1.
    9900012    2    1    2    0    0  0.28357287709E+02 -0.31796575085E+02 -0.82743979975E+01  0.47787267108E+02  0.19999982053E+02 0.  0.
         12    1    1    2    0    0 -0.28357287709E+02  0.31796575085E+02  0.82743979975E+01  0.43400732892E+02  0.00000000000E+00 0. -1.
         11    1    3    3    0    0  0.51189952369E+01 -0.45934910980E+01  0.13210244201E+01  0.70035261463E+01  0.51100000000E-03 0. -1.
        -11    1    3    3    0    0  0.11994781046E+02 -0.37600488847E+01 -0.76411635510E+01  0.14710544539E+02  0.51100000000E-03 0.  1.
        -12    1    3    3    0    0  0.11243511426E+02 -0.23443035102E+02 -0.19542588666E+01  0.26073196423E+02  0.00000000000E+00 0.  1.
</event>
<event>
 7    1  0.7596051E-010  0.4778727E+02  0.7816164E-02  0.1312668E+00
        -11   -1    0    0    0    0  0.00000000000E+00  0.00000000000E+00  0.45593999997E+02  0.45594000000E+02  0.51100000000E-03 0. -1.
         11   -1    0    0    0    0 -0.00000000000E+00 -0.00000000000E+00 -0.45593999997E+02  0.45594000000E+02  0.51100000000E-03 0.  1.
    9900012    2    1    2    0    0  0.18895086079E+02  0.15867377947E+02 -0.35704695567E+02  0.47787271362E+02  0.20000001446E+02 0.  0.
         12    1    1    2    0    0 -0.18895086079E+02 -0.15867377947E+02  0.35704695567E+02  0.43400728638E+02  0.00000000000E+00 0. -1.
         11    1    3    3    0    0  0.26187004484E+01  0.78580603462E+01 -0.52434091402E+01  0.98030629966E+01  0.51100000000E-03 0. -1.
        -11    1    3    3    0    0  0.13229009087E+02  0.11390043855E+02 -0.19826992505E+02  0.26416839563E+02  0.51100000000E-03 0.  1.
        -12    1    3    3    0    0  0.30473765437E+01 -0.33807262536E+01 -0.10634293921E+02  0.11567368802E+02  0.00000000000E+00 0.  1.
</event>
<event>
 7    1  0.7596051E-010  0.4778727E+02  0.7816164E-02  0.1312668E+00
        -11   -1    0    0    0    0  0.00000000000E+00  0.00000000000E+00  0.45593999997E+02  0.45594000000E+02  0.51100000000E-03 0.  1.
         11   -1    0    0    0    0 -0.00000000000E+00 -0.00000000000E+00 -0.45593999997E+02  0.45594000000E+02  0.51100000000E-03 0. -1.
    9900012    2    1    2    0    0  0.40397710243E+02 -0.82481695722E+01 -0.13550495416E+02  0.47787271663E+02  0.20000002821E+02 0.  0.
         12    1    1    2    0    0 -0.40397710243E+02  0.82481695722E+01  0.13550495416E+02  0.43400728337E+02  0.00000000000E+00 0. -1.
         11    1    3    3    0    0  0.22306253299E+02 -0.46562072280E+01 -0.45520712910E+01  0.23237266519E+02  0.51100000000E-03 0. -1.
        -11    1    3    3    0    0  0.81126827515E+01 -0.84372984560E+01 -0.53776968522E+01  0.12881119919E+02  0.51100000000E-03 0.  1.
         12    1    3    3    0    0  0.99787741921E+01  0.48453361117E+01 -0.36207272731E+01  0.11668885225E+02  0.00000000000E+00 0. -1.
</event>
<event>
 7    1  0.7596051E-010  0.4778727E+02  0.7816164E-02  0.1312668E+00
        -11   -1    0    0    0    0  0.00000000000E+00  0.00000000000E+00  0.45593999997E+02  0.45594000000E+02  0.51100000000E-03 0.  1.
         11   -1    0    0    0    0 -0.00000000000E+00 -0.00000000000E+00 -0.45593999997E+02  0.45594000000E+02  0.51100000000E-03 0. -1.
    9900012    2    1    2    0    0 -0.29772515762E+01  0.42094010451E+02  0.10141666780E+02  0.47787272496E+02  0.20000006619E+02 0.  0.
         12    1    1    2    0    0  0.29772515762E+01 -0.42094010451E+02 -0.10141666780E+02  0.43400727504E+02  0.00000000000E+00 0. -1.
         11    1    3    3    0    0 -0.57377609015E+01  0.13691931100E+02  0.11940640526E+01  0.14893510890E+02  0.51100000000E-03 0. -1.
        -11    1    3    3    0    0  0.19055355398E+01  0.29662371334E+02  0.72143669251E+01  0.30586507307E+02  0.51100000000E-03 0.  1.
        -12    1    3    3    0    0  0.85497378547E+00 -0.12602919829E+01  0.17332358025E+01  0.23072542996E+01  0.00000000000E+00 0.  1.
</event>
<event>
 7    1  0.7596051E-010  0.4778727E+02  0.7816164E-02  0.1312668E+00
        -11   -1    0    0    0    0  0.00000000000E+00  0.00000000000E+00  0.45593999997E+02  0.45594000000E+02  0.51100000000E-03 0. -1.
         11   -1    0    0    0    0 -0.00000000000E+00 -0.00000000000E+00 -0.45593999997E+02  0.45594000000E+02  0.51100000000E-03 0.  1.
    9900012    2    1    2    0    0 -0.88204958943E+01  0.19162623023E+00 -0.42494533318E+02  0.47787271546E+02  0.20000002288E+02 0.  0.
         12    1    1    2    0    0  0.88204958943E+01 -0.19162623023E+00  0.42494533318E+02  0.43400728454E+02  0.00000000000E+00 0. -1.
         11    1    3    3    0    0  0.39119267744E+01  0.13965232054E+01 -0.73595863511E+01  0.84508555586E+01  0.51100000000E-03 0. -1.
        -11    1    3    3    0    0 -0.14744548940E+01  0.44933962896E+01 -0.64410538196E+01  0.79907322580E+01  0.51100000000E-03 0.  1.
        -12    1    3    3    0    0 -0.11257967775E+02 -0.56982932648E+01 -0.28693893147E+02  0.31345683730E+02  0.00000000000E+00 0.  1.
</event>
<event>
 7    1  0.7596051E-010  0.4778727E+02  0.7816164E-02  0.1312668E+00
        -11   -1    0    0    0    0  0.00000000000E+00  0.00000000000E+00  0.45593999997E+02  0.45594000000E+02  0.51100000000E-03 0.  1.
         11   -1    0    0    0    0 -0.00000000000E+00 -0.00000000000E+00 -0.45593999997E+02  0.45594000000E+02  0.51100000000E-03 0. -1.
    9900012    2    1    2    0    0 -0.31067453609E+02  0.28445848452E+02 -0.10453233819E+02  0.47787273449E+02  0.20000010963E+02 0.  0.
         12    1    1    2    0    0  0.31067453609E+02 -0.28445848452E+02  0.10453233819E+02  0.43400726551E+02  0.00000000000E+00 0. -1.
         11    1    3    3    0    0 -0.10028365768E+01  0.95156797172E+01 -0.58250370538E+01  0.11202004223E+02  0.51100000000E-03 0. -1.
        -11    1    3    3    0    0 -0.55281810820E+01  0.72038661170E+01 -0.16339272341E+01  0.92263856181E+01  0.51100000000E-03 0.  1.
        -12    1    3    3    0    0 -0.24536435950E+02  0.11726302618E+02 -0.29942695311E+01  0.27358883607E+02  0.00000000000E+00 0.  1.
</event>
<event>
 7    1  0.7596051E-010  0.4778728E+02  0.7816164E-02  0.1312668E+00
        -11   -1    0    0    0    0  0.00000000000E+00  0.00000000000E+00  0.45593999997E+02  0.45594000000E+02  0.51100000000E-03 0. -1.
         11   -1    0    0    0    0 -0.00000000000E+00 -0.00000000000E+00 -0.45593999997E+02  0.45594000000E+02  0.51100000000E-03 0.  1.
    9900012    2    1    2    0    0 -0.16634957031E+02 -0.39467857010E+01  0.39891401007E+02  0.47787276653E+02  0.20000025572E+02 0.  0.
        -12    1    1    2    0    0  0.16634957031E+02  0.39467857010E+01 -0.39891401007E+02  0.43400723347E+02  0.00000000000E+00 0.  1.
         11    1    3    3    0    0 -0.77573472563E+01 -0.42590846912E+01  0.25796719819E+02  0.27272458498E+02  0.51100000000E-03 0. -1.
        -11    1    3    3    0    0  0.12338376538E+01 -0.26622078723E+01  0.75701202119E+01  0.81188931755E+01  0.51100000000E-03 0.  1.
        -12    1    3    3    0    0 -0.10111447428E+02  0.29745068625E+01  0.65245609756E+01  0.12395924979E+02  0.00000000000E+00 0.  1.
</event>
<event>
 7    1  0.7596051E-010  0.4778727E+02  0.7816164E-02  0.1312668E+00
        -11   -1    0    0    0    0  0.00000000000E+00  0.00000000000E+00  0.45593999997E+02  0.45594000000E+02  0.51100000000E-03 0. -1.
         11   -1    0    0    0    0 -0.00000000000E+00 -0.00000000000E+00 -0.45593999997E+02  0.45594000000E+02  0.51100000000E-03 0.  1.
    9900012    2    1    2    0    0 -0.43667630152E+01 -0.21389678747E+02 -0.37510480087E+02  0.47787273134E+02  0.20000009528E+02 0.  0.
         12    1    1    2    0    0  0.43667630152E+01  0.21389678747E+02  0.37510480087E+02  0.43400726866E+02  0.00000000000E+00 0. -1.
         11    1    3    3    0    0 -0.17372439056E+01 -0.44091545358E+01 -0.91706429787E+01  0.10322758983E+02  0.51100000000E-03 0. -1.
        -11    1    3    3    0    0 -0.58661675320E+01 -0.14583415898E+02 -0.29365808656E+02  0.33308237105E+02  0.51100000000E-03 0.  1.
         12    1    3    3    0    0  0.32366484224E+01 -0.23971083133E+01  0.10259715474E+01  0.41562770471E+01  0.00000000000E+00 0. -1.
</event>
<event>
 7    1  0.7596051E-010  0.4778728E+02  0.7816164E-02  0.1312668E+00
        -11   -1    0    0    0    0  0.00000000000E+00  0.00000000000E+00  0.45593999997E+02  0.45594000000E+02  0.51100000000E-03 0. -1.
         11   -1    0    0    0    0 -0.00000000000E+00 -0.00000000000E+00 -0.45593999997E+02  0.45594000000E+02  0.51100000000E-03 0.  1.
    9900012    2    1    2    0    0 -0.28168576685E+01 -0.23088296297E+02 -0.36641753791E+02  0.47787283026E+02  0.20000054627E+02 0.  0.
         12    1    1    2    0    0  0.28168576685E+01  0.23088296297E+02  0.36641753791E+02  0.43400716974E+02  0.00000000000E+00 0. -1.
         11    1    3    3    0    0 -0.26100574356E+01 -0.13584211874E+02 -0.10931355379E+02  0.17630591105E+02  0.51100000000E-03 0. -1.
        -11    1    3    3    0    0 -0.51960892649E+01 -0.88507165198E+01 -0.13564371460E+02  0.17009606108E+02  0.51100000000E-03 0.  1.
         12    1    3    3    0    0  0.49892890319E+01 -0.65336790361E+00 -0.12146026952E+02  0.13147085813E+02  0.00000000000E+00 0. -1.
</event>
<event>
 7    1  0.7596051E-010  0.4778727E+02  0.7816164E-02  0.1312668E+00
        -11   -1    0    0    0    0  0.00000000000E+00  0.00000000000E+00  0.45593999997E+02  0.45594000000E+02  0.51100000000E-03 0. -1.
         11   -1    0    0    0    0 -0.00000000000E+00 -0.00000000000E+00 -0.45593999997E+02  0.45594000000E+02  0.51100000000E-03 0.  1.
    9900012    2    1    2    0    0 -0.12480419372E+02  0.10995676251E+02 -0.40086877299E+02  0.47787268491E+02  0.19999988357E+02 0.  0.
         12    1    1    2    0    0  0.12480419372E+02 -0.10995676251E+02  0.40086877299E+02  0.43400731509E+02  0.00000000000E+00 0. -1.
         11    1    3    3    0    0  0.50569315003E+00 -0.76346848317E-01  0.20038829039E+00  0.54928146818E+00  0.51100000000E-03 0. -1.
        -11    1    3    3    0    0 -0.98726038987E+01 -0.22138274441E+01 -0.23629670149E+02  0.25704681506E+02  0.51100000000E-03 0.  1.
        -12    1    3    3    0    0 -0.31135086234E+01  0.13285850544E+02 -0.16657595441E+02  0.21533305517E+02  0.00000000000E+00 0.  1.
</event>
<event>
 7    1  0.7596051E-010  0.4778727E+02  0.7816164E-02  0.1312668E+00
        -11   -1    0    0    0    0  0.00000000000E+00  0.00000000000E+00  0.45593999997E+02  0.45594000000E+02  0.51100000000E-03 0. -1.
         11   -1    0    0    0    0 -0.00000000000E+00 -0.00000000000E+00 -0.45593999997E+02  0.45594000000E+02  0.51100000000E-03 0.  1.
    9900012    2    1    2    0    0  0.15469643585E+02  0.18221123036E+02 -0.36225737462E+02  0.47787271296E+02  0.20000001149E+02 0.  0.
         12    1    1    2    0    0 -0.15469643585E+02 -0.18221123036E+02  0.36225737462E+02  0.43400728704E+02  0.00000000000E+00 0. -1.
         11    1    3    3    0    0  0.20436463351E+01  0.13672305247E+01 -0.12779820069E+02  0.13014208040E+02  0.51100000000E-03 0. -1.
        -11    1    3    3    0    0  0.50653308893E+01  0.14703696043E+02 -0.20327830798E+02  0.25594471270E+02  0.51100000000E-03 0.  1.
         12    1    3    3    0    0  0.83606663606E+01  0.21501964679E+01 -0.31180865945E+01  0.91785919865E+01  0.00000000000E+00 0. -1.
</event>
<event>
 7    1  0.7596051E-010  0.4778727E+02  0.7816164E-02  0.1312668E+00
        -11   -1    0    0    0    0  0.00000000000E+00  0.00000000000E+00  0.45593999997E+02  0.45594000000E+02  0.51100000000E-03 0.  1.
         11   -1    0    0    0    0 -0.00000000000E+00 -0.00000000000E+00 -0.45593999997E+02  0.45594000000E+02  0.51100000000E-03 0. -1.
    9900012    2    1    2    0    0  0.14013252414E+02 -0.39830358439E+02 -0.10039674212E+02  0.47787265503E+02  0.19999974732E+02 0.  0.
         12    1    1    2    0    0 -0.14013252414E+02  0.39830358439E+02  0.10039674212E+02  0.43400734497E+02  0.00000000000E+00 0. -1.
         11    1    3    3    0    0  0.12818873256E+02 -0.22365649862E+02 -0.14087628422E+02  0.29376982148E+02  0.51100000000E-03 0. -1.
        -11    1    3    3    0    0  0.13653092402E-05 -0.76700366311E+00 -0.66930878056E+00  0.10179730468E+01  0.51100000000E-03 0.  1.
        -12    1    3    3    0    0  0.11943777932E+01 -0.16697704915E+02  0.47172629907E+01  0.17392310308E+02  0.00000000000E+00 0.  1.
</event>
<event>
 7    1  0.7596051E-010  0.4778721E+02  0.7816164E-02  0.1312668E+00
        -11   -1    0    0    0    0  0.00000000000E+00  0.00000000000E+00  0.45593999997E+02  0.45594000000E+02  0.51100000000E-03 0. -1.
         11   -1    0    0    0    0 -0.00000000000E+00 -0.00000000000E+00 -0.45593999997E+02  0.45594000000E+02  0.51100000000E-03 0.  1.
    9900012    2    1    2    0    0 -0.15455160560E+02  0.12763854105E+01 -0.40535626899E+02  0.47787214342E+02  0.19999741469E+02 0.  0.
         12    1    1    2    0    0  0.15455160560E+02 -0.12763854105E+01  0.40535626899E+02  0.43400785658E+02  0.00000000000E+00 0. -1.
         11    1    3    3    0    0 -0.20773332501E+01  0.64984161028E+00 -0.11130136578E+02  0.11340967686E+02  0.51100000000E-03 0.  1.
        -11    1    3    3    0    0 -0.13666313333E+01 -0.68549468277E+01 -0.13166233530E+02  0.14906632176E+02  0.51100000000E-03 0. -1.
         12    1    3    3    0    0 -0.12011195977E+02  0.74814906279E+01 -0.16239256791E+02  0.21539614480E+02  0.00000000000E+00 0. -1.
</event>
<event>
 7    1  0.9894948E-010  0.4778728E+02  0.7816164E-02  0.1312668E+00
        -11   -1    0    0    0    0  0.00000000000E+00  0.00000000000E+00  0.45593999997E+02  0.45594000000E+02  0.51100000000E-03 0. -1.
         11   -1    0    0    0    0 -0.00000000000E+00 -0.00000000000E+00 -0.45593999997E+02  0.45594000000E+02  0.51100000000E-03 0.  1.
    9900012    2    1    2    0    0 -0.32796518743E+02 -0.11360752258E+01  0.28402814375E+02  0.47787283727E+02  0.20000057826E+02 0.  0.
        -12    1    1    2    0    0  0.32796518743E+02  0.11360752258E+01 -0.28402814375E+02  0.43400716273E+02  0.00000000000E+00 0.  1.
         11    1    3    3    0    0 -0.95721789675E+01  0.17930567050E+01  0.41360660636E+01  0.10580581519E+02  0.51100000000E-03 0. -1.
        -11    1    3    3    0    0 -0.10526376162E+01  0.18967865433E+01 -0.16756031957E+01  0.27410748754E+01  0.51100000000E-03 0.  1.
         12    1    3    3    0    0 -0.22171702159E+02 -0.48259184741E+01  0.25942351507E+02  0.34465627333E+02  0.00000000000E+00 0. -1.
</event>
<event>
 7    1  0.7596051E-010  0.4778727E+02  0.7816164E-02  0.1312668E+00
        -11   -1    0    0    0    0  0.00000000000E+00  0.00000000000E+00  0.45593999997E+02  0.45594000000E+02  0.51100000000E-03 0. -1.
         11   -1    0    0    0    0 -0.00000000000E+00 -0.00000000000E+00 -0.45593999997E+02  0.45594000000E+02  0.51100000000E-03 0.  1.
    9900012    2    1    2    0    0 -0.21010437494E+02 -0.68535291881E+01  0.37352563093E+02  0.47787270563E+02  0.19999997804E+02 0.  0.
        -12    1    1    2    0    0  0.21010437494E+02  0.68535291881E+01 -0.37352563093E+02  0.43400729437E+02  0.00000000000E+00 0.  1.
         11    1    3    3    0    0 -0.13454785946E+02 -0.57480995982E+01  0.16963969094E+02  0.22401967804E+02  0.51100000000E-03 0. -1.
        -11    1    3    3    0    0 -0.38500705491E+01 -0.33524147486E+01  0.61451467758E+00  0.51419214725E+01  0.51100000000E-03 0.  1.
         12    1    3    3    0    0 -0.37055809997E+01  0.22469851587E+01  0.19774079322E+02  0.20243381286E+02  0.00000000000E+00 0. -1.
</event>
<event>
 7    1  0.7596051E-010  0.4778727E+02  0.7816164E-02  0.1312668E+00
        -11   -1    0    0    0    0  0.00000000000E+00  0.00000000000E+00  0.45593999997E+02  0.45594000000E+02  0.51100000000E-03 0. -1.
         11   -1    0    0    0    0 -0.00000000000E+00 -0.00000000000E+00 -0.45593999997E+02  0.45594000000E+02  0.51100000000E-03 0.  1.
    9900012    2    1    2    0    0  0.21298366403E+02 -0.81345928821E+01 -0.36930089494E+02  0.47787268176E+02  0.19999986924E+02 0.  0.
         12    1    1    2    0    0 -0.21298366403E+02  0.81345928821E+01  0.36930089494E+02  0.43400731824E+02  0.00000000000E+00 0. -1.
         11    1    3    3    0    0 -0.44340566367E+00  0.32046426189E+01 -0.22386308303E+01  0.39341849414E+01  0.51100000000E-03 0. -1.
        -11    1    3    3    0    0  0.20901582438E+01 -0.39923701807E+01 -0.12623855162E+02  0.13404085219E+02  0.51100000000E-03 0.  1.
        -12    1    3    3    0    0  0.19651613823E+02 -0.73468653203E+01 -0.22067603501E+02  0.30448998016E+02  0.00000000000E+00 0.  1.
</event>
<event>
 7    1  0.7596051E-010  0.4778726E+02  0.7816164E-02  0.1312668E+00
        -11   -1    0    0    0    0  0.00000000000E+00  0.00000000000E+00  0.45593999997E+02  0.45594000000E+02  0.51100000000E-03 0. -1.
         11   -1    0    0    0    0 -0.00000000000E+00 -0.00000000000E+00 -0.45593999997E+02  0.45594000000E+02  0.51100000000E-03 0.  1.
    9900012    2    1    2    0    0 -0.11664656866E+02  0.32489612312E+02 -0.26305612793E+02  0.47787258158E+02  0.19999941245E+02 0.  0.
         12    1    1    2    0    0  0.11664656866E+02 -0.32489612312E+02  0.26305612793E+02  0.43400741842E+02  0.00000000000E+00 0. -1.
         11    1    3    3    0    0  0.73336040087E+00  0.15614292402E+02 -0.34474244828E+01  0.16007144671E+02  0.51100000000E-03 0. -1.
        -11    1    3    3    0    0 -0.56006618053E+01  0.12662661106E+02 -0.12189859945E+02  0.18447305621E+02  0.51100000000E-03 0.  1.
         12    1    3    3    0    0 -0.67973554612E+01  0.42126588047E+01 -0.10668328366E+02  0.13332807866E+02  0.00000000000E+00 0. -1.
</event>
<event>
 7    1  0.7596051E-010  0.4778726E+02  0.7816164E-02  0.1312668E+00
        -11   -1    0    0    0    0  0.00000000000E+00  0.00000000000E+00  0.45593999997E+02  0.45594000000E+02  0.51100000000E-03 0. -1.
         11   -1    0    0    0    0 -0.00000000000E+00 -0.00000000000E+00 -0.45593999997E+02  0.45594000000E+02  0.51100000000E-03 0.  1.
    9900012    2    1    2    0    0 -0.36838771232E+02 -0.13329170250E+00  0.22945831338E+02  0.47787262583E+02  0.19999961419E+02 0.  0.
        -12    1    1    2    0    0  0.36838771232E+02  0.13329170250E+00 -0.22945831338E+02  0.43400737417E+02  0.00000000000E+00 0.  1.
         11    1    3    3    0    0 -0.59025806200E+01 -0.12490619363E+01 -0.66123109748E+00  0.60694184665E+01  0.51100000000E-03 0.  1.
        -11    1    3    3    0    0 -0.30193048623E+02 -0.27930155429E+01  0.19821158872E+02  0.36225674048E+02  0.51100000000E-03 0. -1.
         12    1    3    3    0    0 -0.74314198971E+00  0.39087857767E+01  0.37859035628E+01  0.54921700677E+01  0.00000000000E+00 0. -1.
</event>
<event>
 7    1  0.7596051E-010  0.4778726E+02  0.7816164E-02  0.1312668E+00
        -11   -1    0    0    0    0  0.00000000000E+00  0.00000000000E+00  0.45593999997E+02  0.45594000000E+02  0.51100000000E-03 0. -1.
         11   -1    0    0    0    0 -0.00000000000E+00 -0.00000000000E+00 -0.45593999997E+02  0.45594000000E+02  0.51100000000E-03 0.  1.
    9900012    2    1    2    0    0 -0.26551547040E+02  0.30274078457E+02 -0.16190123329E+02  0.47787256112E+02  0.19999931916E+02 0.  0.
         12    1    1    2    0    0  0.26551547040E+02 -0.30274078457E+02  0.16190123329E+02  0.43400743888E+02  0.00000000000E+00 0. -1.
         11    1    3    3    0    0 -0.68604122459E+01 -0.15614807865E+01 -0.24376447344E+01  0.74461795938E+01  0.51100000000E-03 0. -1.
        -11    1    3    3    0    0 -0.38556574114E+01  0.87284060241E+01 -0.60145345702E+01  0.11279441128E+02  0.51100000000E-03 0.  1.
        -12    1    3    3    0    0 -0.15835477383E+02  0.23107153219E+02 -0.77379440242E+01  0.29061635390E+02  0.00000000000E+00 0.  1.
</event>
<event>
 7    1  0.7596051E-010  0.4778727E+02  0.7816164E-02  0.1312668E+00
        -11   -1    0    0    0    0  0.00000000000E+00  0.00000000000E+00  0.45593999997E+02  0.45594000000E+02  0.51100000000E-03 0.  1.
         11   -1    0    0    0    0 -0.00000000000E+00 -0.00000000000E+00 -0.45593999997E+02  0.45594000000E+02  0.51100000000E-03 0. -1.
    9900012    2    1    2    0    0  0.11737504715E+02  0.29519697607E+02 -0.29570959730E+02  0.47787271629E+02  0.20000002666E+02 0.  0.
         12    1    1    2    0    0 -0.11737504715E+02 -0.29519697607E+02  0.29570959730E+02  0.43400728371E+02  0.00000000000E+00 0. -1.
         11    1    3    3    0    0  0.16628984050E+01  0.11884458026E+01 -0.92938402756E+01  0.95159393577E+01  0.51100000000E-03 0. -1.
        -11    1    3    3    0    0  0.28215179682E+01  0.30626491962E+01 -0.84993184758E+01  0.94646288125E+01  0.51100000000E-03 0.  1.
        -12    1    3    3    0    0  0.72530883419E+01  0.25268602608E+02 -0.11777800979E+02  0.28806703459E+02  0.00000000000E+00 0.  1.
</event>
<event>
 7    1  0.7596051E-010  0.4778727E+02  0.7816164E-02  0.1312668E+00
        -11   -1    0    0    0    0  0.00000000000E+00  0.00000000000E+00  0.45593999997E+02  0.45594000000E+02  0.51100000000E-03 0. -1.
         11   -1    0    0    0    0 -0.00000000000E+00 -0.00000000000E+00 -0.45593999997E+02  0.45594000000E+02  0.51100000000E-03 0.  1.
    9900012    2    1    2    0    0  0.25046098128E+02  0.22669575948E+02  0.27247144008E+02  0.47787267729E+02  0.19999984882E+02 0.  0.
        -12    1    1    2    0    0 -0.25046098128E+02 -0.22669575948E+02 -0.27247144008E+02  0.43400732271E+02  0.00000000000E+00 0.  1.
         11    1    3    3    0    0  0.20383885711E+02  0.83981508727E+01  0.18807460222E+02  0.28978479860E+02  0.51100000000E-03 0. -1.
        -11    1    3    3    0    0  0.58302241079E+01  0.59557744563E+01  0.51048976624E+01  0.97735737030E+01  0.51100000000E-03 0.  1.
        -12    1    3    3    0    0 -0.11680116907E+01  0.83156506187E+01  0.33347861238E+01  0.90352141653E+01  0.00000000000E+00 0.  1.
</event>
<event>
 7    1  0.7596051E-010  0.4778727E+02  0.7816164E-02  0.1312668E+00
        -11   -1    0    0    0    0  0.00000000000E+00  0.00000000000E+00  0.45593999997E+02  0.45594000000E+02  0.51100000000E-03 0.  1.
         11   -1    0    0    0    0 -0.00000000000E+00 -0.00000000000E+00 -0.45593999997E+02  0.45594000000E+02  0.51100000000E-03 0. -1.
    9900012    2    1    2    0    0 -0.32156728663E+02  0.27254100638E+02 -0.10333543581E+02  0.47787270481E+02  0.19999997430E+02 0.  0.
         12    1    1    2    0    0  0.32156728663E+02 -0.27254100638E+02  0.10333543581E+02  0.43400729519E+02  0.00000000000E+00 0. -1.
         11    1    3    3    0    0 -0.41017693666E+00  0.30382088260E+01  0.20191053021E+01  0.36709323709E+01  0.51100000000E-03 0. -1.
        -11    1    3    3    0    0 -0.12003557617E+02  0.18232835850E+01 -0.62119114579E+01  0.13638093808E+02  0.51100000000E-03 0.  1.
        -12    1    3    3    0    0 -0.19742994109E+02  0.22392608227E+02 -0.61407374256E+01  0.30478244302E+02  0.00000000000E+00 0.  1.
</event>
<event>
 7    1  0.7596051E-010  0.4778727E+02  0.7816164E-02  0.1312668E+00
        -11   -1    0    0    0    0  0.00000000000E+00  0.00000000000E+00  0.45593999997E+02  0.45594000000E+02  0.51100000000E-03 0. -1.
         11   -1    0    0    0    0 -0.00000000000E+00 -0.00000000000E+00 -0.45593999997E+02  0.45594000000E+02  0.51100000000E-03 0.  1.
    9900012    2    1    2    0    0 -0.26837290693E+02  0.14282599463E+02 -0.30974033021E+02  0.47787267969E+02  0.19999985979E+02 0.  0.
         12    1    1    2    0    0  0.26837290693E+02 -0.14282599463E+02  0.30974033021E+02  0.43400732031E+02  0.00000000000E+00 0. -1.
         11    1    3    3    0    0 -0.10167406485E+02  0.10203196381E+02 -0.70593609003E+01  0.16041070650E+02  0.51100000000E-03 0. -1.
        -11    1    3    3    0    0 -0.83900137452E+01 -0.84362007575E+00 -0.34179107848E+01  0.90986889095E+01  0.51100000000E-03 0.  1.
        -12    1    3    3    0    0 -0.82798704629E+01  0.49230231585E+01 -0.20496761336E+02  0.22647508410E+02  0.00000000000E+00 0.  1.
</event>
<event>
 7    1  0.7596051E-010  0.4778729E+02  0.7816164E-02  0.1312668E+00
        -11   -1    0    0    0    0  0.00000000000E+00  0.00000000000E+00  0.45593999997E+02  0.45594000000E+02  0.51100000000E-03 0. -1.
         11   -1    0    0    0    0 -0.00000000000E+00 -0.00000000000E+00 -0.45593999997E+02  0.45594000000E+02  0.51100000000E-03 0.  1.
    9900012    2    1    2    0    0  0.72044136423E+01 -0.16810579679E+02 -0.39358894646E+02  0.47787288568E+02  0.20000079895E+02 0.  0.
         12    1    1    2    0    0 -0.72044136423E+01  0.16810579679E+02  0.39358894646E+02  0.43400711432E+02  0.00000000000E+00 0. -1.
         11    1    3    3    0    0 -0.24846092469E+01 -0.30159026403E+01 -0.10675782684E+02  0.11368433842E+02  0.51100000000E-03 0. -1.
        -11    1    3    3    0    0  0.13535501102E+02 -0.10859366630E+02 -0.20002760618E+02  0.26481051080E+02  0.51100000000E-03 0.  1.
        -12    1    3    3    0    0 -0.38464782132E+01 -0.29353104092E+01 -0.86803513438E+01  0.99378036454E+01  0.00000000000E+00 0.  1.
</event>
<event>
 7    1  0.7596051E-010  0.4778724E+02  0.7816164E-02  0.1312668E+00
        -11   -1    0    0    0    0  0.00000000000E+00  0.00000000000E+00  0.45593999997E+02  0.45594000000E+02  0.51100000000E-03 0. -1.
         11   -1    0    0    0    0 -0.00000000000E+00 -0.00000000000E+00 -0.45593999997E+02  0.45594000000E+02  0.51100000000E-03 0.  1.
    9900012    2    1    2    0    0 -0.52103260655E+01 -0.10207987540E+01  0.43074773413E+02  0.47787243873E+02  0.19999876116E+02 0.  0.
        -12    1    1    2    0    0  0.52103260655E+01  0.10207987540E+01 -0.43074773413E+02  0.43400756127E+02  0.00000000000E+00 0.  1.
         11    1    3    3    0    0 -0.32435732253E+01  0.26756816440E+01  0.37512128995E+02  0.37747051031E+02  0.51100000000E-03 0. -1.
        -11    1    3    3    0    0 -0.19045857069E+01  0.19085601425E+01  0.23670539531E+01  0.35878953734E+01  0.51100000000E-03 0.  1.
        -12    1    3    3    0    0 -0.62167133255E-01 -0.56050405404E+01  0.31955904643E+01  0.64522974690E+01  0.00000000000E+00 0.  1.
</event>
<event>
 7    1  0.7596051E-010  0.4778727E+02  0.7816164E-02  0.1312668E+00
        -11   -1    0    0    0    0  0.00000000000E+00  0.00000000000E+00  0.45593999997E+02  0.45594000000E+02  0.51100000000E-03 0.  1.
         11   -1    0    0    0    0 -0.00000000000E+00 -0.00000000000E+00 -0.45593999997E+02  0.45594000000E+02  0.51100000000E-03 0. -1.
    9900012    2    1    2    0    0  0.33191792610E+02 -0.22199340477E+02  0.17003455143E+02  0.47787270731E+02  0.19999998572E+02 0.  0.
        -12    1    1    2    0    0 -0.33191792610E+02  0.22199340477E+02 -0.17003455143E+02  0.43400729269E+02  0.00000000000E+00 0.  1.
         11    1    3    3    0    0  0.30981611422E+01 -0.83429392475E+01  0.78306234865E+01  0.11854193444E+02  0.51100000000E-03 0. -1.
        -11    1    3    3    0    0  0.44602713767E+01 -0.48038702845E+01  0.53892265188E+01  0.84861624541E+01  0.51100000000E-03 0.  1.
         12    1    3    3    0    0  0.25633360091E+02 -0.90525309449E+01  0.37836051378E+01  0.27446914834E+02  0.00000000000E+00 0. -1.
</event>
<event>
 7    1  0.7596051E-010  0.4778729E+02  0.7816164E-02  0.1312668E+00
        -11   -1    0    0    0    0  0.00000000000E+00  0.00000000000E+00  0.45593999997E+02  0.45594000000E+02  0.51100000000E-03 0. -1.
         11   -1    0    0    0    0 -0.00000000000E+00 -0.00000000000E+00 -0.45593999997E+02  0.45594000000E+02  0.51100000000E-03 0.  1.
    9900012    2    1    2    0    0 -0.18603693598E+02 -0.21505894452E+02 -0.32787506692E+02  0.47787291403E+02  0.20000092823E+02 0.  0.
         12    1    1    2    0    0  0.18603693598E+02  0.21505894452E+02  0.32787506692E+02  0.43400708597E+02  0.00000000000E+00 0. -1.
         11    1    3    3    0    0 -0.36202479115E+01 -0.41101827082E+01 -0.18786251478E+00  0.54804278502E+01  0.51100000000E-03 0. -1.
        -11    1    3    3    0    0 -0.25925089270E+01 -0.11666543435E+02 -0.86971154843E+01  0.14780702157E+02  0.51100000000E-03 0.  1.
         12    1    3    3    0    0 -0.12390936760E+02 -0.57291683086E+01 -0.23902528692E+02  0.27526161396E+02  0.00000000000E+00 0. -1.
</event>
<event>
 7    1  0.8644133E-010  0.4778727E+02  0.7816164E-02  0.1312668E+00
        -11   -1    0    0    0    0  0.00000000000E+00  0.00000000000E+00  0.45593999997E+02  0.45594000000E+02  0.51100000000E-03 0. -1.
         11   -1    0    0    0    0 -0.00000000000E+00 -0.00000000000E+00 -0.45593999997E+02  0.45594000000E+02  0.51100000000E-03 0.  1.
    9900012    2    1    2    0    0 -0.66489420956E+01 -0.19364387445E+02  0.38267941665E+02  0.47787270843E+02  0.19999999080E+02 0.  0.
        -12    1    1    2    0    0  0.66489420956E+01  0.19364387445E+02 -0.38267941665E+02  0.43400729157E+02  0.00000000000E+00 0.  1.
         11    1    3    3    0    0 -0.49143556208E+01 -0.73848849034E+01  0.23273998601E+02  0.24907156147E+02  0.51100000000E-03 0. -1.
        -11    1    3    3    0    0 -0.33514139439E+01  0.15000509394E+01  0.38005116479E+01  0.52845072893E+01  0.51100000000E-03 0.  1.
         12    1    3    3    0    0  0.16168274692E+01 -0.13479553481E+02  0.11193431416E+02  0.17595607406E+02  0.00000000000E+00 0. -1.
</event>
<event>
 7    1  0.7596051E-010  0.4778727E+02  0.7816164E-02  0.1312668E+00
        -11   -1    0    0    0    0  0.00000000000E+00  0.00000000000E+00  0.45593999997E+02  0.45594000000E+02  0.51100000000E-03 0. -1.
         11   -1    0    0    0    0 -0.00000000000E+00 -0.00000000000E+00 -0.45593999997E+02  0.45594000000E+02  0.51100000000E-03 0.  1.
    9900012    2    1    2    0    0  0.22607656844E+02  0.21554941455E+02  0.30131405131E+02  0.47787271615E+02  0.20000002603E+02 0.  0.
        -12    1    1    2    0    0 -0.22607656844E+02 -0.21554941455E+02 -0.30131405131E+02  0.43400728385E+02  0.00000000000E+00 0.  1.
         11    1    3    3    0    0  0.85043262470E+01  0.11006601887E+02  0.20538308190E+02  0.24805059032E+02  0.51100000000E-03 0. -1.
        -11    1    3    3    0    0  0.37658828669E+01  0.67514281475E+01  0.91251288742E+01  0.11959583313E+02  0.51100000000E-03 0.  1.
        -12    1    3    3    0    0  0.10337447730E+02  0.37969114209E+01  0.46796806745E+00  0.11022629270E+02  0.00000000000E+00 0.  1.
</event>
<event>
 7    1  0.7596051E-010  0.4778727E+02  0.7816164E-02  0.1312668E+00
        -11   -1    0    0    0    0  0.00000000000E+00  0.00000000000E+00  0.45593999997E+02  0.45594000000E+02  0.51100000000E-03 0. -1.
         11   -1    0    0    0    0 -0.00000000000E+00 -0.00000000000E+00 -0.45593999997E+02  0.45594000000E+02  0.51100000000E-03 0.  1.
    9900012    2    1    2    0    0 -0.25329617918E+02  0.34153771782E+02 -0.86921685977E+01  0.47787268834E+02  0.19999989920E+02 0.  0.
         12    1    1    2    0    0  0.25329617918E+02 -0.34153771782E+02  0.86921685977E+01  0.43400731166E+02  0.00000000000E+00 0. -1.
         11    1    3    3    0    0 -0.43443067959E+01  0.16743553303E+02 -0.37300057918E+01  0.17695550916E+02  0.51100000000E-03 0. -1.
        -11    1    3    3    0    0 -0.62475876826E+01  0.60654076918E+01 -0.72792556184E+01  0.11349409013E+02  0.51100000000E-03 0.  1.
         12    1    3    3    0    0 -0.14737723440E+02  0.11344810787E+02  0.23170928125E+01  0.18742308905E+02  0.00000000000E+00 0. -1.
</event>
<event>
 7    1  0.7596051E-010  0.4778728E+02  0.7816164E-02  0.1312668E+00
        -11   -1    0    0    0    0  0.00000000000E+00  0.00000000000E+00  0.45593999997E+02  0.45594000000E+02  0.51100000000E-03 0. -1.
         11   -1    0    0    0    0 -0.00000000000E+00 -0.00000000000E+00 -0.45593999997E+02  0.45594000000E+02  0.51100000000E-03 0.  1.
    9900012    2    1    2    0    0  0.30310960738E+01  0.18358290379E+02 -0.39209801346E+02  0.47787275459E+02  0.20000020128E+02 0.  0.
         12    1    1    2    0    0 -0.30310960738E+01 -0.18358290379E+02  0.39209801346E+02  0.43400724541E+02  0.00000000000E+00 0. -1.
         11    1    3    3    0    0  0.28688914434E+01  0.51357875770E+01 -0.13275775270E+02  0.14520780332E+02  0.51100000000E-03 0. -1.
        -11    1    3    3    0    0 -0.43917791025E+01  0.10791162525E+02 -0.25560643219E+02  0.28090628230E+02  0.51100000000E-03 0.  1.
         12    1    3    3    0    0  0.45539837329E+01  0.24313402773E+01 -0.37338285718E+00  0.51758668976E+01  0.00000000000E+00 0. -1.
</event>
<event>
 7    1  0.7596051E-010  0.4778726E+02  0.7816164E-02  0.1312668E+00
        -11   -1    0    0    0    0  0.00000000000E+00  0.00000000000E+00  0.45593999997E+02  0.45594000000E+02  0.51100000000E-03 0. -1.
         11   -1    0    0    0    0 -0.00000000000E+00 -0.00000000000E+00 -0.45593999997E+02  0.45594000000E+02  0.51100000000E-03 0.  1.
    9900012    2    1    2    0    0  0.14316513362E+02 -0.76761266830E+01 -0.40245979398E+02  0.47787258838E+02  0.19999944345E+02 0.  0.
         12    1    1    2    0    0 -0.14316513362E+02  0.76761266830E+01  0.40245979398E+02  0.43400741162E+02  0.00000000000E+00 0. -1.
         11    1    3    3    0    0  0.13918573548E+01 -0.48166651101E+01 -0.15921331767E+02  0.16692103977E+02  0.51100000000E-03 0. -1.
        -11    1    3    3    0    0  0.10137275372E+02 -0.99624324410E+00 -0.25565585799E+02  0.27520102290E+02  0.51100000000E-03 0.  1.
        -12    1    3    3    0    0  0.27873806356E+01 -0.18632183288E+01  0.12409381675E+01  0.35750525708E+01  0.00000000000E+00 0.  1.
</event>
<event>
 7    1  0.7596051E-010  0.4778727E+02  0.7816164E-02  0.1312668E+00
        -11   -1    0    0    0    0  0.00000000000E+00  0.00000000000E+00  0.45593999997E+02  0.45594000000E+02  0.51100000000E-03 0. -1.
         11   -1    0    0    0    0 -0.00000000000E+00 -0.00000000000E+00 -0.45593999997E+02  0.45594000000E+02  0.51100000000E-03 0.  1.
    9900012    2    1    2    0    0 -0.47425067205E+01  0.67256785555E+01 -0.42613348984E+02  0.47787266899E+02  0.19999981101E+02 0.  0.
         12    1    1    2    0    0  0.47425067205E+01 -0.67256785555E+01  0.42613348984E+02  0.43400733101E+02  0.00000000000E+00 0. -1.
         11    1    3    3    0    0 -0.30682532360E+01  0.15618177603E+01 -0.10022014648E+02  0.10596897211E+02  0.51100000000E-03 0.  1.
        -11    1    3    3    0    0  0.21110713032E+01  0.29907736125E+01  0.60316288993E+00  0.37101421241E+01  0.51100000000E-03 0. -1.
         12    1    3    3    0    0 -0.37853247877E+01  0.21730871827E+01 -0.33194497226E+02  0.33480227564E+02  0.00000000000E+00 0. -1.
</event>
<event>
 7    1  0.7596051E-010  0.4778728E+02  0.7816164E-02  0.1312668E+00
        -11   -1    0    0    0    0  0.00000000000E+00  0.00000000000E+00  0.45593999997E+02  0.45594000000E+02  0.51100000000E-03 0. -1.
         11   -1    0    0    0    0 -0.00000000000E+00 -0.00000000000E+00 -0.45593999997E+02  0.45594000000E+02  0.51100000000E-03 0.  1.
    9900012    2    1    2    0    0 -0.50911514503E+01  0.31515359901E+02  0.29402120884E+02  0.47787280591E+02  0.20000043526E+02 0.  0.
        -12    1    1    2    0    0  0.50911514503E+01 -0.31515359901E+02 -0.29402120884E+02  0.43400719409E+02  0.00000000000E+00 0.  1.
         11    1    3    3    0    0 -0.13239865291E+01  0.54617368821E+01  0.18824963646E+01  0.59268290783E+01  0.51100000000E-03 0. -1.
        -11    1    3    3    0    0  0.33210103098E+01  0.20266242188E+02  0.11837923368E+02  0.23704137019E+02  0.51100000000E-03 0.  1.
        -12    1    3    3    0    0 -0.70881752310E+01  0.57873808304E+01  0.15681701151E+02  0.18156314493E+02  0.00000000000E+00 0.  1.
</event>
<event>
 7    1  0.7596051E-010  0.4778727E+02  0.7816164E-02  0.1312668E+00
        -11   -1    0    0    0    0  0.00000000000E+00  0.00000000000E+00  0.45593999997E+02  0.45594000000E+02  0.51100000000E-03 0. -1.
         11   -1    0    0    0    0 -0.00000000000E+00 -0.00000000000E+00 -0.45593999997E+02  0.45594000000E+02  0.51100000000E-03 0.  1.
    9900012    2    1    2    0    0 -0.52958980232E+01 -0.40858564784E+02 -0.13643842852E+02  0.47787270745E+02  0.19999998636E+02 0.  0.
         12    1    1    2    0    0  0.52958980232E+01  0.40858564784E+02  0.13643842852E+02  0.43400729255E+02  0.00000000000E+00 0. -1.
         11    1    3    3    0    0 -0.39989723354E+01 -0.13786112810E+02  0.19125697148E+01  0.14481250268E+02  0.51100000000E-03 0. -1.
        -11    1    3    3    0    0  0.52843363979E+00 -0.20214870874E+02 -0.54255064508E+01  0.20936961744E+02  0.51100000000E-03 0.  1.
         12    1    3    3    0    0 -0.18253593276E+01 -0.68575811001E+01 -0.10130906116E+02  0.12369058733E+02  0.00000000000E+00 0. -1.
</event>
<event>
 7    1  0.7596051E-010  0.4778727E+02  0.7816164E-02  0.1312668E+00
        -11   -1    0    0    0    0  0.00000000000E+00  0.00000000000E+00  0.45593999997E+02  0.45594000000E+02  0.51100000000E-03 0. -1.
         11   -1    0    0    0    0 -0.00000000000E+00 -0.00000000000E+00 -0.45593999997E+02  0.45594000000E+02  0.51100000000E-03 0.  1.
    9900012    2    1    2    0    0 -0.14413131060E+02 -0.19108898788E+02 -0.36204072581E+02  0.47787271535E+02  0.20000002235E+02 0.  0.
         12    1    1    2    0    0  0.14413131060E+02  0.19108898788E+02  0.36204072581E+02  0.43400728465E+02  0.00000000000E+00 0. -1.
         11    1    3    3    0    0 -0.32773788737E+01 -0.17896348722E+01 -0.24665378149E+00  0.37423045850E+01  0.51100000000E-03 0. -1.
        -11    1    3    3    0    0 -0.12239187756E+02 -0.57205599006E+01 -0.16054699731E+02  0.20982752589E+02  0.51100000000E-03 0.  1.
         12    1    3    3    0    0  0.11034355695E+01 -0.11598704016E+02 -0.19902719069E+02  0.23062214361E+02  0.00000000000E+00 0. -1.
</event>
<event>
 7    1  0.7596051E-010  0.4778727E+02  0.7816164E-02  0.1312668E+00
        -11   -1    0    0    0    0  0.00000000000E+00  0.00000000000E+00  0.45593999997E+02  0.45594000000E+02  0.51100000000E-03 0. -1.
         11   -1    0    0    0    0 -0.00000000000E+00 -0.00000000000E+00 -0.45593999997E+02  0.45594000000E+02  0.51100000000E-03 0.  1.
    9900012    2    1    2    0    0 -0.72863383467E+01  0.28877314131E+01 -0.42687161522E+02  0.47787268693E+02  0.19999989277E+02 0.  0.
         12    1    1    2    0    0  0.72863383467E+01 -0.28877314131E+01  0.42687161522E+02  0.43400731307E+02  0.00000000000E+00 0. -1.
         11    1    3    3    0    0 -0.64824355874E+01  0.29641093733E+01 -0.10298887290E+02  0.12524974858E+02  0.51100000000E-03 0. -1.
        -11    1    3    3    0    0  0.33271127408E+00  0.56216774823E+01 -0.26099968125E+02  0.26700604692E+02  0.51100000000E-03 0.  1.
        -12    1    3    3    0    0 -0.11366140334E+01 -0.56980554425E+01 -0.62883061068E+01  0.85616891429E+01  0.00000000000E+00 0.  1.
</event>
<event>
 7    1  0.7596051E-010  0.4778727E+02  0.7816164E-02  0.1312668E+00
        -11   -1    0    0    0    0  0.00000000000E+00  0.00000000000E+00  0.45593999997E+02  0.45594000000E+02  0.51100000000E-03 0. -1.
         11   -1    0    0    0    0 -0.00000000000E+00 -0.00000000000E+00 -0.45593999997E+02  0.45594000000E+02  0.51100000000E-03 0.  1.
    9900012    2    1    2    0    0  0.29429572938E+02 -0.31628542165E+02 -0.41423556156E+01  0.47787267830E+02  0.19999985345E+02 0.  0.
         12    1    1    2    0    0 -0.29429572938E+02  0.31628542165E+02  0.41423556156E+01  0.43400732170E+02  0.00000000000E+00 0. -1.
         11    1    3    3    0    0  0.18197762392E+01 -0.31391347621E+01 -0.44736826963E+01  0.57601727182E+01  0.51100000000E-03 0. -1.
        -11    1    3    3    0    0  0.52921606985E+01 -0.77040653595E+00  0.33531747788E+01  0.63122319704E+01  0.51100000000E-03 0.  1.
        -12    1    3    3    0    0  0.22317636001E+02 -0.27719000867E+02 -0.30218476982E+01  0.35714863142E+02  0.00000000000E+00 0.  1.
</event>
<event>
 7    1  0.7596051E-010  0.4778727E+02  0.7816164E-02  0.1312668E+00
        -11   -1    0    0    0    0  0.00000000000E+00  0.00000000000E+00  0.45593999997E+02  0.45594000000E+02  0.51100000000E-03 0. -1.
         11   -1    0    0    0    0 -0.00000000000E+00 -0.00000000000E+00 -0.45593999997E+02  0.45594000000E+02  0.51100000000E-03 0.  1.
    9900012    2    1    2    0    0  0.18376295646E+02 -0.16041574425E+02  0.35897117911E+02  0.47787269292E+02  0.19999992009E+02 0.  0.
        -12    1    1    2    0    0 -0.18376295646E+02  0.16041574425E+02 -0.35897117911E+02  0.43400730708E+02  0.00000000000E+00 0.  1.
         11    1    3    3    0    0  0.20982415347E+01 -0.20629716817E+01  0.14917782567E+02  0.15205219718E+02  0.51100000000E-03 0. -1.
        -11    1    3    3    0    0 -0.12029387266E+01  0.55394476378E+00  0.39846402835E+01  0.41989611610E+01  0.51100000000E-03 0.  1.
         12    1    3    3    0    0  0.17480992838E+02 -0.14532547507E+02  0.16994695061E+02  0.28383088413E+02  0.00000000000E+00 0. -1.
</event>
<event>
 7    1  0.1296842E-009  0.4778726E+02  0.7816164E-02  0.1312668E+00
        -11   -1    0    0    0    0  0.00000000000E+00  0.00000000000E+00  0.45593999997E+02  0.45594000000E+02  0.51100000000E-03 0. -1.
         11   -1    0    0    0    0 -0.00000000000E+00 -0.00000000000E+00 -0.45593999997E+02  0.45594000000E+02  0.51100000000E-03 0.  1.
    9900012    2    1    2    0    0 -0.21289550498E+02 -0.26922383882E+02  0.26562456567E+02  0.47787264832E+02  0.19999971673E+02 0.  0.
        -12    1    1    2    0    0  0.21289550498E+02  0.26922383882E+02 -0.26562456567E+02  0.43400735168E+02  0.00000000000E+00 0.  1.
         11    1    3    3    0    0 -0.46284814405E+01 -0.12485660414E+02  0.19358996719E+02  0.23496495710E+02  0.51100000000E-03 0. -1.
        -11    1    3    3    0    0 -0.18166344725E+00 -0.54728941127E+00 -0.10617908335E+01  0.12082745313E+01  0.51100000000E-03 0.  1.
         12    1    3    3    0    0 -0.16479405610E+02 -0.13889434057E+02  0.82652506814E+01  0.23082494590E+02  0.00000000000E+00 0. -1.
</event>
<event>
 7    1  0.7596051E-010  0.4778727E+02  0.7816164E-02  0.1312668E+00
        -11   -1    0    0    0    0  0.00000000000E+00  0.00000000000E+00  0.45593999997E+02  0.45594000000E+02  0.51100000000E-03 0. -1.
         11   -1    0    0    0    0 -0.00000000000E+00 -0.00000000000E+00 -0.45593999997E+02  0.45594000000E+02  0.51100000000E-03 0.  1.
    9900012    2    1    2    0    0  0.24363619437E+02  0.23906622805E+02  0.26805057710E+02  0.47787266310E+02  0.19999978414E+02 0.  0.
        -12    1    1    2    0    0 -0.24363619437E+02 -0.23906622805E+02 -0.26805057710E+02  0.43400733690E+02  0.00000000000E+00 0.  1.
         11    1    3    3    0    0  0.13129506897E+02  0.13031132944E+02  0.10773236632E+02  0.21406938243E+02  0.51100000000E-03 0. -1.
        -11    1    3    3    0    0  0.93830191776E+01  0.21329294348E+01  0.21321135153E+01  0.98557772481E+01  0.51100000000E-03 0.  1.
        -12    1    3    3    0    0  0.18510933627E+01  0.87425604259E+01  0.13899707563E+02  0.16524550819E+02  0.00000000000E+00 0.  1.
</event>
<event>
 7    1  0.7596051E-010  0.4778727E+02  0.7816164E-02  0.1312668E+00
        -11   -1    0    0    0    0  0.00000000000E+00  0.00000000000E+00  0.45593999997E+02  0.45594000000E+02  0.51100000000E-03 0. -1.
         11   -1    0    0    0    0 -0.00000000000E+00 -0.00000000000E+00 -0.45593999997E+02  0.45594000000E+02  0.51100000000E-03 0.  1.
    9900012    2    1    2    0    0 -0.72509742214E+01 -0.11823703514E+02 -0.41124769632E+02  0.47787271098E+02  0.20000000244E+02 0.  0.
         12    1    1    2    0    0  0.72509742214E+01  0.11823703514E+02  0.41124769632E+02  0.43400728902E+02  0.00000000000E+00 0. -1.
         11    1    3    3    0    0 -0.16427362697E+01 -0.84235636897E+01 -0.98780110939E+01  0.13085492391E+02  0.51100000000E-03 0. -1.
        -11    1    3    3    0    0 -0.63986564675E+01 -0.15360187398E+01 -0.31902013107E+02  0.32573618140E+02  0.51100000000E-03 0.  1.
         12    1    3    3    0    0  0.79041851577E+00 -0.18641210847E+01  0.65525456936E+00  0.21281605670E+01  0.00000000000E+00 0. -1.
</event>
<event>
 7    1  0.7596051E-010  0.4778727E+02  0.7816164E-02  0.1312668E+00
        -11   -1    0    0    0    0  0.00000000000E+00  0.00000000000E+00  0.45593999997E+02  0.45594000000E+02  0.51100000000E-03 0.  1.
         11   -1    0    0    0    0 -0.00000000000E+00 -0.00000000000E+00 -0.45593999997E+02  0.45594000000E+02  0.51100000000E-03 0. -1.
    9900012    2    1    2    0    0 -0.21389792048E+02 -0.31707907308E+02 -0.20511184747E+02  0.47787270866E+02  0.19999999184E+02 0.  0.
         12    1    1    2    0    0  0.21389792048E+02  0.31707907308E+02  0.20511184747E+02  0.43400729134E+02  0.00000000000E+00 0. -1.
         11    1    3    3    0    0 -0.35378883690E+01  0.11908331472E+01  0.14914636149E+01  0.40198509514E+01  0.51100000000E-03 0. -1.
        -11    1    3    3    0    0 -0.71839837218E+01 -0.88293391324E+01 -0.50406530507E+01  0.12448896942E+02  0.51100000000E-03 0.  1.
         12    1    3    3    0    0 -0.10667919957E+02 -0.24069401322E+02 -0.16961995311E+02  0.31318522972E+02  0.00000000000E+00 0. -1.
</event>
<event>
 7    1  0.7596051E-010  0.4778727E+02  0.7816164E-02  0.1312668E+00
        -11   -1    0    0    0    0  0.00000000000E+00  0.00000000000E+00  0.45593999997E+02  0.45594000000E+02  0.51100000000E-03 0. -1.
         11   -1    0    0    0    0 -0.00000000000E+00 -0.00000000000E+00 -0.45593999997E+02  0.45594000000E+02  0.51100000000E-03 0.  1.
    9900012    2    1    2    0    0 -0.28971009035E+02  0.20985492883E+02  0.24574635792E+02  0.47787274196E+02  0.20000014367E+02 0.  0.
        -12    1    1    2    0    0  0.28971009035E+02 -0.20985492883E+02 -0.24574635792E+02  0.43400725804E+02  0.00000000000E+00 0.  1.
         11    1    3    3    0    0 -0.42444044467E+00 -0.12487735671E+01 -0.21045566278E+00  0.13356185684E+01  0.51100000000E-03 0. -1.
        -11    1    3    3    0    0 -0.14718931807E+02  0.24528475337E+01  0.11941384259E+02  0.19111778380E+02  0.51100000000E-03 0.  1.
         12    1    3    3    0    0 -0.13827636783E+02  0.19781418916E+02  0.12843707195E+02  0.27339877247E+02  0.00000000000E+00 0. -1.
</event>
<event>
 7    1  0.7596051E-010  0.4778727E+02  0.7816164E-02  0.1312668E+00
        -11   -1    0    0    0    0  0.00000000000E+00  0.00000000000E+00  0.45593999997E+02  0.45594000000E+02  0.51100000000E-03 0. -1.
         11   -1    0    0    0    0 -0.00000000000E+00 -0.00000000000E+00 -0.45593999997E+02  0.45594000000E+02  0.51100000000E-03 0.  1.
    9900012    2    1    2    0    0  0.12329179284E+02 -0.15103393921E+02  0.38775018941E+02  0.47787271163E+02  0.20000000539E+02 0.  0.
        -12    1    1    2    0    0 -0.12329179284E+02  0.15103393921E+02 -0.38775018941E+02  0.43400728837E+02  0.00000000000E+00 0.  1.
         11    1    3    3    0    0  0.78065395126E+01 -0.10382320877E+02  0.11519185331E+02  0.17361632322E+02  0.51100000000E-03 0. -1.
        -11    1    3    3    0    0  0.17091473224E+01 -0.81289239135E+01  0.12389987588E+02  0.14916848905E+02  0.51100000000E-03 0.  1.
        -12    1    3    3    0    0  0.28134924487E+01  0.34078508690E+01  0.14865846022E+02  0.15508789935E+02  0.00000000000E+00 0.  1.
</event>
<event>
 7    1  0.7596051E-010  0.4778727E+02  0.7816164E-02  0.1312668E+00
        -11   -1    0    0    0    0  0.00000000000E+00  0.00000000000E+00  0.45593999997E+02  0.45594000000E+02  0.51100000000E-03 0. -1.
         11   -1    0    0    0    0 -0.00000000000E+00 -0.00000000000E+00 -0.45593999997E+02  0.45594000000E+02  0.51100000000E-03 0.  1.
    9900012    2    1    2    0    0 -0.24581468871E+02  0.18893055305E+01  0.35718417217E+02  0.47787269410E+02  0.19999992549E+02 0.  0.
        -12    1    1    2    0    0  0.24581468871E+02 -0.18893055305E+01 -0.35718417217E+02  0.43400730590E+02  0.00000000000E+00 0.  1.
         11    1    3    3    0    0 -0.12864047225E+02  0.94155011745E+01  0.15267580551E+02  0.22073386453E+02  0.51100000000E-03 0. -1.
        -11    1    3    3    0    0 -0.48043168284E+01 -0.97568963184E+00  0.27689373992E+01  0.56303148248E+01  0.51100000000E-03 0.  1.
         12    1    3    3    0    0 -0.69131048170E+01 -0.65505060121E+01  0.17681899267E+02  0.20083568132E+02  0.00000000000E+00 0. -1.
</event>
<event>
 7    1  0.7596051E-010  0.4778727E+02  0.7816164E-02  0.1312668E+00
        -11   -1    0    0    0    0  0.00000000000E+00  0.00000000000E+00  0.45593999997E+02  0.45594000000E+02  0.51100000000E-03 0. -1.
         11   -1    0    0    0    0 -0.00000000000E+00 -0.00000000000E+00 -0.45593999997E+02  0.45594000000E+02  0.51100000000E-03 0.  1.
    9900012    2    1    2    0    0 -0.15397824504E+01  0.20633588450E+01  0.43324299623E+02  0.47787270541E+02  0.19999997705E+02 0.  0.
        -12    1    1    2    0    0  0.15397824504E+01 -0.20633588450E+01 -0.43324299623E+02  0.43400729459E+02  0.00000000000E+00 0.  1.
         11    1    3    3    0    0 -0.70917432950E+01 -0.27247408963E+01  0.14708210918E+02  0.16554410427E+02  0.51100000000E-03 0. -1.
        -11    1    3    3    0    0 -0.77497519927E+00 -0.13376121398E+01  0.29452011082E+00  0.15737011002E+01  0.51100000000E-03 0.  1.
         12    1    3    3    0    0  0.63269360439E+01  0.61257118811E+01  0.28321568594E+02  0.29659159014E+02  0.00000000000E+00 0. -1.
</event>
<event>
 7    1  0.7596051E-010  0.4778727E+02  0.7816164E-02  0.1312668E+00
        -11   -1    0    0    0    0  0.00000000000E+00  0.00000000000E+00  0.45593999997E+02  0.45594000000E+02  0.51100000000E-03 0. -1.
         11   -1    0    0    0    0 -0.00000000000E+00 -0.00000000000E+00 -0.45593999997E+02  0.45594000000E+02  0.51100000000E-03 0.  1.
    9900012    2    1    2    0    0  0.32790694711E+02  0.19774355905E+02  0.20429599131E+02  0.47787270378E+02  0.19999996960E+02 0.  0.
        -12    1    1    2    0    0 -0.32790694711E+02 -0.19774355905E+02 -0.20429599131E+02  0.43400729622E+02  0.00000000000E+00 0.  1.
         11    1    3    3    0    0  0.18112968293E+02  0.28871552555E+01  0.76265687722E+01  0.19864033764E+02  0.51100000000E-03 0. -1.
        -11    1    3    3    0    0  0.64864641386E-01  0.52504021481E-01 -0.14575417498E+01  0.14599288707E+01  0.51100000000E-03 0.  1.
        -12    1    3    3    0    0  0.14612861776E+02  0.16834696628E+02  0.14260572109E+02  0.26463307743E+02  0.00000000000E+00 0.  1.
</event>
<event>
 7    1  0.7596051E-010  0.4778727E+02  0.7816164E-02  0.1312668E+00
        -11   -1    0    0    0    0  0.00000000000E+00  0.00000000000E+00  0.45593999997E+02  0.45594000000E+02  0.51100000000E-03 0. -1.
         11   -1    0    0    0    0 -0.00000000000E+00 -0.00000000000E+00 -0.45593999997E+02  0.45594000000E+02  0.51100000000E-03 0.  1.
    9900012    2    1    2    0    0 -0.17815157762E+02  0.52253642970E+01 -0.39229312676E+02  0.47787271307E+02  0.20000001195E+02 0.  0.
         12    1    1    2    0    0  0.17815157762E+02 -0.52253642970E+01  0.39229312676E+02  0.43400728693E+02  0.00000000000E+00 0. -1.
         11    1    3    3    0    0 -0.49969405732E+00 -0.17441091820E+01  0.12666916880E+01  0.22127175787E+01  0.51100000000E-03 0.  1.
        -11    1    3    3    0    0 -0.43697919320E+01  0.84793325952E+00 -0.28212037536E+01  0.52700344612E+01  0.51100000000E-03 0. -1.
        -12    1    3    3    0    0 -0.12945671772E+02  0.61215402195E+01 -0.37674800610E+02  0.40304519267E+02  0.00000000000E+00 0.  1.
</event>
<event>
 7    1  0.7596051E-010  0.4778727E+02  0.7816164E-02  0.1312668E+00
        -11   -1    0    0    0    0  0.00000000000E+00  0.00000000000E+00  0.45593999997E+02  0.45594000000E+02  0.51100000000E-03 0. -1.
         11   -1    0    0    0    0 -0.00000000000E+00 -0.00000000000E+00 -0.45593999997E+02  0.45594000000E+02  0.51100000000E-03 0.  1.
    9900012    2    1    2    0    0  0.21063103128E+02  0.41039643886E+01 -0.37724348136E+02  0.47787270981E+02  0.19999999713E+02 0.  0.
         12    1    1    2    0    0 -0.21063103128E+02 -0.41039643886E+01  0.37724348136E+02  0.43400729019E+02  0.00000000000E+00 0. -1.
         11    1    3    3    0    0  0.63059746699E+01 -0.13934844671E+01 -0.22826308163E+02  0.23722298795E+02  0.51100000000E-03 0.  1.
        -11    1    3    3    0    0  0.44931561296E-01  0.38851074201E+01 -0.46671978129E+01  0.60727929487E+01  0.51100000000E-03 0. -1.
        -12    1    3    3    0    0  0.14712196897E+02  0.16123414355E+01 -0.10230842160E+02  0.17992179238E+02  0.00000000000E+00 0.  1.
</event>
<event>
 7    1  0.7596051E-010  0.4778730E+02  0.7816164E-02  0.1312668E+00
        -11   -1    0    0    0    0  0.00000000000E+00  0.00000000000E+00  0.45593999997E+02  0.45594000000E+02  0.51100000000E-03 0. -1.
         11   -1    0    0    0    0 -0.00000000000E+00 -0.00000000000E+00 -0.45593999997E+02  0.45594000000E+02  0.51100000000E-03 0.  1.
    9900012    2    1    2    0    0  0.32002281555E+00  0.16624588949E+02 -0.40089163417E+02  0.47787304202E+02  0.20000151177E+02 0.  0.
         12    1    1    2    0    0 -0.32002281555E+00 -0.16624588949E+02  0.40089163417E+02  0.43400695798E+02  0.00000000000E+00 0. -1.
         11    1    3    3    0    0 -0.39394735841E+01  0.43368141859E+01 -0.51776969139E+01  0.78189484585E+01  0.51100000000E-03 0. -1.
        -11    1    3    3    0    0 -0.43493117938E+01  0.88645679210E+01 -0.14382391718E+02  0.17445637543E+02  0.51100000000E-03 0.  1.
         12    1    3    3    0    0  0.86088081934E+01  0.34232068422E+01 -0.20529074785E+02  0.22522718200E+02  0.00000000000E+00 0. -1.
</event>
<event>
 7    1  0.7596051E-010  0.4778727E+02  0.7816164E-02  0.1312668E+00
        -11   -1    0    0    0    0  0.00000000000E+00  0.00000000000E+00  0.45593999997E+02  0.45594000000E+02  0.51100000000E-03 0.  1.
         11   -1    0    0    0    0 -0.00000000000E+00 -0.00000000000E+00 -0.45593999997E+02  0.45594000000E+02  0.51100000000E-03 0. -1.
    9900012    2    1    2    0    0 -0.43283892012E+02  0.27175823583E+01 -0.16561303221E+01  0.47787270407E+02  0.19999997094E+02 0.  0.
        -12    1    1    2    0    0  0.43283892012E+02 -0.27175823583E+01  0.16561303221E+01  0.43400729593E+02  0.00000000000E+00 0.  1.
         11    1    3    3    0    0 -0.11129845170E+02 -0.32471148902E+01 -0.39985230167E+01  0.12263987736E+02  0.51100000000E-03 0. -1.
        -11    1    3    3    0    0 -0.20022685722E+02 -0.26491540006E+01  0.38769201793E+01  0.20565905543E+02  0.51100000000E-03 0.  1.
        -12    1    3    3    0    0 -0.12131361120E+02  0.86138512491E+01 -0.15345274847E+01  0.14957377129E+02  0.00000000000E+00 0.  1.
</event>
<event>
 7    1  0.7596051E-010  0.4778727E+02  0.7816164E-02  0.1312668E+00
        -11   -1    0    0    0    0  0.00000000000E+00  0.00000000000E+00  0.45593999997E+02  0.45594000000E+02  0.51100000000E-03 0. -1.
         11   -1    0    0    0    0 -0.00000000000E+00 -0.00000000000E+00 -0.45593999997E+02  0.45594000000E+02  0.51100000000E-03 0.  1.
    9900012    2    1    2    0    0  0.20275523943E+02  0.22623798822E+02  0.30995004620E+02  0.47787268950E+02  0.19999990449E+02 0.  0.
        -12    1    1    2    0    0 -0.20275523943E+02 -0.22623798822E+02 -0.30995004620E+02  0.43400731050E+02  0.00000000000E+00 0.  1.
         11    1    3    3    0    0  0.48979523914E+01  0.42195292982E+01  0.18214032268E+02  0.19327320995E+02  0.51100000000E-03 0. -1.
        -11    1    3    3    0    0  0.58936144745E+01  0.36016209951E+01  0.72893796292E+01  0.10041982922E+02  0.51100000000E-03 0.  1.
        -12    1    3    3    0    0  0.94839570771E+01  0.14802648529E+02  0.54915927229E+01  0.18417965032E+02  0.00000000000E+00 0.  1.
</event>
<event>
 7    1  0.7596051E-010  0.4778727E+02  0.7816164E-02  0.1312668E+00
        -11   -1    0    0    0    0  0.00000000000E+00  0.00000000000E+00  0.45593999997E+02  0.45594000000E+02  0.51100000000E-03 0. -1.
         11   -1    0    0    0    0 -0.00000000000E+00 -0.00000000000E+00 -0.45593999997E+02  0.45594000000E+02  0.51100000000E-03 0.  1.
    9900012    2    1    2    0    0 -0.20346511973E+02  0.32136115693E+02 -0.20902457583E+02  0.47787271731E+02  0.20000003129E+02 0.  0.
         12    1    1    2    0    0  0.20346511973E+02 -0.32136115693E+02  0.20902457583E+02  0.43400728269E+02  0.00000000000E+00 0. -1.
         11    1    3    3    0    0 -0.56524872307E+01  0.87505967930E+01  0.30097042851E+01  0.10843517707E+02  0.51100000000E-03 0. -1.
        -11    1    3    3    0    0 -0.25626805112E+01  0.29233626195E+01 -0.12363325652E+01  0.40794483550E+01  0.51100000000E-03 0.  1.
         12    1    3    3    0    0 -0.12131344231E+02  0.20462156280E+02 -0.22675829303E+02  0.32864305668E+02  0.00000000000E+00 0. -1.
</event>
<event>
 7    1  0.7596051E-010  0.4778725E+02  0.7816164E-02  0.1312668E+00
        -11   -1    0    0    0    0  0.00000000000E+00  0.00000000000E+00  0.45593999997E+02  0.45594000000E+02  0.51100000000E-03 0. -1.
         11   -1    0    0    0    0 -0.00000000000E+00 -0.00000000000E+00 -0.45593999997E+02  0.45594000000E+02  0.51100000000E-03 0.  1.
    9900012    2    1    2    0    0  0.33708856894E+02 -0.55119970107E+01 -0.26776028099E+02  0.47787253176E+02  0.19999918531E+02 0.  0.
         12    1    1    2    0    0 -0.33708856894E+02  0.55119970107E+01  0.26776028099E+02  0.43400746824E+02  0.00000000000E+00 0. -1.
         11    1    3    3    0    0  0.11557697386E+02 -0.11655143907E+01 -0.48073195662E+01  0.12571758601E+02  0.51100000000E-03 0. -1.
        -11    1    3    3    0    0  0.13365797330E+02 -0.68249772091E+01 -0.47749069495E+01  0.15748796424E+02  0.51100000000E-03 0.  1.
         12    1    3    3    0    0  0.87853621781E+01  0.24784945891E+01 -0.17193801583E+02  0.19466698151E+02  0.00000000000E+00 0. -1.
</event>
<event>
 7    1  0.7596051E-010  0.4778727E+02  0.7816164E-02  0.1312668E+00
        -11   -1    0    0    0    0  0.00000000000E+00  0.00000000000E+00  0.45593999997E+02  0.45594000000E+02  0.51100000000E-03 0. -1.
         11   -1    0    0    0    0 -0.00000000000E+00 -0.00000000000E+00 -0.45593999997E+02  0.45594000000E+02  0.51100000000E-03 0.  1.
    9900012    2    1    2    0    0  0.17347956402E+01 -0.41426623118E+02 -0.12823744722E+02  0.47787273651E+02  0.20000011885E+02 0.  0.
        -12    1    1    2    0    0 -0.17347956402E+01  0.41426623118E+02  0.12823744722E+02  0.43400726349E+02  0.00000000000E+00 0.  1.
         11    1    3    3    0    0  0.10805811016E+01 -0.13152439342E+02 -0.16838608919E+01  0.13303747740E+02  0.51100000000E-03 0. -1.
        -11    1    3    3    0    0 -0.74992336083E+01 -0.15332548862E+02 -0.36581658781E+01  0.17455879730E+02  0.51100000000E-03 0.  1.
         12    1    3    3    0    0  0.81534481468E+01 -0.12941634914E+02 -0.74817179518E+01  0.17027646181E+02  0.00000000000E+00 0. -1.
</event>
<event>
 7    1  0.7596051E-010  0.4778727E+02  0.7816164E-02  0.1312668E+00
        -11   -1    0    0    0    0  0.00000000000E+00  0.00000000000E+00  0.45593999997E+02  0.45594000000E+02  0.51100000000E-03 0. -1.
         11   -1    0    0    0    0 -0.00000000000E+00 -0.00000000000E+00 -0.45593999997E+02  0.45594000000E+02  0.51100000000E-03 0.  1.
    9900012    2    1    2    0    0 -0.33011612778E+02  0.98246484825E+01  0.26407061647E+02  0.47787271886E+02  0.20000003836E+02 0.  0.
        -12    1    1    2    0    0  0.33011612778E+02 -0.98246484825E+01 -0.26407061647E+02  0.43400728114E+02  0.00000000000E+00 0.  1.
         11    1    3    3    0    0 -0.22959036636E+02  0.79968061740E+01  0.23274081512E+02  0.33656338820E+02  0.51100000000E-03 0. -1.
        -11    1    3    3    0    0 -0.45623592131E+01  0.52262734379E+01  0.32767165784E+01  0.76724134035E+01  0.51100000000E-03 0.  1.
        -12    1    3    3    0    0 -0.54902169288E+01 -0.33984311295E+01 -0.14373644368E+00  0.64585196626E+01  0.00000000000E+00 0.  1.
</event>
<event>
 7    1  0.7596051E-010  0.4778727E+02  0.7816164E-02  0.1312668E+00
        -11   -1    0    0    0    0  0.00000000000E+00  0.00000000000E+00  0.45593999997E+02  0.45594000000E+02  0.51100000000E-03 0. -1.
         11   -1    0    0    0    0 -0.00000000000E+00 -0.00000000000E+00 -0.45593999997E+02  0.45594000000E+02  0.51100000000E-03 0.  1.
    9900012    2    1    2    0    0  0.90023727608E+01 -0.25383852917E+02 -0.34032939608E+02  0.47787266336E+02  0.19999978530E+02 0.  0.
         12    1    1    2    0    0 -0.90023727608E+01  0.25383852917E+02  0.34032939608E+02  0.43400733664E+02  0.00000000000E+00 0. -1.
         11    1    3    3    0    0  0.51601182475E+01 -0.11528309680E+02 -0.62877608597E+01  0.14109028361E+02  0.51100000000E-03 0. -1.
        -11    1    3    3    0    0  0.15784938863E+01 -0.58954402918E+01 -0.16789672090E+01  0.63298333575E+01  0.51100000000E-03 0.  1.
        -12    1    3    3    0    0  0.22637606271E+01 -0.79601029454E+01 -0.26066211539E+02  0.27348404617E+02  0.00000000000E+00 0.  1.
</event>
<event>
 7    1  0.7596051E-010  0.4778728E+02  0.7816164E-02  0.1312668E+00
        -11   -1    0    0    0    0  0.00000000000E+00  0.00000000000E+00  0.45593999997E+02  0.45594000000E+02  0.51100000000E-03 0. -1.
         11   -1    0    0    0    0 -0.00000000000E+00 -0.00000000000E+00 -0.45593999997E+02  0.45594000000E+02  0.51100000000E-03 0.  1.
    9900012    2    1    2    0    0 -0.31876629417E+02  0.25756355082E+01  0.29340576354E+02  0.47787276250E+02  0.20000023734E+02 0.  0.
        -12    1    1    2    0    0  0.31876629417E+02 -0.25756355082E+01 -0.29340576354E+02  0.43400723750E+02  0.00000000000E+00 0.  1.
         11    1    3    3    0    0 -0.13939141482E+02 -0.38531930381E+01  0.16886354482E+02  0.22232762532E+02  0.51100000000E-03 0. -1.
        -11    1    3    3    0    0 -0.16933889685E+02  0.19650693334E+01  0.12217045854E+02  0.20973181137E+02  0.51100000000E-03 0.  1.
        -12    1    3    3    0    0 -0.10035982495E+01  0.44637592130E+01  0.23717601888E+00  0.45813325814E+01  0.00000000000E+00 0.  1.
</event>
<event>
 7    1  0.7596051E-010  0.4778727E+02  0.7816164E-02  0.1312668E+00
        -11   -1    0    0    0    0  0.00000000000E+00  0.00000000000E+00  0.45593999997E+02  0.45594000000E+02  0.51100000000E-03 0. -1.
         11   -1    0    0    0    0 -0.00000000000E+00 -0.00000000000E+00 -0.45593999997E+02  0.45594000000E+02  0.51100000000E-03 0.  1.
    9900012    2    1    2    0    0 -0.26750900342E+02 -0.19517245210E+02  0.28055124414E+02  0.47787268030E+02  0.19999986254E+02 0.  0.
        -12    1    1    2    0    0  0.26750900342E+02  0.19517245210E+02 -0.28055124414E+02  0.43400731970E+02  0.00000000000E+00 0.  1.
         11    1    3    3    0    0 -0.76174223631E+01 -0.50007647273E+00  0.99223871051E+01  0.12519143983E+02  0.51100000000E-03 0. -1.
        -11    1    3    3    0    0 -0.17085105590E+02 -0.12421591244E+02  0.18867555048E+02  0.28322806990E+02  0.51100000000E-03 0.  1.
        -12    1    3    3    0    0 -0.20483723883E+01 -0.65955774930E+01 -0.73481773849E+00  0.69453170565E+01  0.00000000000E+00 0.  1.
</event>
<event>
 7    1  0.7596051E-010  0.4778727E+02  0.7816164E-02  0.1312668E+00
        -11   -1    0    0    0    0  0.00000000000E+00  0.00000000000E+00  0.45593999997E+02  0.45594000000E+02  0.51100000000E-03 0.  1.
         11   -1    0    0    0    0 -0.00000000000E+00 -0.00000000000E+00 -0.45593999997E+02  0.45594000000E+02  0.51100000000E-03 0. -1.
    9900012    2    1    2    0    0 -0.15190712511E+02  0.94076467034E+01  0.39552018354E+02  0.47787265917E+02  0.19999976621E+02 0.  0.
        -12    1    1    2    0    0  0.15190712511E+02 -0.94076467034E+01 -0.39552018354E+02  0.43400734083E+02  0.00000000000E+00 0.  1.
         11    1    3    3    0    0 -0.54654562715E+01  0.86613159235E+00  0.22732288251E+01  0.59823879633E+01  0.51100000000E-03 0. -1.
        -11    1    3    3    0    0 -0.55331671841E+01  0.23230365256E+01  0.29883704675E+01  0.67039388496E+01  0.51100000000E-03 0.  1.
        -12    1    3    3    0    0 -0.41920890554E+01  0.62184785855E+01  0.34290419061E+02  0.35100939104E+02  0.00000000000E+00 0.  1.
</event>
<event>
 7    1  0.7596051E-010  0.4778727E+02  0.7816164E-02  0.1312668E+00
        -11   -1    0    0    0    0  0.00000000000E+00  0.00000000000E+00  0.45593999997E+02  0.45594000000E+02  0.51100000000E-03 0. -1.
         11   -1    0    0    0    0 -0.00000000000E+00 -0.00000000000E+00 -0.45593999997E+02  0.45594000000E+02  0.51100000000E-03 0.  1.
    9900012    2    1    2    0    0 -0.22403992314E+02 -0.13838815359E+02  0.34498863505E+02  0.47787271143E+02  0.20000000449E+02 0.  0.
        -12    1    1    2    0    0  0.22403992314E+02  0.13838815359E+02 -0.34498863505E+02  0.43400728857E+02  0.00000000000E+00 0.  1.
         11    1    3    3    0    0 -0.99891399714E+01  0.36240093939E+01  0.15231666973E+02  0.18572023059E+02  0.51100000000E-03 0.  1.
        -11    1    3    3    0    0 -0.44596454884E+01 -0.27847671191E+01  0.42706871496E+01  0.67736352708E+01  0.51100000000E-03 0. -1.
        -12    1    3    3    0    0 -0.79552068547E+01 -0.14678057634E+02  0.14996509382E+02  0.22441612813E+02  0.00000000000E+00 0.  1.
</event>
<event>
 7    1  0.7596051E-010  0.4778727E+02  0.7816164E-02  0.1312668E+00
        -11   -1    0    0    0    0  0.00000000000E+00  0.00000000000E+00  0.45593999997E+02  0.45594000000E+02  0.51100000000E-03 0.  1.
         11   -1    0    0    0    0 -0.00000000000E+00 -0.00000000000E+00 -0.45593999997E+02  0.45594000000E+02  0.51100000000E-03 0. -1.
    9900012    2    1    2    0    0  0.14126721453E+02 -0.40783946098E+02  0.45528910300E+01  0.47787270340E+02  0.19999996787E+02 0.  0.
         12    1    1    2    0    0 -0.14126721453E+02  0.40783946098E+02 -0.45528910300E+01  0.43400729660E+02  0.00000000000E+00 0. -1.
         11    1    3    3    0    0 -0.15024980348E+01 -0.73261674808E+00 -0.68841747178E+00  0.18078015712E+01  0.51100000000E-03 0. -1.
        -11    1    3    3    0    0  0.18270707372E+01 -0.23291086367E+01 -0.37896742618E+01  0.48088008685E+01  0.51100000000E-03 0.  1.
        -12    1    3    3    0    0  0.13802148750E+02 -0.37722220713E+02  0.90309827637E+01  0.41170667900E+02  0.00000000000E+00 0.  1.
</event>
<event>
 7    1  0.7596051E-010  0.4778727E+02  0.7816164E-02  0.1312668E+00
        -11   -1    0    0    0    0  0.00000000000E+00  0.00000000000E+00  0.45593999997E+02  0.45594000000E+02  0.51100000000E-03 0. -1.
         11   -1    0    0    0    0 -0.00000000000E+00 -0.00000000000E+00 -0.45593999997E+02  0.45594000000E+02  0.51100000000E-03 0.  1.
    9900012    2    1    2    0    0 -0.81918507914E+01 -0.10357772836E+02  0.41342878191E+02  0.47787268962E+02  0.19999990506E+02 0.  0.
        -12    1    1    2    0    0  0.81918507914E+01  0.10357772836E+02 -0.41342878191E+02  0.43400731038E+02  0.00000000000E+00 0.  1.
         11    1    3    3    0    0 -0.10867884170E+01 -0.35645454924E+01  0.11030452781E+02  0.11642937019E+02  0.51100000000E-03 0. -1.
        -11    1    3    3    0    0 -0.16752507936E+01 -0.10536875855E+02  0.94098270606E+01  0.14225929269E+02  0.51100000000E-03 0.  1.
        -12    1    3    3    0    0 -0.54298115808E+01  0.37436485117E+01  0.20902598350E+02  0.21918402673E+02  0.00000000000E+00 0.  1.
</event>
<event>
 7    1  0.1260184E-009  0.4778727E+02  0.7816164E-02  0.1312668E+00
        -11   -1    0    0    0    0  0.00000000000E+00  0.00000000000E+00  0.45593999997E+02  0.45594000000E+02  0.51100000000E-03 0. -1.
         11   -1    0    0    0    0 -0.00000000000E+00 -0.00000000000E+00 -0.45593999997E+02  0.45594000000E+02  0.51100000000E-03 0.  1.
    9900012    2    1    2    0    0 -0.28738114206E+02 -0.60299277473E+01  0.31959105595E+02  0.47787266513E+02  0.19999979341E+02 0.  0.
        -12    1    1    2    0    0  0.28738114206E+02  0.60299277473E+01 -0.31959105595E+02  0.43400733487E+02  0.00000000000E+00 0.  1.
         11    1    3    3    0    0  0.64630561978E+00  0.22008817161E+01  0.87919703885E+00  0.24565380064E+01  0.51100000000E-03 0. -1.
        -11    1    3    3    0    0 -0.15328885916E+01 -0.47966383633E+00 -0.11943486755E+01  0.20015728440E+01  0.51100000000E-03 0.  1.
         12    1    3    3    0    0 -0.27851531234E+02 -0.77511456271E+01  0.32274257232E+02  0.43329155663E+02  0.00000000000E+00 0. -1.
</event>
<event>
 7    1  0.7596051E-010  0.4778727E+02  0.7816164E-02  0.1312668E+00
        -11   -1    0    0    0    0  0.00000000000E+00  0.00000000000E+00  0.45593999997E+02  0.45594000000E+02  0.51100000000E-03 0. -1.
         11   -1    0    0    0    0 -0.00000000000E+00 -0.00000000000E+00 -0.45593999997E+02  0.45594000000E+02  0.51100000000E-03 0.  1.
    9900012    2    1    2    0    0 -0.62115673184E+01 -0.18132870240E+02 -0.38938908777E+02  0.47787272260E+02  0.20000005540E+02 0.  0.
         12    1    1    2    0    0  0.62115673184E+01  0.18132870240E+02  0.38938908777E+02  0.43400727740E+02  0.00000000000E+00 0. -1.
         11    1    3    3    0    0 -0.49764620081E+01 -0.32559990273E+01 -0.18163570618E+01  0.62181875994E+01  0.51100000000E-03 0. -1.
        -11    1    3    3    0    0 -0.55583379009E+01 -0.43504852857E+01 -0.10925932790E+02  0.13007607390E+02  0.51100000000E-03 0.  1.
        -12    1    3    3    0    0  0.43232325906E+01 -0.10526385927E+02 -0.26196618925E+02  0.28561477270E+02  0.00000000000E+00 0.  1.
</event>
<event>
 7    1  0.7596051E-010  0.4778727E+02  0.7816164E-02  0.1312668E+00
        -11   -1    0    0    0    0  0.00000000000E+00  0.00000000000E+00  0.45593999997E+02  0.45594000000E+02  0.51100000000E-03 0. -1.
         11   -1    0    0    0    0 -0.00000000000E+00 -0.00000000000E+00 -0.45593999997E+02  0.45594000000E+02  0.51100000000E-03 0.  1.
    9900012    2    1    2    0    0 -0.54197246055E+01 -0.41710264629E+02 -0.10700640376E+02  0.47787270805E+02  0.19999998906E+02 0.  0.
         12    1    1    2    0    0  0.54197246055E+01  0.41710264629E+02  0.10700640376E+02  0.43400729195E+02  0.00000000000E+00 0. -1.
         11    1    3    3    0    0  0.78004674165E+00 -0.82822639805E+01  0.27351354379E+01  0.87570163690E+01  0.51100000000E-03 0. -1.
        -11    1    3    3    0    0 -0.61260434376E+01 -0.31557693351E+02 -0.77828547079E+01  0.33075508242E+02  0.51100000000E-03 0.  1.
        -12    1    3    3    0    0 -0.73727909474E-01 -0.18703072981E+01 -0.56529211062E+01  0.59547461933E+01  0.00000000000E+00 0.  1.
</event>
<event>
 7    1  0.7596051E-010  0.4778727E+02  0.7816164E-02  0.1312668E+00
        -11   -1    0    0    0    0  0.00000000000E+00  0.00000000000E+00  0.45593999997E+02  0.45594000000E+02  0.51100000000E-03 0. -1.
         11   -1    0    0    0    0 -0.00000000000E+00 -0.00000000000E+00 -0.45593999997E+02  0.45594000000E+02  0.51100000000E-03 0.  1.
    9900012    2    1    2    0    0 -0.10605290332E+02 -0.41477462410E+02  0.71253675166E+01  0.47787274969E+02  0.20000017891E+02 0.  0.
        -12    1    1    2    0    0  0.10605290332E+02  0.41477462410E+02 -0.71253675166E+01  0.43400725031E+02  0.00000000000E+00 0.  1.
         11    1    3    3    0    0 -0.62053824288E+01 -0.27303051100E+02  0.12960293358E+02  0.30853404587E+02  0.51100000000E-03 0. -1.
        -11    1    3    3    0    0 -0.66625928036E+00  0.38622014586E+00  0.92613004710E-01  0.77565769479E+00  0.51100000000E-03 0.  1.
        -12    1    3    3    0    0 -0.37336486231E+01 -0.14560631456E+02 -0.59275388462E+01  0.16158212687E+02  0.00000000000E+00 0.  1.
</event>
<event>
 7    1  0.7596051E-010  0.4778727E+02  0.7816164E-02  0.1312668E+00
        -11   -1    0    0    0    0  0.00000000000E+00  0.00000000000E+00  0.45593999997E+02  0.45594000000E+02  0.51100000000E-03 0. -1.
         11   -1    0    0    0    0 -0.00000000000E+00 -0.00000000000E+00 -0.45593999997E+02  0.45594000000E+02  0.51100000000E-03 0.  1.
    9900012    2    1    2    0    0  0.29297094351E+02  0.96047854490E+01 -0.30545893292E+02  0.47787271458E+02  0.20000001885E+02 0.  0.
         12    1    1    2    0    0 -0.29297094351E+02 -0.96047854490E+01  0.30545893292E+02  0.43400728542E+02  0.00000000000E+00 0. -1.
         11    1    3    3    0    0  0.10951393537E+02  0.46735868065E+01 -0.53903094474E+01  0.13070228393E+02  0.51100000000E-03 0. -1.
        -11    1    3    3    0    0 -0.18504373478E+01  0.28054082163E+01 -0.19706605218E+01  0.38958871636E+01  0.51100000000E-03 0.  1.
        -12    1    3    3    0    0  0.20196138162E+02  0.21257904262E+01 -0.23184923323E+02  0.30821155901E+02  0.00000000000E+00 0.  1.
</event>
<event>
 7    1  0.7596051E-010  0.4778727E+02  0.7816164E-02  0.1312668E+00
        -11   -1    0    0    0    0  0.00000000000E+00  0.00000000000E+00  0.45593999997E+02  0.45594000000E+02  0.51100000000E-03 0. -1.
         11   -1    0    0    0    0 -0.00000000000E+00 -0.00000000000E+00 -0.45593999997E+02  0.45594000000E+02  0.51100000000E-03 0.  1.
    9900012    2    1    2    0    0  0.15756852337E+01  0.14057293609E+02  0.41030877154E+02  0.47787272269E+02  0.20000005585E+02 0.  0.
        -12    1    1    2    0    0 -0.15756852337E+01 -0.14057293609E+02 -0.41030877154E+02  0.43400727731E+02  0.00000000000E+00 0.  1.
         11    1    3    3    0    0 -0.38292350137E+01  0.11487509324E+02  0.20122395908E+02  0.23484819109E+02  0.51100000000E-03 0. -1.
        -11    1    3    3    0    0  0.37622960315E+01  0.59379880723E+01  0.70870980484E+01  0.99820605480E+01  0.51100000000E-03 0.  1.
        -12    1    3    3    0    0  0.16426242159E+01 -0.33682037878E+01  0.13821383198E+02  0.14320392612E+02  0.00000000000E+00 0.  1.
</event>
<event>
 7    1  0.7596051E-010  0.4778727E+02  0.7816164E-02  0.1312668E+00
        -11   -1    0    0    0    0  0.00000000000E+00  0.00000000000E+00  0.45593999997E+02  0.45594000000E+02  0.51100000000E-03 0. -1.
         11   -1    0    0    0    0 -0.00000000000E+00 -0.00000000000E+00 -0.45593999997E+02  0.45594000000E+02  0.51100000000E-03 0.  1.
    9900012    2    1    2    0    0  0.22106397593E+02 -0.31753085702E+01  0.37213545882E+02  0.47787269636E+02  0.19999993578E+02 0.  0.
        -12    1    1    2    0    0 -0.22106397593E+02  0.31753085702E+01 -0.37213545882E+02  0.43400730364E+02  0.00000000000E+00 0.  1.
         11    1    3    3    0    0 -0.51862173873E-01 -0.60220628165E+01  0.59134976664E+01  0.84402242365E+01  0.51100000000E-03 0. -1.
        -11    1    3    3    0    0  0.28667706103E+01 -0.14043724347E+01  0.13434210654E+01  0.34634399212E+01  0.51100000000E-03 0.  1.
         12    1    3    3    0    0  0.19291489156E+02  0.42511266811E+01  0.29956627150E+02  0.35883605478E+02  0.00000000000E+00 0. -1.
</event>
<event>
 7    1  0.7596051E-010  0.4778726E+02  0.7816164E-02  0.1312668E+00
        -11   -1    0    0    0    0  0.00000000000E+00  0.00000000000E+00  0.45593999997E+02  0.45594000000E+02  0.51100000000E-03 0. -1.
         11   -1    0    0    0    0 -0.00000000000E+00 -0.00000000000E+00 -0.45593999997E+02  0.45594000000E+02  0.51100000000E-03 0.  1.
    9900012    2    1    2    0    0 -0.23969654363E+02 -0.15748459818E+00 -0.36180869278E+02  0.47787257686E+02  0.19999939095E+02 0.  0.
         12    1    1    2    0    0  0.23969654363E+02  0.15748459818E+00  0.36180869278E+02  0.43400742314E+02  0.00000000000E+00 0. -1.
         11    1    3    3    0    0  0.11931467678E+01 -0.29107103024E+00 -0.86399904561E-01  0.12311729199E+01  0.51100000000E-03 0. -1.
        -11    1    3    3    0    0 -0.18463286658E+02  0.66401459386E+01 -0.20482695012E+02  0.28364154976E+02  0.51100000000E-03 0.  1.
        -12    1    3    3    0    0 -0.66995144723E+01 -0.65065595066E+01 -0.15611774362E+02  0.18191929790E+02  0.00000000000E+00 0.  1.
</event>
<event>
 7    1  0.7596051E-010  0.4778727E+02  0.7816164E-02  0.1312668E+00
        -11   -1    0    0    0    0  0.00000000000E+00  0.00000000000E+00  0.45593999997E+02  0.45594000000E+02  0.51100000000E-03 0. -1.
         11   -1    0    0    0    0 -0.00000000000E+00 -0.00000000000E+00 -0.45593999997E+02  0.45594000000E+02  0.51100000000E-03 0.  1.
    9900012    2    1    2    0    0  0.25952633170E+02 -0.31796943294E+02  0.14108089895E+02  0.47787274524E+02  0.20000015866E+02 0.  0.
        -12    1    1    2    0    0 -0.25952633170E+02  0.31796943294E+02 -0.14108089895E+02  0.43400725476E+02  0.00000000000E+00 0.  1.
         11    1    3    3    0    0  0.65338005144E+00 -0.50413497237E+01  0.45891328500E+01  0.68485219649E+01  0.51100000000E-03 0. -1.
        -11    1    3    3    0    0  0.13115580133E+02 -0.23218631989E+02  0.34963881380E+01  0.26895130487E+02  0.51100000000E-03 0.  1.
        -12    1    3    3    0    0  0.12183672986E+02 -0.35369615815E+01  0.60225689071E+01  0.14043622072E+02  0.00000000000E+00 0.  1.
</event>
<event>
 7    1  0.7596051E-010  0.4778728E+02  0.7816164E-02  0.1312668E+00
        -11   -1    0    0    0    0  0.00000000000E+00  0.00000000000E+00  0.45593999997E+02  0.45594000000E+02  0.51100000000E-03 0. -1.
         11   -1    0    0    0    0 -0.00000000000E+00 -0.00000000000E+00 -0.45593999997E+02  0.45594000000E+02  0.51100000000E-03 0.  1.
    9900012    2    1    2    0    0  0.24705017433E+02 -0.23697792205E+02 -0.26677690698E+02  0.47787280850E+02  0.20000044709E+02 0.  0.
         12    1    1    2    0    0 -0.24705017433E+02  0.23697792205E+02  0.26677690698E+02  0.43400719150E+02  0.00000000000E+00 0. -1.
         11    1    3    3    0    0  0.24597847621E+01 -0.61775332330E+00 -0.41729129416E+01  0.48831714002E+01  0.51100000000E-03 0. -1.
        -11    1    3    3    0    0  0.20595386515E+02 -0.14139487518E+02 -0.88571762663E+01  0.26505558372E+02  0.51100000000E-03 0.  1.
        -12    1    3    3    0    0  0.16498461564E+01 -0.89405513640E+01 -0.13647601490E+02  0.16398551078E+02  0.00000000000E+00 0.  1.
</event>
<event>
 7    1  0.7596051E-010  0.4778728E+02  0.7816164E-02  0.1312668E+00
        -11   -1    0    0    0    0  0.00000000000E+00  0.00000000000E+00  0.45593999997E+02  0.45594000000E+02  0.51100000000E-03 0. -1.
         11   -1    0    0    0    0 -0.00000000000E+00 -0.00000000000E+00 -0.45593999997E+02  0.45594000000E+02  0.51100000000E-03 0.  1.
    9900012    2    1    2    0    0  0.35478637265E+01  0.27280811157E+02  0.33567733254E+02  0.47787277538E+02  0.20000029605E+02 0.  0.
        -12    1    1    2    0    0 -0.35478637265E+01 -0.27280811157E+02 -0.33567733254E+02  0.43400722462E+02  0.00000000000E+00 0.  1.
         11    1    3    3    0    0  0.43064411712E+00  0.72419118688E+01  0.10810304593E+02  0.13018964149E+02  0.51100000000E-03 0. -1.
        -11    1    3    3    0    0 -0.55526261541E+01  0.71608550731E+01  0.28008549732E+01  0.94844236213E+01  0.51100000000E-03 0.  1.
        -12    1    3    3    0    0  0.86698457636E+01  0.12878044215E+02  0.19956573688E+02  0.25283889767E+02  0.00000000000E+00 0.  1.
</event>
<event>
 7    1  0.7596051E-010  0.4778727E+02  0.7816164E-02  0.1312668E+00
        -11   -1    0    0    0    0  0.00000000000E+00  0.00000000000E+00  0.45593999997E+02  0.45594000000E+02  0.51100000000E-03 0. -1.
         11   -1    0    0    0    0 -0.00000000000E+00 -0.00000000000E+00 -0.45593999997E+02  0.45594000000E+02  0.51100000000E-03 0.  1.
    9900012    2    1    2    0    0 -0.25144968556E+00  0.51424708027E+01  0.43094257107E+02  0.47787271567E+02  0.20000002382E+02 0.  0.
        -12    1    1    2    0    0  0.25144968556E+00 -0.51424708027E+01 -0.43094257107E+02  0.43400728433E+02  0.00000000000E+00 0.  1.
         11    1    3    3    0    0 -0.83156925071E+00  0.76899948433E+00  0.20106449253E+02  0.20138325885E+02  0.51100000000E-03 0. -1.
        -11    1    3    3    0    0 -0.18181818286E+01  0.83122789552E+01  0.20940899926E+02  0.22603562917E+02  0.51100000000E-03 0.  1.
        -12    1    3    3    0    0  0.23983013938E+01 -0.39388076368E+01  0.20469079290E+01  0.50453827650E+01  0.00000000000E+00 0.  1.
</event>
<event>
 7    1  0.7596051E-010  0.4778727E+02  0.7816164E-02  0.1312668E+00
        -11   -1    0    0    0    0  0.00000000000E+00  0.00000000000E+00  0.45593999997E+02  0.45594000000E+02  0.51100000000E-03 0. -1.
         11   -1    0    0    0    0 -0.00000000000E+00 -0.00000000000E+00 -0.45593999997E+02  0.45594000000E+02  0.51100000000E-03 0.  1.
    9900012    2    1    2    0    0 -0.16972625992E+00 -0.47716395276E+01 -0.43137293523E+02  0.47787269093E+02  0.19999991103E+02 0.  0.
         12    1    1    2    0    0  0.16972625992E+00  0.47716395276E+01  0.43137293523E+02  0.43400730907E+02  0.00000000000E+00 0. -1.
         11    1    3    3    0    0  0.51580552022E+01 -0.30003813094E+01 -0.91356714619E+01  0.10911842869E+02  0.51100000000E-03 0. -1.
        -11    1    3    3    0    0  0.39884766674E+00 -0.63881275098E+01 -0.11004768869E+02  0.12730757663E+02  0.51100000000E-03 0.  1.
        -12    1    3    3    0    0 -0.57266291289E+01  0.46168692916E+01 -0.22996853192E+02  0.24144668562E+02  0.00000000000E+00 0.  1.
</event>
<event>
 7    1  0.7596051E-010  0.4778727E+02  0.7816164E-02  0.1312668E+00
        -11   -1    0    0    0    0  0.00000000000E+00  0.00000000000E+00  0.45593999997E+02  0.45594000000E+02  0.51100000000E-03 0.  1.
         11   -1    0    0    0    0 -0.00000000000E+00 -0.00000000000E+00 -0.45593999997E+02  0.45594000000E+02  0.51100000000E-03 0. -1.
    9900012    2    1    2    0    0  0.26411355100E+02 -0.27720809452E+02  0.20435766020E+02  0.47787268581E+02  0.19999988768E+02 0.  0.
         12    1    1    2    0    0 -0.26411355100E+02  0.27720809452E+02 -0.20435766020E+02  0.43400731419E+02  0.00000000000E+00 0. -1.
         11    1    3    3    0    0  0.16910084097E+02 -0.15201217349E+02  0.58697890956E+01  0.23483661924E+02  0.51100000000E-03 0. -1.
        -11    1    3    3    0    0  0.70617620274E+01 -0.14519565573E+02  0.10969153686E+02  0.19519441596E+02  0.51100000000E-03 0.  1.
         12    1    3    3    0    0  0.24395089755E+01  0.19999734706E+01  0.35968232382E+01  0.47841650610E+01  0.00000000000E+00 0. -1.
</event>
<event>
 7    1  0.7596051E-010  0.4778727E+02  0.7816164E-02  0.1312668E+00
        -11   -1    0    0    0    0  0.00000000000E+00  0.00000000000E+00  0.45593999997E+02  0.45594000000E+02  0.51100000000E-03 0. -1.
         11   -1    0    0    0    0 -0.00000000000E+00 -0.00000000000E+00 -0.45593999997E+02  0.45594000000E+02  0.51100000000E-03 0.  1.
    9900012    2    1    2    0    0  0.15373478532E+02 -0.38807359953E+02  0.11885625084E+02  0.47787272905E+02  0.20000008485E+02 0.  0.
        -12    1    1    2    0    0 -0.15373478532E+02  0.38807359953E+02 -0.11885625084E+02  0.43400727095E+02  0.00000000000E+00 0.  1.
         11    1    3    3    0    0  0.40914831349E+01 -0.10399572845E+02  0.60143684507E+01  0.12691098365E+02  0.51100000000E-03 0. -1.
        -11    1    3    3    0    0  0.11763581497E+02 -0.27498717578E+02  0.79820774903E+00  0.29919867211E+02  0.51100000000E-03 0.  1.
        -12    1    3    3    0    0 -0.48158609998E+00 -0.90906953047E+00  0.50730488841E+01  0.51763073290E+01  0.00000000000E+00 0.  1.
</event>
<event>
 7    1  0.7596051E-010  0.4778728E+02  0.7816164E-02  0.1312668E+00
        -11   -1    0    0    0    0  0.00000000000E+00  0.00000000000E+00  0.45593999997E+02  0.45594000000E+02  0.51100000000E-03 0. -1.
         11   -1    0    0    0    0 -0.00000000000E+00 -0.00000000000E+00 -0.45593999997E+02  0.45594000000E+02  0.51100000000E-03 0.  1.
    9900012    2    1    2    0    0  0.17036887844E+02  0.83139100330E+01 -0.39041591006E+02  0.47787280240E+02  0.20000041925E+02 0.  0.
         12    1    1    2    0    0 -0.17036887844E+02 -0.83139100330E+01  0.39041591006E+02  0.43400719760E+02  0.00000000000E+00 0. -1.
         11    1    3    3    0    0  0.32465886722E+01  0.64370587863E+01 -0.44548530567E+01  0.84747731440E+01  0.51100000000E-03 0. -1.
        -11    1    3    3    0    0  0.83174780142E+01  0.56697654961E+01 -0.11492873071E+02  0.15277853677E+02  0.51100000000E-03 0.  1.
        -12    1    3    3    0    0  0.54728211579E+01 -0.37929142494E+01 -0.23093864878E+02  0.24034653418E+02  0.00000000000E+00 0.  1.
</event>
<event>
 7    1  0.7596051E-010  0.4778728E+02  0.7816164E-02  0.1312668E+00
        -11   -1    0    0    0    0  0.00000000000E+00  0.00000000000E+00  0.45593999997E+02  0.45594000000E+02  0.51100000000E-03 0. -1.
         11   -1    0    0    0    0 -0.00000000000E+00 -0.00000000000E+00 -0.45593999997E+02  0.45594000000E+02  0.51100000000E-03 0.  1.
    9900012    2    1    2    0    0  0.24575585976E+02  0.85771928235E+01 -0.34728870233E+02  0.47787284678E+02  0.20000062161E+02 0.  0.
         12    1    1    2    0    0 -0.24575585976E+02 -0.85771928235E+01  0.34728870233E+02  0.43400715322E+02  0.00000000000E+00 0. -1.
         11    1    3    3    0    0  0.12307118622E-01  0.12405127033E+01 -0.40898750995E+01  0.42738860330E+01  0.51100000000E-03 0. -1.
        -11    1    3    3    0    0  0.13908950971E+02 -0.32717002800E+01 -0.21822035009E+02  0.26083790983E+02  0.51100000000E-03 0.  1.
         12    1    3    3    0    0  0.10654327887E+02  0.10608380400E+02 -0.88169601240E+01  0.17429607662E+02  0.00000000000E+00 0. -1.
</event>
<event>
 7    1  0.7596051E-010  0.4778727E+02  0.7816164E-02  0.1312668E+00
        -11   -1    0    0    0    0  0.00000000000E+00  0.00000000000E+00  0.45593999997E+02  0.45594000000E+02  0.51100000000E-03 0. -1.
         11   -1    0    0    0    0 -0.00000000000E+00 -0.00000000000E+00 -0.45593999997E+02  0.45594000000E+02  0.51100000000E-03 0.  1.
    9900012    2    1    2    0    0 -0.41792946496E+02  0.34071059871E+01  0.11196650002E+02  0.47787265913E+02  0.19999976603E+02 0.  0.
        -12    1    1    2    0    0  0.41792946496E+02 -0.34071059871E+01 -0.11196650002E+02  0.43400734087E+02  0.00000000000E+00 0.  1.
         11    1    3    3    0    0 -0.18812843347E+02  0.49882788312E+01  0.94680622296E+01  0.21643710476E+02  0.51100000000E-03 0. -1.
        -11    1    3    3    0    0 -0.96111406194E+01 -0.46526512645E+01  0.53684016217E+01  0.11951607592E+02  0.51100000000E-03 0.  1.
        -12    1    3    3    0    0 -0.13368962529E+02  0.30714784204E+01 -0.36398138488E+01  0.14191947846E+02  0.00000000000E+00 0.  1.
</event>
<event>
 7    1  0.7596051E-010  0.4778727E+02  0.7816164E-02  0.1312668E+00
        -11   -1    0    0    0    0  0.00000000000E+00  0.00000000000E+00  0.45593999997E+02  0.45594000000E+02  0.51100000000E-03 0.  1.
         11   -1    0    0    0    0 -0.00000000000E+00 -0.00000000000E+00 -0.45593999997E+02  0.45594000000E+02  0.51100000000E-03 0. -1.
    9900012    2    1    2    0    0 -0.48392619789E+01 -0.40046006783E+02  0.16016306647E+02  0.47787271961E+02  0.20000004177E+02 0.  0.
        -12    1    1    2    0    0  0.48392619789E+01  0.40046006783E+02 -0.16016306647E+02  0.43400728039E+02  0.00000000000E+00 0.  1.
         11    1    3    3    0    0 -0.87814521297E+01 -0.36618193369E+02  0.99185688099E+01  0.38940775475E+02  0.51100000000E-03 0. -1.
        -11    1    3    3    0    0  0.19846231779E+01 -0.28547865680E+01  0.14428914505E+01  0.37643686730E+01  0.51100000000E-03 0.  1.
        -12    1    3    3    0    0  0.19575669728E+01 -0.57302684551E+00  0.46548463866E+01  0.50821278124E+01  0.00000000000E+00 0.  1.
</event>
<event>
 7    1  0.7596051E-010  0.4778727E+02  0.7816164E-02  0.1312668E+00
        -11   -1    0    0    0    0  0.00000000000E+00  0.00000000000E+00  0.45593999997E+02  0.45594000000E+02  0.51100000000E-03 0.  1.
         11   -1    0    0    0    0 -0.00000000000E+00 -0.00000000000E+00 -0.45593999997E+02  0.45594000000E+02  0.51100000000E-03 0. -1.
    9900012    2    1    2    0    0  0.23884774816E+02 -0.34385567357E+02  0.11435628834E+02  0.47787270544E+02  0.19999997719E+02 0.  0.
         12    1    1    2    0    0 -0.23884774816E+02  0.34385567357E+02 -0.11435628834E+02  0.43400729456E+02  0.00000000000E+00 0. -1.
         11    1    3    3    0    0  0.14524324514E+02 -0.11193358307E+02  0.78266665861E+01  0.19937501922E+02  0.51100000000E-03 0. -1.
        -11    1    3    3    0    0  0.64537788232E+01 -0.12832840924E+02  0.77491973739E+01  0.16321247731E+02  0.51100000000E-03 0.  1.
         12    1    3    3    0    0  0.29066714795E+01 -0.10359368125E+02 -0.41402351265E+01  0.11528520892E+02  0.00000000000E+00 0. -1.
</event>
<event>
 7    1  0.7596051E-010  0.4778727E+02  0.7816164E-02  0.1312668E+00
        -11   -1    0    0    0    0  0.00000000000E+00  0.00000000000E+00  0.45593999997E+02  0.45594000000E+02  0.51100000000E-03 0. -1.
         11   -1    0    0    0    0 -0.00000000000E+00 -0.00000000000E+00 -0.45593999997E+02  0.45594000000E+02  0.51100000000E-03 0.  1.
    9900012    2    1    2    0    0 -0.10931689771E+02 -0.41510868039E+02 -0.64007252082E+01  0.47787270861E+02  0.19999999164E+02 0.  0.
         12    1    1    2    0    0  0.10931689771E+02  0.41510868039E+02  0.64007252082E+01  0.43400729139E+02  0.00000000000E+00 0. -1.
         11    1    3    3    0    0 -0.41695483389E+01 -0.99295685150E+01 -0.31354279045E+01  0.11216611460E+02  0.51100000000E-03 0. -1.
        -11    1    3    3    0    0 -0.29273553773E+01 -0.32328419312E+02 -0.35454853002E+01  0.32653737474E+02  0.51100000000E-03 0.  1.
         12    1    3    3    0    0 -0.38347860551E+01  0.74711978856E+00  0.28018799660E+00  0.39169219267E+01  0.00000000000E+00 0. -1.
</event>
<event>
 7    1  0.7596051E-010  0.4778727E+02  0.7816164E-02  0.1312668E+00
        -11   -1    0    0    0    0  0.00000000000E+00  0.00000000000E+00  0.45593999997E+02  0.45594000000E+02  0.51100000000E-03 0. -1.
         11   -1    0    0    0    0 -0.00000000000E+00 -0.00000000000E+00 -0.45593999997E+02  0.45594000000E+02  0.51100000000E-03 0.  1.
    9900012    2    1    2    0    0  0.29694393551E+02 -0.30146844864E+01 -0.31508382440E+02  0.47787268498E+02  0.19999988392E+02 0.  0.
         12    1    1    2    0    0 -0.29694393551E+02  0.30146844864E+01  0.31508382440E+02  0.43400731502E+02  0.00000000000E+00 0. -1.
         11    1    3    3    0    0  0.27977318799E+02 -0.34947323977E+01 -0.18611703264E+02  0.33783709393E+02  0.51100000000E-03 0.  1.
        -11    1    3    3    0    0 -0.15157253751E+00 -0.16108759147E+00  0.45531767681E+00  0.50619946088E+00  0.51100000000E-03 0. -1.
        -12    1    3    3    0    0  0.18686472896E+01  0.64113550277E+00 -0.13351996852E+02  0.13497359644E+02  0.00000000000E+00 0.  1.
</event>
<event>
 7    1  0.7596051E-010  0.4778728E+02  0.7816164E-02  0.1312668E+00
        -11   -1    0    0    0    0  0.00000000000E+00  0.00000000000E+00  0.45593999997E+02  0.45594000000E+02  0.51100000000E-03 0. -1.
         11   -1    0    0    0    0 -0.00000000000E+00 -0.00000000000E+00 -0.45593999997E+02  0.45594000000E+02  0.51100000000E-03 0.  1.
    9900012    2    1    2    0    0  0.62650654317E+01 -0.40557700935E+02  0.14122476430E+02  0.47787280069E+02  0.20000041148E+02 0.  0.
        -12    1    1    2    0    0 -0.62650654317E+01  0.40557700935E+02 -0.14122476430E+02  0.43400719931E+02  0.00000000000E+00 0.  1.
         11    1    3    3    0    0  0.53209416520E+01 -0.38077233657E+01  0.19155457388E+01  0.68176603782E+01  0.51100000000E-03 0. -1.
        -11    1    3    3    0    0  0.42450139676E+01 -0.10606608776E+02  0.87552896167E+01  0.14393588498E+02  0.51100000000E-03 0.  1.
         12    1    3    3    0    0 -0.33008901879E+01 -0.26143368793E+02  0.34516410745E+01  0.26576031193E+02  0.00000000000E+00 0. -1.
</event>
<event>
 7    1  0.7596051E-010  0.4778727E+02  0.7816164E-02  0.1312668E+00
        -11   -1    0    0    0    0  0.00000000000E+00  0.00000000000E+00  0.45593999997E+02  0.45594000000E+02  0.51100000000E-03 0. -1.
         11   -1    0    0    0    0 -0.00000000000E+00 -0.00000000000E+00 -0.45593999997E+02  0.45594000000E+02  0.51100000000E-03 0.  1.
    9900012    2    1    2    0    0 -0.31734854723E+02  0.22440228535E+02 -0.19312129709E+02  0.47787271723E+02  0.20000003096E+02 0.  0.
         12    1    1    2    0    0  0.31734854723E+02 -0.22440228535E+02  0.19312129709E+02  0.43400728277E+02  0.00000000000E+00 0. -1.
         11    1    3    3    0    0 -0.10009757701E+01  0.65146697173E+01 -0.87446666546E+00  0.66488770652E+01  0.51100000000E-03 0.  1.
        -11    1    3    3    0    0 -0.89554366182E+01  0.89974333668E+01 -0.16936436685E+01  0.12807110578E+02  0.51100000000E-03 0. -1.
        -12    1    3    3    0    0 -0.21778442335E+02  0.69281254511E+01 -0.16744019375E+02  0.28331284081E+02  0.00000000000E+00 0.  1.
</event>
<event>
 7    1  0.7596051E-010  0.4778727E+02  0.7816164E-02  0.1312668E+00
        -11   -1    0    0    0    0  0.00000000000E+00  0.00000000000E+00  0.45593999997E+02  0.45594000000E+02  0.51100000000E-03 0. -1.
         11   -1    0    0    0    0 -0.00000000000E+00 -0.00000000000E+00 -0.45593999997E+02  0.45594000000E+02  0.51100000000E-03 0.  1.
    9900012    2    1    2    0    0  0.13104869523E+02  0.28151044794E+02 -0.30321682324E+02  0.47787270200E+02  0.19999996151E+02 0.  0.
         12    1    1    2    0    0 -0.13104869523E+02 -0.28151044794E+02  0.30321682324E+02  0.43400729800E+02  0.00000000000E+00 0. -1.
         11    1    3    3    0    0  0.28291372044E+01  0.13624629449E+02 -0.96383466967E+01  0.16927264169E+02  0.51100000000E-03 0. -1.
        -11    1    3    3    0    0  0.67419637442E+01  0.15898908980E+02 -0.11035716144E+02  0.20494301964E+02  0.51100000000E-03 0.  1.
         12    1    3    3    0    0  0.35337685747E+01 -0.13724936360E+01 -0.96476194830E+01  0.10365704067E+02  0.00000000000E+00 0. -1.
</event>
<event>
 7    1  0.7596051E-010  0.4778727E+02  0.7816164E-02  0.1312668E+00
        -11   -1    0    0    0    0  0.00000000000E+00  0.00000000000E+00  0.45593999997E+02  0.45594000000E+02  0.51100000000E-03 0. -1.
         11   -1    0    0    0    0 -0.00000000000E+00 -0.00000000000E+00 -0.45593999997E+02  0.45594000000E+02  0.51100000000E-03 0.  1.
    9900012    2    1    2    0    0 -0.64919523082E+01 -0.53745678821E+01  0.42574547632E+02  0.47787268085E+02  0.19999986508E+02 0.  0.
        -12    1    1    2    0    0  0.64919523082E+01  0.53745678821E+01 -0.42574547632E+02  0.43400731915E+02  0.00000000000E+00 0.  1.
         11    1    3    3    0    0 -0.11147109167E+02 -0.81502787218E+01  0.25027772564E+02  0.28584514791E+02  0.51100000000E-03 0. -1.
        -11    1    3    3    0    0 -0.90568022764E+00  0.19464945041E+01  0.56566705012E+01  0.60503734554E+01  0.51100000000E-03 0.  1.
         12    1    3    3    0    0  0.55608370869E+01  0.82921633567E+00  0.11890104566E+02  0.13152379839E+02  0.00000000000E+00 0. -1.
</event>
<event>
 7    1  0.7596051E-010  0.4778727E+02  0.7816164E-02  0.1312668E+00
        -11   -1    0    0    0    0  0.00000000000E+00  0.00000000000E+00  0.45593999997E+02  0.45594000000E+02  0.51100000000E-03 0. -1.
         11   -1    0    0    0    0 -0.00000000000E+00 -0.00000000000E+00 -0.45593999997E+02  0.45594000000E+02  0.51100000000E-03 0.  1.
    9900012    2    1    2    0    0  0.25921074912E+02  0.36549217346E+01 -0.34617378036E+02  0.47787269135E+02  0.19999991295E+02 0.  0.
         12    1    1    2    0    0 -0.25921074912E+02 -0.36549217346E+01  0.34617378036E+02  0.43400730865E+02  0.00000000000E+00 0. -1.
         11    1    3    3    0    0  0.14906149903E+01  0.23042938233E+01 -0.36718381266E+01  0.45841137161E+01  0.51100000000E-03 0. -1.
        -11    1    3    3    0    0  0.84725650117E+01  0.90172667896E+01 -0.14197013752E+02  0.18832170825E+02  0.51100000000E-03 0.  1.
         12    1    3    3    0    0  0.15957894910E+02 -0.76666388783E+01 -0.16748526157E+02  0.24370984594E+02  0.00000000000E+00 0. -1.
</event>
<event>
 7    1  0.7596051E-010  0.4778727E+02  0.7816164E-02  0.1312668E+00
        -11   -1    0    0    0    0  0.00000000000E+00  0.00000000000E+00  0.45593999997E+02  0.45594000000E+02  0.51100000000E-03 0. -1.
         11   -1    0    0    0    0 -0.00000000000E+00 -0.00000000000E+00 -0.45593999997E+02  0.45594000000E+02  0.51100000000E-03 0.  1.
    9900012    2    1    2    0    0  0.78661554889E+01 -0.26713679016E+02  0.33288528853E+02  0.47787271873E+02  0.20000003778E+02 0.  0.
        -12    1    1    2    0    0 -0.78661554889E+01  0.26713679016E+02 -0.33288528853E+02  0.43400728127E+02  0.00000000000E+00 0.  1.
         11    1    3    3    0    0  0.99097256724E+01 -0.21532446731E+02  0.17062323886E+02  0.29205681327E+02  0.51100000000E-03 0. -1.
        -11    1    3    3    0    0 -0.16153054909E+01 -0.13312140137E+01  0.21010882315E+00  0.21036845196E+01  0.51100000000E-03 0.  1.
        -12    1    3    3    0    0 -0.42826469259E+00 -0.38500182715E+01  0.16016096143E+02  0.16477906026E+02  0.00000000000E+00 0.  1.
</event>
<event>
 7    1  0.7596051E-010  0.4778727E+02  0.7816164E-02  0.1312668E+00
        -11   -1    0    0    0    0  0.00000000000E+00  0.00000000000E+00  0.45593999997E+02  0.45594000000E+02  0.51100000000E-03 0. -1.
         11   -1    0    0    0    0 -0.00000000000E+00 -0.00000000000E+00 -0.45593999997E+02  0.45594000000E+02  0.51100000000E-03 0.  1.
    9900012    2    1    2    0    0 -0.23111568579E+02 -0.35290112215E+02  0.10202280683E+02  0.47787272431E+02  0.20000006324E+02 0.  0.
        -12    1    1    2    0    0  0.23111568579E+02  0.35290112215E+02 -0.10202280683E+02  0.43400727569E+02  0.00000000000E+00 0.  1.
         11    1    3    3    0    0 -0.23190686705E+01 -0.19011183569E+02  0.78128195242E+01  0.20684374039E+02  0.51100000000E-03 0. -1.
        -11    1    3    3    0    0 -0.62835202718E+01 -0.75649027032E+01  0.26180820235E+01  0.10176675963E+02  0.51100000000E-03 0.  1.
        -12    1    3    3    0    0 -0.14508979637E+02 -0.87140259430E+01 -0.22862086505E+00  0.16926222430E+02  0.00000000000E+00 0.  1.
</event>
<event>
 7    1  0.7596051E-010  0.4778732E+02  0.7816164E-02  0.1312668E+00
        -11   -1    0    0    0    0  0.00000000000E+00  0.00000000000E+00  0.45593999997E+02  0.45594000000E+02  0.51100000000E-03 0. -1.
         11   -1    0    0    0    0 -0.00000000000E+00 -0.00000000000E+00 -0.45593999997E+02  0.45594000000E+02  0.51100000000E-03 0.  1.
    9900012    2    1    2    0    0 -0.28242628544E+02 -0.83679188372E+01 -0.31873980491E+02  0.47787322988E+02  0.20000236828E+02 0.  0.
         12    1    1    2    0    0  0.28242628544E+02  0.83679188372E+01  0.31873980491E+02  0.43400677012E+02  0.00000000000E+00 0. -1.
         11    1    3    3    0    0 -0.13921101839E+02 -0.18486177645E+01 -0.17128636122E+02  0.22149596829E+02  0.51100000000E-03 0. -1.
        -11    1    3    3    0    0 -0.24676303610E+01 -0.85850941006E+01 -0.59381560306E+01  0.10726357146E+02  0.51100000000E-03 0.  1.
         12    1    3    3    0    0 -0.11853896345E+02  0.20657930280E+01 -0.88071883387E+01  0.14911369012E+02  0.00000000000E+00 0. -1.
</event>
<event>
 7    1  0.7596051E-010  0.4778727E+02  0.7816164E-02  0.1312668E+00
        -11   -1    0    0    0    0  0.00000000000E+00  0.00000000000E+00  0.45593999997E+02  0.45594000000E+02  0.51100000000E-03 0. -1.
         11   -1    0    0    0    0 -0.00000000000E+00 -0.00000000000E+00 -0.45593999997E+02  0.45594000000E+02  0.51100000000E-03 0.  1.
    9900012    2    1    2    0    0  0.79918540826E+01  0.89143935057E-01  0.42658475884E+02  0.47787271399E+02  0.20000001618E+02 0.  0.
        -12    1    1    2    0    0 -0.79918540826E+01 -0.89143935057E-01 -0.42658475884E+02  0.43400728601E+02  0.00000000000E+00 0.  1.
         11    1    3    3    0    0  0.30964422322E+01 -0.11434682242E+01  0.18781667362E+02  0.19069517646E+02  0.51100000000E-03 0. -1.
        -11    1    3    3    0    0 -0.38494214197E+01  0.20463718199E+01  0.17037016598E+02  0.17585949440E+02  0.51100000000E-03 0.  1.
        -12    1    3    3    0    0  0.87448332701E+01 -0.81375966055E+00  0.68397919239E+01  0.11131804313E+02  0.00000000000E+00 0.  1.
</event>
<event>
 7    1  0.7596051E-010  0.4778727E+02  0.7816164E-02  0.1312668E+00
        -11   -1    0    0    0    0  0.00000000000E+00  0.00000000000E+00  0.45593999997E+02  0.45594000000E+02  0.51100000000E-03 0. -1.
         11   -1    0    0    0    0 -0.00000000000E+00 -0.00000000000E+00 -0.45593999997E+02  0.45594000000E+02  0.51100000000E-03 0.  1.
    9900012    2    1    2    0    0 -0.67847334152E+01 -0.13129659117E+02  0.40806894149E+02  0.47787272286E+02  0.20000005662E+02 0.  0.
        -12    1    1    2    0    0  0.67847334152E+01  0.13129659117E+02 -0.40806894149E+02  0.43400727714E+02  0.00000000000E+00 0.  1.
         11    1    3    3    0    0 -0.92855050877E+01 -0.72786273677E+01  0.36206130102E+02  0.38079953759E+02  0.51100000000E-03 0. -1.
        -11    1    3    3    0    0  0.23321561287E+01 -0.34772564902E+00  0.32897330705E+01  0.40474941967E+01  0.51100000000E-03 0.  1.
         12    1    3    3    0    0  0.16861554384E+00 -0.55033061000E+01  0.13110309763E+01  0.56598243305E+01  0.00000000000E+00 0. -1.
</event>
<event>
 7    1  0.7596051E-010  0.4778728E+02  0.7816164E-02  0.1312668E+00
        -11   -1    0    0    0    0  0.00000000000E+00  0.00000000000E+00  0.45593999997E+02  0.45594000000E+02  0.51100000000E-03 0.  1.
         11   -1    0    0    0    0 -0.00000000000E+00 -0.00000000000E+00 -0.45593999997E+02  0.45594000000E+02  0.51100000000E-03 0. -1.
    9900012    2    1    2    0    0 -0.18122368485E+02  0.39190191035E+02 -0.43967657199E+01  0.47787275794E+02  0.20000021654E+02 0.  0.
        -12    1    1    2    0    0  0.18122368485E+02 -0.39190191035E+02  0.43967657199E+01  0.43400724206E+02  0.00000000000E+00 0.  1.
         11    1    3    3    0    0  0.19128994419E+01  0.70405171242E+01 -0.51033240467E+01  0.89034814672E+01  0.51100000000E-03 0.  1.
        -11    1    3    3    0    0 -0.68426015936E+01  0.18086069520E+02 -0.18790926868E+01  0.19428280851E+02  0.51100000000E-03 0. -1.
        -12    1    3    3    0    0 -0.13192666333E+02  0.14063604390E+02  0.25856510135E+01  0.19455513475E+02  0.00000000000E+00 0.  1.
</event>
<event>
 7    1  0.7596051E-010  0.4778727E+02  0.7816164E-02  0.1312668E+00
        -11   -1    0    0    0    0  0.00000000000E+00  0.00000000000E+00  0.45593999997E+02  0.45594000000E+02  0.51100000000E-03 0. -1.
         11   -1    0    0    0    0 -0.00000000000E+00 -0.00000000000E+00 -0.45593999997E+02  0.45594000000E+02  0.51100000000E-03 0.  1.
    9900012    2    1    2    0    0  0.32938171045E+02 -0.26081158524E+02  0.10884541313E+02  0.47787272111E+02  0.20000004863E+02 0.  0.
        -12    1    1    2    0    0 -0.32938171045E+02  0.26081158524E+02 -0.10884541313E+02  0.43400727889E+02  0.00000000000E+00 0.  1.
         11    1    3    3    0    0  0.20615069827E+02 -0.13806106558E+02  0.95966904500E+01  0.26602371137E+02  0.51100000000E-03 0. -1.
        -11    1    3    3    0    0  0.10489263972E+02 -0.13777927726E+02  0.38022973998E+01  0.17728886510E+02  0.51100000000E-03 0.  1.
        -12    1    3    3    0    0  0.18338372456E+01  0.15028757596E+01 -0.25144465371E+01  0.34560144647E+01  0.00000000000E+00 0.  1.
</event>
<event>
 7    1  0.7596051E-010  0.4778726E+02  0.7816164E-02  0.1312668E+00
        -11   -1    0    0    0    0  0.00000000000E+00  0.00000000000E+00  0.45593999997E+02  0.45594000000E+02  0.51100000000E-03 0. -1.
         11   -1    0    0    0    0 -0.00000000000E+00 -0.00000000000E+00 -0.45593999997E+02  0.45594000000E+02  0.51100000000E-03 0.  1.
    9900012    2    1    2    0    0  0.81086043536E+01 -0.42594919347E+01  0.42423241550E+02  0.47787260839E+02  0.19999953470E+02 0.  0.
        -12    1    1    2    0    0 -0.81086043536E+01  0.42594919347E+01 -0.42423241550E+02  0.43400739161E+02  0.00000000000E+00 0.  1.
         11    1    3    3    0    0 -0.81663773025E+00  0.83281224367E+00  0.23510095126E+01  0.26244464950E+01  0.51100000000E-03 0. -1.
        -11    1    3    3    0    0  0.35582190438E+01  0.14986435662E+01 -0.33109665116E+00  0.38751103927E+01  0.51100000000E-03 0.  1.
         12    1    3    3    0    0  0.53670230401E+01 -0.65909477446E+01  0.40403328688E+02  0.41287703951E+02  0.00000000000E+00 0. -1.
</event>
<event>
 7    1  0.7596051E-010  0.4778728E+02  0.7816164E-02  0.1312668E+00
        -11   -1    0    0    0    0  0.00000000000E+00  0.00000000000E+00  0.45593999997E+02  0.45594000000E+02  0.51100000000E-03 0. -1.
         11   -1    0    0    0    0 -0.00000000000E+00 -0.00000000000E+00 -0.45593999997E+02  0.45594000000E+02  0.51100000000E-03 0.  1.
    9900012    2    1    2    0    0 -0.22201120290E+02  0.23173775977E+02  0.29218298650E+02  0.47787278679E+02  0.20000034808E+02 0.  0.
        -12    1    1    2    0    0  0.22201120290E+02 -0.23173775977E+02 -0.29218298650E+02  0.43400721321E+02  0.00000000000E+00 0.  1.
         11    1    3    3    0    0 -0.58783515510E+01  0.80548611410E+01  0.10171607210E+02  0.14244205785E+02  0.51100000000E-03 0. -1.
        -11    1    3    3    0    0 -0.14797175294E+02  0.15082787244E+02  0.21822493879E+02  0.30375452377E+02  0.51100000000E-03 0.  1.
        -12    1    3    3    0    0 -0.15255934450E+01  0.36127592299E-01 -0.27758024385E+01  0.31676205171E+01  0.00000000000E+00 0.  1.
</event>
<event>
 7    1  0.7596051E-010  0.4778727E+02  0.7816164E-02  0.1312668E+00
        -11   -1    0    0    0    0  0.00000000000E+00  0.00000000000E+00  0.45593999997E+02  0.45594000000E+02  0.51100000000E-03 0. -1.
         11   -1    0    0    0    0 -0.00000000000E+00 -0.00000000000E+00 -0.45593999997E+02  0.45594000000E+02  0.51100000000E-03 0.  1.
    9900012    2    1    2    0    0  0.22313107467E+02  0.35799377852E+02  0.10205532774E+02  0.47787272833E+02  0.20000008155E+02 0.  0.
        -12    1    1    2    0    0 -0.22313107467E+02 -0.35799377852E+02 -0.10205532774E+02  0.43400727167E+02  0.00000000000E+00 0.  1.
         11    1    3    3    0    0  0.20209795060E+02  0.24597844739E+02  0.48811218413E+01  0.32207376994E+02  0.51100000000E-03 0. -1.
        -11    1    3    3    0    0  0.17213111359E+01  0.13706485889E+01 -0.22624734618E+01  0.31560063383E+01  0.51100000000E-03 0.  1.
        -12    1    3    3    0    0  0.38200127053E+00  0.98308845247E+01  0.75868843940E+01  0.12423889500E+02  0.00000000000E+00 0.  1.
</event>
<event>
 7    1  0.7596051E-010  0.4778727E+02  0.7816164E-02  0.1312668E+00
        -11   -1    0    0    0    0  0.00000000000E+00  0.00000000000E+00  0.45593999997E+02  0.45594000000E+02  0.51100000000E-03 0. -1.
         11   -1    0    0    0    0 -0.00000000000E+00 -0.00000000000E+00 -0.45593999997E+02  0.45594000000E+02  0.51100000000E-03 0.  1.
    9900012    2    1    2    0    0  0.11615852375E+02  0.36903165068E+02  0.19668544845E+02  0.47787271034E+02  0.19999999953E+02 0.  0.
        -12    1    1    2    0    0 -0.11615852375E+02 -0.36903165068E+02 -0.19668544845E+02  0.43400728966E+02  0.00000000000E+00 0.  1.
         11    1    3    3    0    0  0.51561190265E+01  0.14199896563E+02  0.30307900423E+01  0.15408060045E+02  0.51100000000E-03 0. -1.
        -11    1    3    3    0    0  0.85432575419E+01  0.13362591696E+02  0.36992275028E+01  0.16285895451E+02  0.51100000000E-03 0.  1.
         12    1    3    3    0    0 -0.20835241929E+01  0.93406768087E+01  0.12938527300E+02  0.16093315537E+02  0.00000000000E+00 0. -1.
</event>
<event>
 7    1  0.7596051E-010  0.4778727E+02  0.7816164E-02  0.1312668E+00
        -11   -1    0    0    0    0  0.00000000000E+00  0.00000000000E+00  0.45593999997E+02  0.45594000000E+02  0.51100000000E-03 0.  1.
         11   -1    0    0    0    0 -0.00000000000E+00 -0.00000000000E+00 -0.45593999997E+02  0.45594000000E+02  0.51100000000E-03 0. -1.
    9900012    2    1    2    0    0 -0.18210713524E+02 -0.34050808325E+02 -0.19812518803E+02  0.47787268025E+02  0.19999986234E+02 0.  0.
         12    1    1    2    0    0  0.18210713524E+02  0.34050808325E+02  0.19812518803E+02  0.43400731975E+02  0.00000000000E+00 0. -1.
         11    1    3    3    0    0  0.10464852661E+01 -0.94677237296E+01  0.81276755654E+00  0.95599955750E+01  0.51100000000E-03 0. -1.
        -11    1    3    3    0    0 -0.42691018288E+01 -0.55208902059E+01 -0.10381722283E+01  0.70557254005E+01  0.51100000000E-03 0.  1.
        -12    1    3    3    0    0 -0.14988096962E+02 -0.19062194389E+02 -0.19587114132E+02  0.31171547050E+02  0.00000000000E+00 0.  1.
</event>
<event>
 7    1  0.7596051E-010  0.4778727E+02  0.7816164E-02  0.1312668E+00
        -11   -1    0    0    0    0  0.00000000000E+00  0.00000000000E+00  0.45593999997E+02  0.45594000000E+02  0.51100000000E-03 0. -1.
         11   -1    0    0    0    0 -0.00000000000E+00 -0.00000000000E+00 -0.45593999997E+02  0.45594000000E+02  0.51100000000E-03 0.  1.
    9900012    2    1    2    0    0 -0.30974387479E+02 -0.23486031234E+02  0.19303286073E+02  0.47787271941E+02  0.20000004086E+02 0.  0.
        -12    1    1    2    0    0  0.30974387479E+02  0.23486031234E+02 -0.19303286073E+02  0.43400728059E+02  0.00000000000E+00 0.  1.
         11    1    3    3    0    0 -0.26053129064E+01  0.16891060890E+00 -0.58144350178E+00  0.26747453974E+01  0.51100000000E-03 0. -1.
        -11    1    3    3    0    0 -0.47035798826E+01 -0.30468155327E+00  0.89487093412E+01  0.10114143251E+02  0.51100000000E-03 0.  1.
         12    1    3    3    0    0 -0.23665494690E+02 -0.23350260290E+02  0.10936020234E+02  0.34998383293E+02  0.00000000000E+00 0. -1.
</event>
<event>
 7    1  0.7596051E-010  0.4778727E+02  0.7816164E-02  0.1312668E+00
        -11   -1    0    0    0    0  0.00000000000E+00  0.00000000000E+00  0.45593999997E+02  0.45594000000E+02  0.51100000000E-03 0. -1.
         11   -1    0    0    0    0 -0.00000000000E+00 -0.00000000000E+00 -0.45593999997E+02  0.45594000000E+02  0.51100000000E-03 0.  1.
    9900012    2    1    2    0    0 -0.22431814951E+02 -0.13476710251E+02  0.34623907008E+02  0.47787274457E+02  0.20000015559E+02 0.  0.
        -12    1    1    2    0    0  0.22431814951E+02  0.13476710251E+02 -0.34623907008E+02  0.43400725543E+02  0.00000000000E+00 0.  1.
         11    1    3    3    0    0  0.94111748145E+00 -0.33548827955E+01  0.92025411364E+01  0.98401069259E+01  0.51100000000E-03 0. -1.
        -11    1    3    3    0    0  0.75429009319E-01 -0.28554619355E+01  0.38253254779E+00  0.28819583293E+01  0.51100000000E-03 0.  1.
        -12    1    3    3    0    0 -0.23448361442E+02 -0.72663655201E+01  0.25038833323E+02  0.35065209202E+02  0.00000000000E+00 0.  1.
</event>
<event>
 7    1  0.7596051E-010  0.4778728E+02  0.7816164E-02  0.1312668E+00
        -11   -1    0    0    0    0  0.00000000000E+00  0.00000000000E+00  0.45593999997E+02  0.45594000000E+02  0.51100000000E-03 0. -1.
         11   -1    0    0    0    0 -0.00000000000E+00 -0.00000000000E+00 -0.45593999997E+02  0.45594000000E+02  0.51100000000E-03 0.  1.
    9900012    2    1    2    0    0 -0.95058889952E+01  0.15728768652E+02 -0.39317504514E+02  0.47787282839E+02  0.20000053777E+02 0.  0.
         12    1    1    2    0    0  0.95058889952E+01 -0.15728768652E+02  0.39317504514E+02  0.43400717161E+02  0.00000000000E+00 0. -1.
         11    1    3    3    0    0 -0.72844073065E+01  0.84519908479E+00 -0.34476901874E+01  0.81033029802E+01  0.51100000000E-03 0. -1.
        -11    1    3    3    0    0  0.79681077046E+00  0.49332605359E+01 -0.48340850755E+01  0.69527221789E+01  0.51100000000E-03 0.  1.
        -12    1    3    3    0    0 -0.30182924592E+01  0.99503090312E+01 -0.31035729251E+02  0.32731257680E+02  0.00000000000E+00 0.  1.
</event>
<event>
 7    1  0.7596051E-010  0.4778727E+02  0.7816164E-02  0.1312668E+00
        -11   -1    0    0    0    0  0.00000000000E+00  0.00000000000E+00  0.45593999997E+02  0.45594000000E+02  0.51100000000E-03 0. -1.
         11   -1    0    0    0    0 -0.00000000000E+00 -0.00000000000E+00 -0.45593999997E+02  0.45594000000E+02  0.51100000000E-03 0.  1.
    9900012    2    1    2    0    0 -0.23463138195E+02 -0.20142349964E+01 -0.36456097918E+02  0.47787273370E+02  0.20000010603E+02 0.  0.
         12    1    1    2    0    0  0.23463138195E+02  0.20142349964E+01  0.36456097918E+02  0.43400726630E+02  0.00000000000E+00 0. -1.
         11    1    3    3    0    0 -0.33192921862E+01  0.31621100685E+01 -0.15187628589E+01  0.48294183486E+01  0.51100000000E-03 0. -1.
        -11    1    3    3    0    0 -0.11404352429E+02  0.25547553374E+01 -0.98290271835E+01  0.15270749975E+02  0.51100000000E-03 0.  1.
        -12    1    3    3    0    0 -0.87394935799E+01 -0.77311004023E+01 -0.25108307876E+02  0.27687105046E+02  0.00000000000E+00 0.  1.
</event>
<event>
 7    1  0.7596051E-010  0.4778727E+02  0.7816164E-02  0.1312668E+00
        -11   -1    0    0    0    0  0.00000000000E+00  0.00000000000E+00  0.45593999997E+02  0.45594000000E+02  0.51100000000E-03 0. -1.
         11   -1    0    0    0    0 -0.00000000000E+00 -0.00000000000E+00 -0.45593999997E+02  0.45594000000E+02  0.51100000000E-03 0.  1.
    9900012    2    1    2    0    0  0.14725793445E+02 -0.12601020011E+02  0.38832825435E+02  0.47787273863E+02  0.20000012851E+02 0.  0.
        -12    1    1    2    0    0 -0.14725793445E+02  0.12601020011E+02 -0.38832825435E+02  0.43400726137E+02  0.00000000000E+00 0.  1.
         11    1    3    3    0    0  0.89855569725E+01 -0.50324169096E+01  0.97984283881E+01  0.14215296451E+02  0.51100000000E-03 0. -1.
        -11    1    3    3    0    0  0.39055839975E+01 -0.84247612365E+01  0.74833812046E+01  0.11926071556E+02  0.51100000000E-03 0.  1.
         12    1    3    3    0    0  0.18346524755E+01  0.85615813485E+00  0.21551015843E+02  0.21645905855E+02  0.00000000000E+00 0. -1.
</event>
<event>
 7    1  0.7596051E-010  0.4778727E+02  0.7816164E-02  0.1312668E+00
        -11   -1    0    0    0    0  0.00000000000E+00  0.00000000000E+00  0.45593999997E+02  0.45594000000E+02  0.51100000000E-03 0.  1.
         11   -1    0    0    0    0 -0.00000000000E+00 -0.00000000000E+00 -0.45593999997E+02  0.45594000000E+02  0.51100000000E-03 0. -1.
    9900012    2    1    2    0    0  0.19198511279E+02 -0.38923501598E+02  0.36276300926E-01  0.47787272726E+02  0.20000007665E+02 0.  0.
         12    1    1    2    0    0 -0.19198511279E+02  0.38923501598E+02 -0.36276300926E-01  0.43400727274E+02  0.00000000000E+00 0. -1.
         11    1    3    3    0    0  0.12939240195E+02 -0.95264336428E+01  0.59581971691E+00  0.16078926462E+02  0.51100000000E-03 0. -1.
        -11    1    3    3    0    0  0.71785634731E+01 -0.23086375135E+02 -0.39318185722E+01  0.24494319503E+02  0.51100000000E-03 0.  1.
        -12    1    3    3    0    0 -0.91929238834E+00 -0.63106928205E+01  0.33722751562E+01  0.72140267604E+01  0.00000000000E+00 0.  1.
</event>
<event>
 7    1  0.7596051E-010  0.4778727E+02  0.7816164E-02  0.1312668E+00
        -11   -1    0    0    0    0  0.00000000000E+00  0.00000000000E+00  0.45593999997E+02  0.45594000000E+02  0.51100000000E-03 0.  1.
         11   -1    0    0    0    0 -0.00000000000E+00 -0.00000000000E+00 -0.45593999997E+02  0.45594000000E+02  0.51100000000E-03 0. -1.
    9900012    2    1    2    0    0  0.41525720030E+02  0.57565491416E+01 -0.11229433755E+02  0.47787268848E+02  0.19999989987E+02 0.  0.
         12    1    1    2    0    0 -0.41525720030E+02 -0.57565491416E+01  0.11229433755E+02  0.43400731152E+02  0.00000000000E+00 0. -1.
         11    1    3    3    0    0  0.21001844279E+02  0.53661351753E+01 -0.12948699884E+02  0.25249588091E+02  0.51100000000E-03 0. -1.
        -11    1    3    3    0    0  0.86126381227E+01  0.26207705509E+01 -0.30638340566E+01  0.95096294934E+01  0.51100000000E-03 0.  1.
        -12    1    3    3    0    0  0.11911237629E+02 -0.22303565846E+01  0.47831001857E+01  0.13028051264E+02  0.00000000000E+00 0.  1.
</event>
<event>
 7    1  0.7596051E-010  0.4778730E+02  0.7816164E-02  0.1312668E+00
        -11   -1    0    0    0    0  0.00000000000E+00  0.00000000000E+00  0.45593999997E+02  0.45594000000E+02  0.51100000000E-03 0. -1.
         11   -1    0    0    0    0 -0.00000000000E+00 -0.00000000000E+00 -0.45593999997E+02  0.45594000000E+02  0.51100000000E-03 0.  1.
    9900012    2    1    2    0    0 -0.18579680715E+02  0.14306630400E+02 -0.36520357131E+02  0.47787300768E+02  0.20000135520E+02 0.  0.
         12    1    1    2    0    0  0.18579680715E+02 -0.14306630400E+02  0.36520357131E+02  0.43400699232E+02  0.00000000000E+00 0. -1.
         11    1    3    3    0    0 -0.34161791119E+01  0.45240793506E+01 -0.15785348715E+02  0.16772441921E+02  0.51100000000E-03 0. -1.
        -11    1    3    3    0    0 -0.12748647665E+02  0.11780248146E+02 -0.21650609421E+02  0.27749795535E+02  0.51100000000E-03 0.  1.
         12    1    3    3    0    0 -0.24148539382E+01 -0.19976970964E+01  0.91560100466E+00  0.32650633120E+01  0.00000000000E+00 0. -1.
</event>
<event>
 7    1  0.8096389E-010  0.4778727E+02  0.7816164E-02  0.1312668E+00
        -11   -1    0    0    0    0  0.00000000000E+00  0.00000000000E+00  0.45593999997E+02  0.45594000000E+02  0.51100000000E-03 0. -1.
         11   -1    0    0    0    0 -0.00000000000E+00 -0.00000000000E+00 -0.45593999997E+02  0.45594000000E+02  0.51100000000E-03 0.  1.
    9900012    2    1    2    0    0 -0.16122808207E+02  0.12647573633E+01  0.40275037276E+02  0.47787272089E+02  0.20000004761E+02 0.  0.
        -12    1    1    2    0    0  0.16122808207E+02 -0.12647573633E+01 -0.40275037276E+02  0.43400727911E+02  0.00000000000E+00 0.  1.
         11    1    3    3    0    0  0.21640081465E+00 -0.25012553024E+01  0.11002594643E+02  0.11285397491E+02  0.51100000000E-03 0. -1.
        -11    1    3    3    0    0 -0.45472853343E+01 -0.22228015834E+01  0.82222422965E+00  0.51278361650E+01  0.51100000000E-03 0.  1.
         12    1    3    3    0    0 -0.11791923687E+02  0.59888142491E+01  0.28450218404E+02  0.31374038433E+02  0.00000000000E+00 0. -1.
</event>
<event>
 7    1  0.7596051E-010  0.4778727E+02  0.7816164E-02  0.1312668E+00
        -11   -1    0    0    0    0  0.00000000000E+00  0.00000000000E+00  0.45593999997E+02  0.45594000000E+02  0.51100000000E-03 0. -1.
         11   -1    0    0    0    0 -0.00000000000E+00 -0.00000000000E+00 -0.45593999997E+02  0.45594000000E+02  0.51100000000E-03 0.  1.
    9900012    2    1    2    0    0 -0.95993610205E+01  0.41783750324E+02 -0.67523163043E+01  0.47787270759E+02  0.19999998698E+02 0.  0.
         12    1    1    2    0    0  0.95993610205E+01 -0.41783750324E+02  0.67523163043E+01  0.43400729241E+02  0.00000000000E+00 0. -1.
         11    1    3    3    0    0  0.67881579187E+00  0.79866305662E+01  0.42604457183E+00  0.80267411144E+01  0.51100000000E-03 0. -1.
        -11    1    3    3    0    0 -0.14326716327E+02  0.19182129146E+02 -0.44113676364E+01  0.24344795008E+02  0.51100000000E-03 0.  1.
        -12    1    3    3    0    0  0.40485395147E+01  0.14614990612E+02 -0.27669932398E+01  0.15415734637E+02  0.00000000000E+00 0.  1.
</event>
<event>
 7    1  0.7596051E-010  0.4778727E+02  0.7816164E-02  0.1312668E+00
        -11   -1    0    0    0    0  0.00000000000E+00  0.00000000000E+00  0.45593999997E+02  0.45594000000E+02  0.51100000000E-03 0.  1.
         11   -1    0    0    0    0 -0.00000000000E+00 -0.00000000000E+00 -0.45593999997E+02  0.45594000000E+02  0.51100000000E-03 0. -1.
    9900012    2    1    2    0    0 -0.20457149840E+02 -0.36325880204E+02 -0.12064777128E+02  0.47787269599E+02  0.19999993411E+02 0.  0.
         12    1    1    2    0    0  0.20457149840E+02  0.36325880204E+02  0.12064777128E+02  0.43400730401E+02  0.00000000000E+00 0. -1.
         11    1    3    3    0    0 -0.21195676506E+01 -0.61213527107E+01  0.14594446970E+01  0.66402940537E+01  0.51100000000E-03 0. -1.
        -11    1    3    3    0    0 -0.18237537765E+02 -0.14895346201E+02 -0.84840579074E+01  0.25029150226E+02  0.51100000000E-03 0.  1.
        -12    1    3    3    0    0 -0.10004442430E+00 -0.15309181292E+02 -0.50401639177E+01  0.16117825319E+02  0.00000000000E+00 0.  1.
</event>
<event>
 7    1  0.7596051E-010  0.4778727E+02  0.7816164E-02  0.1312668E+00
        -11   -1    0    0    0    0  0.00000000000E+00  0.00000000000E+00  0.45593999997E+02  0.45594000000E+02  0.51100000000E-03 0. -1.
         11   -1    0    0    0    0 -0.00000000000E+00 -0.00000000000E+00 -0.45593999997E+02  0.45594000000E+02  0.51100000000E-03 0.  1.
    9900012    2    1    2    0    0  0.46347361014E+01  0.22960354341E+01  0.43091423670E+02  0.47787270152E+02  0.19999995932E+02 0.  0.
        -12    1    1    2    0    0 -0.46347361014E+01 -0.22960354341E+01 -0.43091423670E+02  0.43400729848E+02  0.00000000000E+00 0.  1.
         11    1    3    3    0    0  0.39278999521E+01  0.75813278038E+01  0.20239112876E+02  0.21966488558E+02  0.51100000000E-03 0. -1.
        -11    1    3    3    0    0 -0.12253193433E+01  0.19131311494E+01  0.14287841868E+02  0.14467339209E+02  0.51100000000E-03 0.  1.
        -12    1    3    3    0    0  0.19321554925E+01 -0.71984235192E+01  0.85644689261E+01  0.11353442385E+02  0.00000000000E+00 0.  1.
</event>
<event>
 7    1  0.7596051E-010  0.4778727E+02  0.7816164E-02  0.1312668E+00
        -11   -1    0    0    0    0  0.00000000000E+00  0.00000000000E+00  0.45593999997E+02  0.45594000000E+02  0.51100000000E-03 0. -1.
         11   -1    0    0    0    0 -0.00000000000E+00 -0.00000000000E+00 -0.45593999997E+02  0.45594000000E+02  0.51100000000E-03 0.  1.
    9900012    2    1    2    0    0 -0.10631541307E+02  0.15197315888E+02  0.39238186641E+02  0.47787269918E+02  0.19999994864E+02 0.  0.
        -12    1    1    2    0    0  0.10631541307E+02 -0.15197315888E+02 -0.39238186641E+02  0.43400730082E+02  0.00000000000E+00 0.  1.
         11    1    3    3    0    0 -0.40083015677E+01  0.12753680410E+01  0.81834078198E+00  0.42851752583E+01  0.51100000000E-03 0. -1.
        -11    1    3    3    0    0 -0.93942807843E+01  0.11112047000E+02  0.20415781169E+02  0.25070584775E+02  0.51100000000E-03 0.  1.
        -12    1    3    3    0    0  0.27710410452E+01  0.28099008477E+01  0.18004064691E+02  0.18431509885E+02  0.00000000000E+00 0.  1.
</event>
<event>
 7    1  0.7596051E-010  0.4778727E+02  0.7816164E-02  0.1312668E+00
        -11   -1    0    0    0    0  0.00000000000E+00  0.00000000000E+00  0.45593999997E+02  0.45594000000E+02  0.51100000000E-03 0. -1.
         11   -1    0    0    0    0 -0.00000000000E+00 -0.00000000000E+00 -0.45593999997E+02  0.45594000000E+02  0.51100000000E-03 0.  1.
    9900012    2    1    2    0    0  0.18276018801E+02 -0.61660955755E+01 -0.38879166983E+02  0.47787271628E+02  0.20000002663E+02 0.  0.
         12    1    1    2    0    0 -0.18276018801E+02  0.61660955755E+01  0.38879166983E+02  0.43400728372E+02  0.00000000000E+00 0. -1.
         11    1    3    3    0    0  0.35884802184E-01  0.26863284082E+01  0.19305286227E-01  0.26866374878E+01  0.51100000000E-03 0. -1.
        -11    1    3    3    0    0  0.84303133276E+01 -0.20494837338E+01 -0.73556966656E+01  0.11374394053E+02  0.51100000000E-03 0.  1.
        -12    1    3    3    0    0  0.98098206712E+01 -0.68029402499E+01 -0.31542775604E+02  0.33726240088E+02  0.00000000000E+00 0.  1.
</event>
<event>
 7    1  0.7596051E-010  0.4778728E+02  0.7816164E-02  0.1312668E+00
        -11   -1    0    0    0    0  0.00000000000E+00  0.00000000000E+00  0.45593999997E+02  0.45594000000E+02  0.51100000000E-03 0.  1.
         11   -1    0    0    0    0 -0.00000000000E+00 -0.00000000000E+00 -0.45593999997E+02  0.45594000000E+02  0.51100000000E-03 0. -1.
    9900012    2    1    2    0    0  0.27226231159E+02 -0.28682147745E+02  0.17879854137E+02  0.47787280578E+02  0.20000043468E+02 0.  0.
        -12    1    1    2    0    0 -0.27226231159E+02  0.28682147745E+02 -0.17879854137E+02  0.43400719422E+02  0.00000000000E+00 0.  1.
         11    1    3    3    0    0  0.28276903228E+01 -0.42341379656E+01 -0.38868719741E+00  0.51063524038E+01  0.51100000000E-03 0. -1.
        -11    1    3    3    0    0 -0.21941612522E+01 -0.11241522919E+01 -0.67448057166E+00  0.25559707116E+01  0.51100000000E-03 0.  1.
         12    1    3    3    0    0  0.26592702089E+02 -0.23323857487E+02  0.18943021906E+02  0.40124957463E+02  0.00000000000E+00 0. -1.
</event>
<event>
 7    1  0.7596051E-010  0.4778728E+02  0.7816164E-02  0.1312668E+00
        -11   -1    0    0    0    0  0.00000000000E+00  0.00000000000E+00  0.45593999997E+02  0.45594000000E+02  0.51100000000E-03 0. -1.
         11   -1    0    0    0    0 -0.00000000000E+00 -0.00000000000E+00 -0.45593999997E+02  0.45594000000E+02  0.51100000000E-03 0.  1.
    9900012    2    1    2    0    0  0.20130715731E+01 -0.48009747755E+01 -0.43087357936E+02  0.47787283073E+02  0.20000054841E+02 0.  0.
         12    1    1    2    0    0 -0.20130715731E+01  0.48009747755E+01  0.43087357936E+02  0.43400716927E+02  0.00000000000E+00 0. -1.
         11    1    3    3    0    0 -0.62438798191E+01  0.71987547750E+00 -0.19401462165E+02  0.20394141078E+02  0.51100000000E-03 0.  1.
        -11    1    3    3    0    0 -0.34326605782E-01  0.94724282014E+00  0.46233116180E+00  0.10546078136E+01  0.51100000000E-03 0. -1.
        -12    1    3    3    0    0  0.82912779979E+01 -0.64680930732E+01 -0.24148226932E+02  0.26338534181E+02  0.00000000000E+00 0.  1.
</event>
<event>
 7    1  0.7596051E-010  0.4778728E+02  0.7816164E-02  0.1312668E+00
        -11   -1    0    0    0    0  0.00000000000E+00  0.00000000000E+00  0.45593999997E+02  0.45594000000E+02  0.51100000000E-03 0. -1.
         11   -1    0    0    0    0 -0.00000000000E+00 -0.00000000000E+00 -0.45593999997E+02  0.45594000000E+02  0.51100000000E-03 0.  1.
    9900012    2    1    2    0    0 -0.18788053333E+02  0.20796883763E+02 -0.33137917042E+02  0.47787275718E+02  0.20000021311E+02 0.  0.
         12    1    1    2    0    0  0.18788053333E+02 -0.20796883763E+02  0.33137917042E+02  0.43400724282E+02  0.00000000000E+00 0. -1.
         11    1    3    3    0    0 -0.44301112292E+01  0.15424017145E+01 -0.59951429065E+01  0.76122682088E+01  0.51100000000E-03 0. -1.
        -11    1    3    3    0    0 -0.57149041414E+01  0.20052008366E+02 -0.17712446707E+02  0.27358251725E+02  0.51100000000E-03 0.  1.
        -12    1    3    3    0    0 -0.86430379621E+01 -0.79752631685E+00 -0.94303274286E+01  0.12816755785E+02  0.00000000000E+00 0.  1.
</event>
<event>
 7    1  0.7596051E-010  0.4778728E+02  0.7816164E-02  0.1312668E+00
        -11   -1    0    0    0    0  0.00000000000E+00  0.00000000000E+00  0.45593999997E+02  0.45594000000E+02  0.51100000000E-03 0. -1.
         11   -1    0    0    0    0 -0.00000000000E+00 -0.00000000000E+00 -0.45593999997E+02  0.45594000000E+02  0.51100000000E-03 0.  1.
    9900012    2    1    2    0    0 -0.29048146780E+02 -0.25569279547E+02 -0.19647894310E+02  0.47787278362E+02  0.20000033362E+02 0.  0.
         12    1    1    2    0    0  0.29048146780E+02  0.25569279547E+02  0.19647894310E+02  0.43400721638E+02  0.00000000000E+00 0. -1.
         11    1    3    3    0    0  0.11727782525E+01 -0.19989949851E+01 -0.39931450328E+00  0.23517742480E+01  0.51100000000E-03 0. -1.
        -11    1    3    3    0    0  0.76251329860E+00  0.12355531970E+01 -0.91063145055E+00  0.17138460062E+01  0.51100000000E-03 0.  1.
        -12    1    3    3    0    0 -0.30983438332E+02 -0.24805837759E+02 -0.18337948356E+02  0.43721658107E+02  0.00000000000E+00 0.  1.
</event>
<event>
 7    1  0.7596051E-010  0.4778726E+02  0.7816164E-02  0.1312668E+00
        -11   -1    0    0    0    0  0.00000000000E+00  0.00000000000E+00  0.45593999997E+02  0.45594000000E+02  0.51100000000E-03 0. -1.
         11   -1    0    0    0    0 -0.00000000000E+00 -0.00000000000E+00 -0.45593999997E+02  0.45594000000E+02  0.51100000000E-03 0.  1.
    9900012    2    1    2    0    0 -0.34367225518E+01 -0.25885528249E+02  0.34666300540E+02  0.47787262359E+02  0.19999960401E+02 0.  0.
        -12    1    1    2    0    0  0.34367225518E+01  0.25885528249E+02 -0.34666300540E+02  0.43400737641E+02  0.00000000000E+00 0.  1.
         11    1    3    3    0    0 -0.95296678444E+01 -0.20256710759E+02  0.26146972265E+02  0.34421113563E+02  0.51100000000E-03 0. -1.
        -11    1    3    3    0    0 -0.15238434867E+00 -0.71689357598E+00 -0.82295106908E+00  0.11020009584E+01  0.51100000000E-03 0.  1.
         12    1    3    3    0    0  0.62453296412E+01 -0.49119239140E+01  0.93422793439E+01  0.12264147838E+02  0.00000000000E+00 0. -1.
</event>
<event>
 7    1  0.7596051E-010  0.4778727E+02  0.7816164E-02  0.1312668E+00
        -11   -1    0    0    0    0  0.00000000000E+00  0.00000000000E+00  0.45593999997E+02  0.45594000000E+02  0.51100000000E-03 0. -1.
         11   -1    0    0    0    0 -0.00000000000E+00 -0.00000000000E+00 -0.45593999997E+02  0.45594000000E+02  0.51100000000E-03 0.  1.
    9900012    2    1    2    0    0  0.84272606607E+00  0.65529471268E+01 -0.42894893394E+02  0.47787272096E+02  0.20000004796E+02 0.  0.
         12    1    1    2    0    0 -0.84272606607E+00 -0.65529471268E+01  0.42894893394E+02  0.43400727904E+02  0.00000000000E+00 0. -1.
         11    1    3    3    0    0  0.42870969603E+01  0.37004585140E+01 -0.18537272238E+02  0.19383061055E+02  0.51100000000E-03 0. -1.
        -11    1    3    3    0    0  0.25358757875E+01  0.33746133571E+01 -0.10691720365E+01  0.43545160953E+01  0.51100000000E-03 0.  1.
        -12    1    3    3    0    0 -0.59802466817E+01 -0.52212474433E+00 -0.23288449119E+02  0.24049694946E+02  0.00000000000E+00 0.  1.
</event>
<event>
 7    1  0.7596051E-010  0.4778727E+02  0.7816164E-02  0.1312668E+00
        -11   -1    0    0    0    0  0.00000000000E+00  0.00000000000E+00  0.45593999997E+02  0.45594000000E+02  0.51100000000E-03 0.  1.
         11   -1    0    0    0    0 -0.00000000000E+00 -0.00000000000E+00 -0.45593999997E+02  0.45594000000E+02  0.51100000000E-03 0. -1.
    9900012    2    1    2    0    0 -0.29833439234E+02  0.44169705728E+01 -0.31210247161E+02  0.47787271280E+02  0.20000001076E+02 0.  0.
         12    1    1    2    0    0  0.29833439234E+02 -0.44169705728E+01  0.31210247161E+02  0.43400728720E+02  0.00000000000E+00 0. -1.
         11    1    3    3    0    0 -0.25953202135E+00 -0.65036331756E+00 -0.66004505955E+01  0.66374903118E+01  0.51100000000E-03 0. -1.
        -11    1    3    3    0    0 -0.12085961512E+02 -0.43935509812E+01 -0.12108401844E+02  0.17663158024E+02  0.51100000000E-03 0.  1.
         12    1    3    3    0    0 -0.17487945700E+02  0.94608848716E+01 -0.12501394722E+02  0.23486622945E+02  0.00000000000E+00 0. -1.
</event>
<event>
 7    1  0.7596051E-010  0.4778727E+02  0.7816164E-02  0.1312668E+00
        -11   -1    0    0    0    0  0.00000000000E+00  0.00000000000E+00  0.45593999997E+02  0.45594000000E+02  0.51100000000E-03 0. -1.
         11   -1    0    0    0    0 -0.00000000000E+00 -0.00000000000E+00 -0.45593999997E+02  0.45594000000E+02  0.51100000000E-03 0.  1.
    9900012    2    1    2    0    0 -0.13483915936E+02 -0.31851963226E+02 -0.26215641324E+02  0.47787269588E+02  0.19999993357E+02 0.  0.
         12    1    1    2    0    0  0.13483915936E+02  0.31851963226E+02  0.26215641324E+02  0.43400730412E+02  0.00000000000E+00 0. -1.
         11    1    3    3    0    0 -0.37407880363E+01 -0.16368915044E+01 -0.47433271030E+01  0.62587587584E+01  0.51100000000E-03 0.  1.
        -11    1    3    3    0    0 -0.88124809456E+01 -0.17475218656E+02 -0.41516157424E+01  0.20006973810E+02  0.51100000000E-03 0. -1.
         12    1    3    3    0    0 -0.93064695393E+00 -0.12739853065E+02 -0.17320698479E+02  0.21521537019E+02  0.00000000000E+00 0. -1.
</event>
<event>
 7    1  0.7596051E-010  0.4778726E+02  0.7816164E-02  0.1312668E+00
        -11   -1    0    0    0    0  0.00000000000E+00  0.00000000000E+00  0.45593999997E+02  0.45594000000E+02  0.51100000000E-03 0.  1.
         11   -1    0    0    0    0 -0.00000000000E+00 -0.00000000000E+00 -0.45593999997E+02  0.45594000000E+02  0.51100000000E-03 0. -1.
    9900012    2    1    2    0    0 -0.27556508500E+02 -0.27202208303E+02  0.19603638475E+02  0.47787263384E+02  0.19999965075E+02 0.  0.
        -12    1    1    2    0    0  0.27556508500E+02  0.27202208303E+02 -0.19603638475E+02  0.43400736616E+02  0.00000000000E+00 0.  1.
         11    1    3    3    0    0 -0.72366406996E+01 -0.50133457932E+01  0.14739986702E+01  0.89261008844E+01  0.51100000000E-03 0. -1.
        -11    1    3    3    0    0 -0.10458872155E+02 -0.22124950646E+02  0.12072051898E+02  0.27288017245E+02  0.51100000000E-03 0.  1.
        -12    1    3    3    0    0 -0.98609956455E+01 -0.63911863996E-01  0.60575879075E+01  0.11573145255E+02  0.00000000000E+00 0.  1.
</event>
<event>
 7    1  0.7596051E-010  0.4778727E+02  0.7816164E-02  0.1312668E+00
        -11   -1    0    0    0    0  0.00000000000E+00  0.00000000000E+00  0.45593999997E+02  0.45594000000E+02  0.51100000000E-03 0. -1.
         11   -1    0    0    0    0 -0.00000000000E+00 -0.00000000000E+00 -0.45593999997E+02  0.45594000000E+02  0.51100000000E-03 0.  1.
    9900012    2    1    2    0    0  0.14628079918E+02  0.21568258760E+02 -0.34705227947E+02  0.47787270111E+02  0.19999995744E+02 0.  0.
         12    1    1    2    0    0 -0.14628079918E+02 -0.21568258760E+02  0.34705227947E+02  0.43400729889E+02  0.00000000000E+00 0. -1.
         11    1    3    3    0    0  0.44047569364E+01 -0.20386592039E+01 -0.45930752564E+01  0.66823914574E+01  0.51100000000E-03 0. -1.
        -11    1    3    3    0    0  0.11256284659E+02  0.16913133489E+02 -0.26612669934E+02  0.33481222051E+02  0.51100000000E-03 0.  1.
         12    1    3    3    0    0 -0.10329616778E+01  0.66937844753E+01 -0.34994827566E+01  0.76236566025E+01  0.00000000000E+00 0. -1.
</event>
<event>
 7    1  0.7596051E-010  0.4778727E+02  0.7816164E-02  0.1312668E+00
        -11   -1    0    0    0    0  0.00000000000E+00  0.00000000000E+00  0.45593999997E+02  0.45594000000E+02  0.51100000000E-03 0. -1.
         11   -1    0    0    0    0 -0.00000000000E+00 -0.00000000000E+00 -0.45593999997E+02  0.45594000000E+02  0.51100000000E-03 0.  1.
    9900012    2    1    2    0    0 -0.14272545344E+02  0.63622869058E+01  0.40489984174E+02  0.47787273466E+02  0.20000011039E+02 0.  0.
        -12    1    1    2    0    0  0.14272545344E+02 -0.63622869058E+01 -0.40489984174E+02  0.43400726534E+02  0.00000000000E+00 0.  1.
         11    1    3    3    0    0 -0.47196513537E+01 -0.26390324528E+00  0.14738427256E+02  0.15477919500E+02  0.51100000000E-03 0. -1.
        -11    1    3    3    0    0 -0.23490471665E+01 -0.42883702290E+01  0.13620626065E+02  0.14471682572E+02  0.51100000000E-03 0.  1.
        -12    1    3    3    0    0 -0.72038468238E+01  0.10914560380E+02  0.12130930854E+02  0.17837671393E+02  0.00000000000E+00 0.  1.
</event>
<event>
 7    1  0.7596051E-010  0.4778726E+02  0.7816164E-02  0.1312668E+00
        -11   -1    0    0    0    0  0.00000000000E+00  0.00000000000E+00  0.45593999997E+02  0.45594000000E+02  0.51100000000E-03 0. -1.
         11   -1    0    0    0    0 -0.00000000000E+00 -0.00000000000E+00 -0.45593999997E+02  0.45594000000E+02  0.51100000000E-03 0.  1.
    9900012    2    1    2    0    0  0.19707390228E+01  0.35143207337E+02 -0.25390850418E+02  0.47787261306E+02  0.19999955600E+02 0.  0.
         12    1    1    2    0    0 -0.19707390228E+01 -0.35143207337E+02  0.25390850418E+02  0.43400738694E+02  0.00000000000E+00 0. -1.
         11    1    3    3    0    0 -0.41225776027E+01  0.20233898083E+02 -0.61965549443E+01  0.21559303588E+02  0.51100000000E-03 0. -1.
        -11    1    3    3    0    0  0.42204944042E+01  0.22756415293E+01 -0.32203446801E+01  0.57759620415E+01  0.51100000000E-03 0.  1.
        -12    1    3    3    0    0  0.18728222213E+01  0.12633667724E+02 -0.15973950793E+02  0.20451995677E+02  0.00000000000E+00 0.  1.
</event>
<event>
 7    1  0.7596051E-010  0.4778723E+02  0.7816164E-02  0.1312668E+00
        -11   -1    0    0    0    0  0.00000000000E+00  0.00000000000E+00  0.45593999997E+02  0.45594000000E+02  0.51100000000E-03 0. -1.
         11   -1    0    0    0    0 -0.00000000000E+00 -0.00000000000E+00 -0.45593999997E+02  0.45594000000E+02  0.51100000000E-03 0.  1.
    9900012    2    1    2    0    0  0.14147727006E+02 -0.24574746471E+02 -0.32856512892E+02  0.47787230618E+02  0.19999815679E+02 0.  0.
         12    1    1    2    0    0 -0.14147727006E+02  0.24574746471E+02  0.32856512892E+02  0.43400769382E+02  0.00000000000E+00 0. -1.
         11    1    3    3    0    0  0.60338214814E+01 -0.60828611489E+01 -0.16867939713E+02  0.18919185813E+02  0.51100000000E-03 0. -1.
        -11    1    3    3    0    0  0.99485262101E+01 -0.91863092467E+01 -0.13367936104E+02  0.19027957517E+02  0.51100000000E-03 0.  1.
         12    1    3    3    0    0 -0.18346206853E+01 -0.93055760749E+01 -0.26206370749E+01  0.98400872874E+01  0.00000000000E+00 0. -1.
</event>
<event>
 7    1  0.7596051E-010  0.4778727E+02  0.7816164E-02  0.1312668E+00
        -11   -1    0    0    0    0  0.00000000000E+00  0.00000000000E+00  0.45593999997E+02  0.45594000000E+02  0.51100000000E-03 0. -1.
         11   -1    0    0    0    0 -0.00000000000E+00 -0.00000000000E+00 -0.45593999997E+02  0.45594000000E+02  0.51100000000E-03 0.  1.
    9900012    2    1    2    0    0 -0.23342121705E+02 -0.24179807620E+02  0.27460982457E+02  0.47787270747E+02  0.19999998643E+02 0.  0.
        -12    1    1    2    0    0  0.23342121705E+02  0.24179807620E+02 -0.27460982457E+02  0.43400729253E+02  0.00000000000E+00 0.  1.
         11    1    3    3    0    0 -0.14239025638E+02 -0.65322502062E+01  0.17100102547E+02  0.23191240831E+02  0.51100000000E-03 0. -1.
        -11    1    3    3    0    0 -0.16872660192E+01  0.11698468573E+01  0.13241798249E+01  0.24431252033E+01  0.51100000000E-03 0.  1.
        -12    1    3    3    0    0 -0.74158300476E+01 -0.18817404271E+02  0.90367000848E+01  0.22152904713E+02  0.00000000000E+00 0.  1.
</event>
<event>
 7    1  0.7596051E-010  0.4778727E+02  0.7816164E-02  0.1312668E+00
        -11   -1    0    0    0    0  0.00000000000E+00  0.00000000000E+00  0.45593999997E+02  0.45594000000E+02  0.51100000000E-03 0. -1.
         11   -1    0    0    0    0 -0.00000000000E+00 -0.00000000000E+00 -0.45593999997E+02  0.45594000000E+02  0.51100000000E-03 0.  1.
    9900012    2    1    2    0    0  0.36626200592E+02  0.13483981622E+02 -0.18982277155E+02  0.47787272170E+02  0.20000005130E+02 0.  0.
         12    1    1    2    0    0 -0.36626200592E+02 -0.13483981622E+02  0.18982277155E+02  0.43400727830E+02  0.00000000000E+00 0. -1.
         11    1    3    3    0    0  0.25045094735E+01 -0.31435822985E+01 -0.20164541754E+01  0.44967505015E+01  0.51100000000E-03 0. -1.
        -11    1    3    3    0    0  0.47029832906E+01  0.15864101412E+01 -0.73681732980E+01  0.88839589698E+01  0.51100000000E-03 0.  1.
         12    1    3    3    0    0  0.29418707828E+02  0.15041153779E+02 -0.95976496816E+01  0.34406562698E+02  0.00000000000E+00 0. -1.
</event>
<event>
 7    1  0.7596051E-010  0.4778727E+02  0.7816164E-02  0.1312668E+00
        -11   -1    0    0    0    0  0.00000000000E+00  0.00000000000E+00  0.45593999997E+02  0.45594000000E+02  0.51100000000E-03 0. -1.
         11   -1    0    0    0    0 -0.00000000000E+00 -0.00000000000E+00 -0.45593999997E+02  0.45594000000E+02  0.51100000000E-03 0.  1.
    9900012    2    1    2    0    0 -0.22422430182E+02  0.12521138325E+02  0.34986841081E+02  0.47787270409E+02  0.19999997104E+02 0.  0.
        -12    1    1    2    0    0  0.22422430182E+02 -0.12521138325E+02 -0.34986841081E+02  0.43400729591E+02  0.00000000000E+00 0.  1.
         11    1    3    3    0    0 -0.11666249545E+02  0.46683676311E+01  0.13726741814E+02  0.18609633953E+02  0.51100000000E-03 0. -1.
        -11    1    3    3    0    0 -0.13014817320E+02  0.17592263438E+01  0.11526620747E+02  0.17474076036E+02  0.51100000000E-03 0.  1.
         12    1    3    3    0    0  0.22586366834E+01  0.60935443505E+01  0.97334785193E+01  0.11703560420E+02  0.00000000000E+00 0. -1.
</event>
<event>
 7    1  0.7596051E-010  0.4778727E+02  0.7816164E-02  0.1312668E+00
        -11   -1    0    0    0    0  0.00000000000E+00  0.00000000000E+00  0.45593999997E+02  0.45594000000E+02  0.51100000000E-03 0. -1.
         11   -1    0    0    0    0 -0.00000000000E+00 -0.00000000000E+00 -0.45593999997E+02  0.45594000000E+02  0.51100000000E-03 0.  1.
    9900012    2    1    2    0    0 -0.53405949954E+01  0.13595483045E+02 -0.40868868720E+02  0.47787267926E+02  0.19999985782E+02 0.  0.
         12    1    1    2    0    0  0.53405949954E+01 -0.13595483045E+02  0.40868868720E+02  0.43400732074E+02  0.00000000000E+00 0. -1.
         11    1    3    3    0    0 -0.40253073289E+01  0.65582168975E+00 -0.88927012379E+01  0.97833193114E+01  0.51100000000E-03 0. -1.
        -11    1    3    3    0    0 -0.68714156981E+01  0.51919721535E+00 -0.96392597557E+01  0.11849103272E+02  0.51100000000E-03 0.  1.
         12    1    3    3    0    0  0.55561280316E+01  0.12420464140E+02 -0.22336907726E+02  0.26154845343E+02  0.00000000000E+00 0. -1.
</event>
<event>
 7    1  0.7596051E-010  0.4778727E+02  0.7816164E-02  0.1312668E+00
        -11   -1    0    0    0    0  0.00000000000E+00  0.00000000000E+00  0.45593999997E+02  0.45594000000E+02  0.51100000000E-03 0. -1.
         11   -1    0    0    0    0 -0.00000000000E+00 -0.00000000000E+00 -0.45593999997E+02  0.45594000000E+02  0.51100000000E-03 0.  1.
    9900012    2    1    2    0    0  0.93185736394E+01  0.28175478871E+02 -0.31669067176E+02  0.47787271434E+02  0.20000001777E+02 0.  0.
         12    1    1    2    0    0 -0.93185736394E+01 -0.28175478871E+02  0.31669067176E+02  0.43400728566E+02  0.00000000000E+00 0. -1.
         11    1    3    3    0    0  0.20143976851E+01 -0.14579272304E+00 -0.53995380604E+00  0.20905989395E+01  0.51100000000E-03 0. -1.
        -11    1    3    3    0    0  0.31754531588E+01 -0.13194321591E+01 -0.42871182046E+01  0.54957971894E+01  0.51100000000E-03 0.  1.
        -12    1    3    3    0    0  0.41287227955E+01  0.29640703753E+02 -0.26841995165E+02  0.40200875305E+02  0.00000000000E+00 0.  1.
</event>
<event>
 7    1  0.7596051E-010  0.4778727E+02  0.7816164E-02  0.1312668E+00
        -11   -1    0    0    0    0  0.00000000000E+00  0.00000000000E+00  0.45593999997E+02  0.45594000000E+02  0.51100000000E-03 0. -1.
         11   -1    0    0    0    0 -0.00000000000E+00 -0.00000000000E+00 -0.45593999997E+02  0.45594000000E+02  0.51100000000E-03 0.  1.
    9900012    2    1    2    0    0 -0.41166439335E+01 -0.40945457098E+02 -0.13789347081E+02  0.47787270661E+02  0.19999998250E+02 0.  0.
         12    1    1    2    0    0  0.41166439335E+01  0.40945457098E+02  0.13789347081E+02  0.43400729339E+02  0.00000000000E+00 0. -1.
         11    1    3    3    0    0  0.72826719287E+00 -0.18061405824E+02 -0.42630622775E+01  0.18571980339E+02  0.51100000000E-03 0. -1.
        -11    1    3    3    0    0 -0.24860815980E+00 -0.14981183953E+02 -0.12592895045E+02  0.19572395984E+02  0.51100000000E-03 0.  1.
         12    1    3    3    0    0 -0.45963029666E+01 -0.79028673204E+01  0.30666102417E+01  0.96428943383E+01  0.00000000000E+00 0. -1.
</event>
<event>
 7    1  0.7596051E-010  0.4778727E+02  0.7816164E-02  0.1312668E+00
        -11   -1    0    0    0    0  0.00000000000E+00  0.00000000000E+00  0.45593999997E+02  0.45594000000E+02  0.51100000000E-03 0. -1.
         11   -1    0    0    0    0 -0.00000000000E+00 -0.00000000000E+00 -0.45593999997E+02  0.45594000000E+02  0.51100000000E-03 0.  1.
    9900012    2    1    2    0    0  0.31794881038E+02  0.24692184305E+02 -0.16217420495E+02  0.47787272431E+02  0.20000006323E+02 0.  0.
         12    1    1    2    0    0 -0.31794881038E+02 -0.24692184305E+02  0.16217420495E+02  0.43400727569E+02  0.00000000000E+00 0. -1.
         11    1    3    3    0    0 -0.37609010458E+00  0.16513974998E+01  0.88083019498E+00  0.19090362916E+01  0.51100000000E-03 0. -1.
        -11    1    3    3    0    0  0.25924722177E+02  0.19296037577E+02 -0.64139873453E+01  0.32947951682E+02  0.51100000000E-03 0.  1.
        -12    1    3    3    0    0  0.62462489650E+01  0.37447492289E+01 -0.10684263345E+02  0.12930284457E+02  0.00000000000E+00 0.  1.
</event>
<event>
 7    1  0.7596051E-010  0.4778728E+02  0.7816164E-02  0.1312668E+00
        -11   -1    0    0    0    0  0.00000000000E+00  0.00000000000E+00  0.45593999997E+02  0.45594000000E+02  0.51100000000E-03 0. -1.
         11   -1    0    0    0    0 -0.00000000000E+00 -0.00000000000E+00 -0.45593999997E+02  0.45594000000E+02  0.51100000000E-03 0.  1.
    9900012    2    1    2    0    0 -0.32692142146E+02  0.13433396592E+02 -0.25187110418E+02  0.47787276120E+02  0.20000023142E+02 0.  0.
         12    1    1    2    0    0  0.32692142146E+02 -0.13433396592E+02  0.25187110418E+02  0.43400723880E+02  0.00000000000E+00 0. -1.
         11    1    3    3    0    0 -0.21997742394E+01  0.56413970847E+01 -0.24881865801E+01  0.65464066854E+01  0.51100000000E-03 0. -1.
        -11    1    3    3    0    0 -0.64895150676E+01  0.81370753676E+01 -0.74955550689E+01  0.12826111936E+02  0.51100000000E-03 0.  1.
        -12    1    3    3    0    0 -0.24002852839E+02 -0.34507586055E+00 -0.15203368769E+02  0.28414757498E+02  0.00000000000E+00 0.  1.
</event>
<event>
 7    1  0.7596051E-010  0.4778728E+02  0.7816164E-02  0.1312668E+00
        -11   -1    0    0    0    0  0.00000000000E+00  0.00000000000E+00  0.45593999997E+02  0.45594000000E+02  0.51100000000E-03 0. -1.
         11   -1    0    0    0    0 -0.00000000000E+00 -0.00000000000E+00 -0.45593999997E+02  0.45594000000E+02  0.51100000000E-03 0.  1.
    9900012    2    1    2    0    0  0.25258368195E+02  0.10102081621E+02  0.33816943594E+02  0.47787275455E+02  0.20000020111E+02 0.  0.
        -12    1    1    2    0    0 -0.25258368195E+02 -0.10102081621E+02 -0.33816943594E+02  0.43400724545E+02  0.00000000000E+00 0.  1.
         11    1    3    3    0    0  0.84466271835E+01 -0.62844768827E+00  0.98252424379E+01  0.12972118042E+02  0.51100000000E-03 0. -1.
        -11    1    3    3    0    0  0.13636740669E+02 -0.26607153579E+00  0.11184589176E+02  0.17638779023E+02  0.51100000000E-03 0.  1.
         12    1    3    3    0    0  0.31750003431E+01  0.10996600845E+02  0.12807111980E+02  0.17176378390E+02  0.00000000000E+00 0. -1.
</event>
<event>
 7    1  0.9209014E-010  0.4778727E+02  0.7816164E-02  0.1312668E+00
        -11   -1    0    0    0    0  0.00000000000E+00  0.00000000000E+00  0.45593999997E+02  0.45594000000E+02  0.51100000000E-03 0. -1.
         11   -1    0    0    0    0 -0.00000000000E+00 -0.00000000000E+00 -0.45593999997E+02  0.45594000000E+02  0.51100000000E-03 0.  1.
    9900012    2    1    2    0    0 -0.91409876355E+01 -0.31938946666E+02  0.27927930064E+02  0.47787271357E+02  0.20000001424E+02 0.  0.
        -12    1    1    2    0    0  0.91409876355E+01  0.31938946666E+02 -0.27927930064E+02  0.43400728643E+02  0.00000000000E+00 0.  1.
         11    1    3    3    0    0 -0.32299640893E+01 -0.65401354372E+01  0.12935301958E+02  0.14850187762E+02  0.51100000000E-03 0. -1.
        -11    1    3    3    0    0 -0.23688884683E+01  0.98486994144E+00  0.45407956769E+00  0.26053387287E+01  0.51100000000E-03 0.  1.
         12    1    3    3    0    0 -0.35421350779E+01 -0.26383681171E+02  0.14538548538E+02  0.30331744866E+02  0.00000000000E+00 0. -1.
</event>
<event>
 7    1  0.7596051E-010  0.4778728E+02  0.7816164E-02  0.1312668E+00
        -11   -1    0    0    0    0  0.00000000000E+00  0.00000000000E+00  0.45593999997E+02  0.45594000000E+02  0.51100000000E-03 0. -1.
         11   -1    0    0    0    0 -0.00000000000E+00 -0.00000000000E+00 -0.45593999997E+02  0.45594000000E+02  0.51100000000E-03 0.  1.
    9900012    2    1    2    0    0  0.18128380506E+02  0.14955511501E+02  0.36487212408E+02  0.47787283723E+02  0.20000057806E+02 0.  0.
        -12    1    1    2    0    0 -0.18128380506E+02 -0.14955511501E+02 -0.36487212408E+02  0.43400716277E+02  0.00000000000E+00 0.  1.
         11    1    3    3    0    0  0.17424885509E+02  0.94838719135E+01  0.30399212613E+02  0.36299897924E+02  0.51100000000E-03 0. -1.
        -11    1    3    3    0    0  0.10671003052E+01 -0.63017114275E+00  0.51575379750E+01  0.53043394457E+01  0.51100000000E-03 0.  1.
        -12    1    3    3    0    0 -0.36360530824E+00  0.61018107307E+01  0.93046181978E+00  0.61830463537E+01  0.00000000000E+00 0.  1.
</event>
<event>
 7    1  0.7596051E-010  0.4778727E+02  0.7816164E-02  0.1312668E+00
        -11   -1    0    0    0    0  0.00000000000E+00  0.00000000000E+00  0.45593999997E+02  0.45594000000E+02  0.51100000000E-03 0. -1.
         11   -1    0    0    0    0 -0.00000000000E+00 -0.00000000000E+00 -0.45593999997E+02  0.45594000000E+02  0.51100000000E-03 0.  1.
    9900012    2    1    2    0    0  0.10953356083E+02  0.18697385754E+02 -0.37603924970E+02  0.47787269399E+02  0.19999992499E+02 0.  0.
         12    1    1    2    0    0 -0.10953356083E+02 -0.18697385754E+02  0.37603924970E+02  0.43400730601E+02  0.00000000000E+00 0. -1.
         11    1    3    3    0    0  0.31071276137E+01  0.21412694289E+01 -0.30151951840E+01  0.48301841615E+01  0.51100000000E-03 0. -1.
        -11    1    3    3    0    0  0.12160311143E+01  0.16344091344E+02 -0.31772351551E+02  0.35750389885E+02  0.51100000000E-03 0.  1.
        -12    1    3    3    0    0  0.66301973547E+01  0.21202498111E+00 -0.28163782348E+01  0.72066953533E+01  0.00000000000E+00 0.  1.
</event>
<event>
 7    1  0.7596051E-010  0.4778727E+02  0.7816164E-02  0.1312668E+00
        -11   -1    0    0    0    0  0.00000000000E+00  0.00000000000E+00  0.45593999997E+02  0.45594000000E+02  0.51100000000E-03 0. -1.
         11   -1    0    0    0    0 -0.00000000000E+00 -0.00000000000E+00 -0.45593999997E+02  0.45594000000E+02  0.51100000000E-03 0.  1.
    9900012    2    1    2    0    0  0.15581102918E+02  0.15935321880E+01  0.40476082612E+02  0.47787269861E+02  0.19999994605E+02 0.  0.
        -12    1    1    2    0    0 -0.15581102918E+02 -0.15935321880E+01 -0.40476082612E+02  0.43400730139E+02  0.00000000000E+00 0.  1.
         11    1    3    3    0    0  0.37543432681E+01 -0.33250151507E+01  0.13616686748E+02  0.14510857224E+02  0.51100000000E-03 0. -1.
        -11    1    3    3    0    0  0.78182614967E+01 -0.46609571116E+00  0.28312332463E+01  0.83281654642E+01  0.51100000000E-03 0.  1.
         12    1    3    3    0    0  0.40084981537E+01  0.53846430498E+01  0.24028162617E+02  0.24948247173E+02  0.00000000000E+00 0. -1.
</event>
<event>
 7    1  0.7596051E-010  0.4778727E+02  0.7816164E-02  0.1312668E+00
        -11   -1    0    0    0    0  0.00000000000E+00  0.00000000000E+00  0.45593999997E+02  0.45594000000E+02  0.51100000000E-03 0. -1.
         11   -1    0    0    0    0 -0.00000000000E+00 -0.00000000000E+00 -0.45593999997E+02  0.45594000000E+02  0.51100000000E-03 0.  1.
    9900012    2    1    2    0    0 -0.28466711349E+02 -0.28097960555E+02 -0.16845601371E+02  0.47787270422E+02  0.19999997161E+02 0.  0.
         12    1    1    2    0    0  0.28466711349E+02  0.28097960555E+02  0.16845601371E+02  0.43400729578E+02  0.00000000000E+00 0. -1.
         11    1    3    3    0    0 -0.91900808292E+01 -0.79140302339E+01 -0.85967340133E+01  0.14865843271E+02  0.51100000000E-03 0. -1.
        -11    1    3    3    0    0 -0.17014825141E+02 -0.18239340720E+02 -0.12363443794E+02  0.27839406732E+02  0.51100000000E-03 0.  1.
         12    1    3    3    0    0 -0.22618053785E+01 -0.19445896013E+01  0.41145764364E+01  0.50820204190E+01  0.00000000000E+00 0. -1.
</event>
<event>
 7    1  0.8342152E-010  0.4778725E+02  0.7816164E-02  0.1312668E+00
        -11   -1    0    0    0    0  0.00000000000E+00  0.00000000000E+00  0.45593999997E+02  0.45594000000E+02  0.51100000000E-03 0. -1.
         11   -1    0    0    0    0 -0.00000000000E+00 -0.00000000000E+00 -0.45593999997E+02  0.45594000000E+02  0.51100000000E-03 0.  1.
    9900012    2    1    2    0    0  0.90065949538E+01  0.17823578595E+02  0.38533440100E+02  0.47787254471E+02  0.19999924433E+02 0.  0.
        -12    1    1    2    0    0 -0.90065949538E+01 -0.17823578595E+02 -0.38533440100E+02  0.43400745529E+02  0.00000000000E+00 0.  1.
         11    1    3    3    0    0  0.75397194475E+01  0.16132192770E+02  0.34989528345E+02  0.39260184755E+02  0.51100000000E-03 0. -1.
        -11    1    3    3    0    0 -0.18718788096E+01 -0.78366380288E-01  0.42846507375E+01  0.46763558216E+01  0.51100000000E-03 0.  1.
         12    1    3    3    0    0  0.33387543159E+01  0.17697522059E+01 -0.74073898325E+00  0.38507138940E+01  0.00000000000E+00 0. -1.
</event>
<event>
 7    1  0.7596051E-010  0.4778727E+02  0.7816164E-02  0.1312668E+00
        -11   -1    0    0    0    0  0.00000000000E+00  0.00000000000E+00  0.45593999997E+02  0.45594000000E+02  0.51100000000E-03 0. -1.
         11   -1    0    0    0    0 -0.00000000000E+00 -0.00000000000E+00 -0.45593999997E+02  0.45594000000E+02  0.51100000000E-03 0.  1.
    9900012    2    1    2    0    0 -0.15592136575E+02 -0.40280766726E+02 -0.42389283797E+01  0.47787269536E+02  0.19999993122E+02 0.  0.
         12    1    1    2    0    0  0.15592136575E+02  0.40280766726E+02  0.42389283797E+01  0.43400730464E+02  0.00000000000E+00 0. -1.
         11    1    3    3    0    0 -0.62145611752E+01 -0.22239356419E+02 -0.10410569890E+01  0.23114790599E+02  0.51100000000E-03 0.  1.
        -11    1    3    3    0    0 -0.60467393032E+01 -0.12595585869E+02  0.44938900546E+01  0.14676746495E+02  0.51100000000E-03 0. -1.
         12    1    3    3    0    0 -0.33308360969E+01 -0.54458244372E+01 -0.76917614453E+01  0.99957324413E+01  0.00000000000E+00 0. -1.
</event>
<event>
 7    1  0.7596051E-010  0.4778727E+02  0.7816164E-02  0.1312668E+00
        -11   -1    0    0    0    0  0.00000000000E+00  0.00000000000E+00  0.45593999997E+02  0.45594000000E+02  0.51100000000E-03 0.  1.
         11   -1    0    0    0    0 -0.00000000000E+00 -0.00000000000E+00 -0.45593999997E+02  0.45594000000E+02  0.51100000000E-03 0. -1.
    9900012    2    1    2    0    0 -0.33529836133E+02  0.27373161101E+02 -0.31754166621E+01  0.47787272694E+02  0.20000007520E+02 0.  0.
         12    1    1    2    0    0  0.33529836133E+02 -0.27373161101E+02  0.31754166621E+01  0.43400727306E+02  0.00000000000E+00 0. -1.
         11    1    3    3    0    0 -0.33623378885E+01  0.82697335635E+01 -0.13251061011E+01  0.90249496247E+01  0.51100000000E-03 0. -1.
        -11    1    3    3    0    0 -0.24230159479E+01  0.74870922864E+01 -0.35566250578E+01  0.86358056516E+01  0.51100000000E-03 0.  1.
         12    1    3    3    0    0 -0.27744482296E+02  0.11616335251E+02  0.17063144968E+01  0.30126517418E+02  0.00000000000E+00 0. -1.
</event>
<event>
 7    1  0.7596051E-010  0.4778727E+02  0.7816164E-02  0.1312668E+00
        -11   -1    0    0    0    0  0.00000000000E+00  0.00000000000E+00  0.45593999997E+02  0.45594000000E+02  0.51100000000E-03 0. -1.
         11   -1    0    0    0    0 -0.00000000000E+00 -0.00000000000E+00 -0.45593999997E+02  0.45594000000E+02  0.51100000000E-03 0.  1.
    9900012    2    1    2    0    0  0.11920275093E+02  0.13346322497E+02 -0.39539934617E+02  0.47787265997E+02  0.19999976986E+02 0.  0.
         12    1    1    2    0    0 -0.11920275093E+02 -0.13346322497E+02  0.39539934617E+02  0.43400734003E+02  0.00000000000E+00 0. -1.
         11    1    3    3    0    0  0.82275924541E+01  0.15181049228E+02 -0.21449028620E+02  0.27535765148E+02  0.51100000000E-03 0. -1.
        -11    1    3    3    0    0  0.55307130456E+01 -0.58929788197E+00 -0.70007508292E+01  0.89412846515E+01  0.51100000000E-03 0.  1.
        -12    1    3    3    0    0 -0.18380304062E+01 -0.12454288495E+01 -0.11090155168E+02  0.11310216198E+02  0.00000000000E+00 0.  1.
</event>
<event>
 7    1  0.7596051E-010  0.4778728E+02  0.7816164E-02  0.1312668E+00
        -11   -1    0    0    0    0  0.00000000000E+00  0.00000000000E+00  0.45593999997E+02  0.45594000000E+02  0.51100000000E-03 0. -1.
         11   -1    0    0    0    0 -0.00000000000E+00 -0.00000000000E+00 -0.45593999997E+02  0.45594000000E+02  0.51100000000E-03 0.  1.
    9900012    2    1    2    0    0 -0.12543074619E+02  0.91052688702E+01 -0.40538725354E+02  0.47787275405E+02  0.20000019880E+02 0.  0.
         12    1    1    2    0    0  0.12543074619E+02 -0.91052688702E+01  0.40538725354E+02  0.43400724595E+02  0.00000000000E+00 0. -1.
         11    1    3    3    0    0 -0.97414942078E+01  0.16997340594E+01 -0.20944830864E+02  0.23161859715E+02  0.51100000000E-03 0. -1.
        -11    1    3    3    0    0 -0.46938984363E+01  0.86311064140E+01 -0.20047629681E+02  0.22325683339E+02  0.51100000000E-03 0.  1.
         12    1    3    3    0    0  0.18923180250E+01 -0.12255716033E+01  0.45373519100E+00  0.22997323510E+01  0.00000000000E+00 0. -1.
</event>
<event>
 7    1  0.7596051E-010  0.4778727E+02  0.7816164E-02  0.1312668E+00
        -11   -1    0    0    0    0  0.00000000000E+00  0.00000000000E+00  0.45593999997E+02  0.45594000000E+02  0.51100000000E-03 0. -1.
         11   -1    0    0    0    0 -0.00000000000E+00 -0.00000000000E+00 -0.45593999997E+02  0.45594000000E+02  0.51100000000E-03 0.  1.
    9900012    2    1    2    0    0  0.23417980252E+01  0.19181616681E+01 -0.43295029693E+02  0.47787274680E+02  0.20000016577E+02 0.  0.
         12    1    1    2    0    0 -0.23417980252E+01 -0.19181616681E+01  0.43295029693E+02  0.43400725320E+02  0.00000000000E+00 0. -1.
         11    1    3    3    0    0 -0.47157885000E+01  0.69673227841E+01 -0.95458474334E+01  0.12724207301E+02  0.51100000000E-03 0. -1.
        -11    1    3    3    0    0  0.14615018969E+01  0.57721608394E+00 -0.53413792330E+01  0.55677193333E+01  0.51100000000E-03 0.  1.
         12    1    3    3    0    0  0.55960846283E+01 -0.56263772000E+01 -0.28407803027E+02  0.29495348046E+02  0.00000000000E+00 0. -1.
</event>
<event>
 7    1  0.7596051E-010  0.4778727E+02  0.7816164E-02  0.1312668E+00
        -11   -1    0    0    0    0  0.00000000000E+00  0.00000000000E+00  0.45593999997E+02  0.45594000000E+02  0.51100000000E-03 0. -1.
         11   -1    0    0    0    0 -0.00000000000E+00 -0.00000000000E+00 -0.45593999997E+02  0.45594000000E+02  0.51100000000E-03 0.  1.
    9900012    2    1    2    0    0 -0.47056523223E+00 -0.17789485362E+02  0.39584540426E+02  0.47787273487E+02  0.20000011138E+02 0.  0.
        -12    1    1    2    0    0  0.47056523223E+00  0.17789485362E+02 -0.39584540426E+02  0.43400726513E+02  0.00000000000E+00 0.  1.
         11    1    3    3    0    0  0.17569308820E+01 -0.18941370209E+01  0.74432451695E+01  0.78788615988E+01  0.51100000000E-03 0. -1.
        -11    1    3    3    0    0 -0.81106102777E+01 -0.49313717075E+01  0.21626447777E+02  0.23617867594E+02  0.51100000000E-03 0.  1.
        -12    1    3    3    0    0  0.58831141634E+01 -0.10963976634E+02  0.10514847480E+02  0.16290544294E+02  0.00000000000E+00 0.  1.
</event>
<event>
 7    1  0.7825282E-010  0.4778727E+02  0.7816164E-02  0.1312668E+00
        -11   -1    0    0    0    0  0.00000000000E+00  0.00000000000E+00  0.45593999997E+02  0.45594000000E+02  0.51100000000E-03 0. -1.
         11   -1    0    0    0    0 -0.00000000000E+00 -0.00000000000E+00 -0.45593999997E+02  0.45594000000E+02  0.51100000000E-03 0.  1.
    9900012    2    1    2    0    0 -0.14745295622E+02  0.12558539267E+02  0.38839189363E+02  0.47787270952E+02  0.19999999579E+02 0.  0.
        -12    1    1    2    0    0  0.14745295622E+02 -0.12558539267E+02 -0.38839189363E+02  0.43400729048E+02  0.00000000000E+00 0.  1.
         11    1    3    3    0    0 -0.44508518752E+00  0.53781815651E+01  0.15807172816E+02  0.16702983281E+02  0.51100000000E-03 0. -1.
        -11    1    3    3    0    0 -0.35375107916E+01  0.87932921213E+01  0.73409409790E+01  0.11988552192E+02  0.51100000000E-03 0.  1.
         12    1    3    3    0    0 -0.10762699642E+02 -0.16129344196E+01  0.15691075568E+02  0.19095735480E+02  0.00000000000E+00 0. -1.
</event>
<event>
 7    1  0.7826205E-010  0.4778727E+02  0.7816164E-02  0.1312668E+00
        -11   -1    0    0    0    0  0.00000000000E+00  0.00000000000E+00  0.45593999997E+02  0.45594000000E+02  0.51100000000E-03 0. -1.
         11   -1    0    0    0    0 -0.00000000000E+00 -0.00000000000E+00 -0.45593999997E+02  0.45594000000E+02  0.51100000000E-03 0.  1.
    9900012    2    1    2    0    0 -0.12302330018E+02 -0.10972449006E+02  0.40148241238E+02  0.47787271486E+02  0.20000002012E+02 0.  0.
        -12    1    1    2    0    0  0.12302330018E+02  0.10972449006E+02 -0.40148241238E+02  0.43400728514E+02  0.00000000000E+00 0.  1.
         11    1    3    3    0    0 -0.15434075402E+01 -0.98434694890E+00 -0.15614712347E+01  0.24060836289E+01  0.51100000000E-03 0. -1.
        -11    1    3    3    0    0 -0.11643320880E+01  0.16664873413E+01  0.10709874403E+02  0.10901112753E+02  0.51100000000E-03 0.  1.
         12    1    3    3    0    0 -0.95945903894E+01 -0.11654589398E+02  0.30999838070E+02  0.34480075104E+02  0.00000000000E+00 0. -1.
</event>
<event>
 7    1  0.7596051E-010  0.4778727E+02  0.7816164E-02  0.1312668E+00
        -11   -1    0    0    0    0  0.00000000000E+00  0.00000000000E+00  0.45593999997E+02  0.45594000000E+02  0.51100000000E-03 0. -1.
         11   -1    0    0    0    0 -0.00000000000E+00 -0.00000000000E+00 -0.45593999997E+02  0.45594000000E+02  0.51100000000E-03 0.  1.
    9900012    2    1    2    0    0  0.18737767432E+01 -0.26887323768E+02  0.34017407471E+02  0.47787271553E+02  0.20000002318E+02 0.  0.
        -12    1    1    2    0    0 -0.18737767432E+01  0.26887323768E+02 -0.34017407471E+02  0.43400728447E+02  0.00000000000E+00 0.  1.
         11    1    3    3    0    0 -0.22554152995E+01 -0.87749618331E+01  0.17423944816E+02  0.19638755219E+02  0.51100000000E-03 0. -1.
        -11    1    3    3    0    0 -0.47616007072E+01 -0.74093892557E+01  0.59196696438E+01  0.10611992244E+02  0.51100000000E-03 0.  1.
         12    1    3    3    0    0  0.88907927499E+01 -0.10702972680E+02  0.10673793011E+02  0.17536524089E+02  0.00000000000E+00 0. -1.
</event>
<event>
 7    1  0.7596051E-010  0.4778727E+02  0.7816164E-02  0.1312668E+00
        -11   -1    0    0    0    0  0.00000000000E+00  0.00000000000E+00  0.45593999997E+02  0.45594000000E+02  0.51100000000E-03 0. -1.
         11   -1    0    0    0    0 -0.00000000000E+00 -0.00000000000E+00 -0.45593999997E+02  0.45594000000E+02  0.51100000000E-03 0.  1.
    9900012    2    1    2    0    0 -0.23330967807E+01  0.14825067014E+02 -0.40723422174E+02  0.47787273438E+02  0.20000010913E+02 0.  0.
         12    1    1    2    0    0  0.23330967807E+01 -0.14825067014E+02  0.40723422174E+02  0.43400726562E+02  0.00000000000E+00 0. -1.
         11    1    3    3    0    0 -0.23658924948E+01 -0.25757099778E+01 -0.10120861272E+02  0.10708107318E+02  0.51100000000E-03 0. -1.
        -11    1    3    3    0    0 -0.13421073896E+01 -0.11120619784E+01 -0.60654546636E+01  0.63109170987E+01  0.51100000000E-03 0.  1.
        -12    1    3    3    0    0  0.13749031037E+01  0.18512838970E+02 -0.24537106238E+02  0.30768249021E+02  0.00000000000E+00 0.  1.
</event>
<event>
 7    1  0.7596051E-010  0.4778727E+02  0.7816164E-02  0.1312668E+00
        -11   -1    0    0    0    0  0.00000000000E+00  0.00000000000E+00  0.45593999997E+02  0.45594000000E+02  0.51100000000E-03 0. -1.
         11   -1    0    0    0    0 -0.00000000000E+00 -0.00000000000E+00 -0.45593999997E+02  0.45594000000E+02  0.51100000000E-03 0.  1.
    9900012    2    1    2    0    0  0.15006544994E+02  0.34227377928E+02  0.22066115953E+02  0.47787271138E+02  0.20000000426E+02 0.  0.
        -12    1    1    2    0    0 -0.15006544994E+02 -0.34227377928E+02 -0.22066115953E+02  0.43400728862E+02  0.00000000000E+00 0.  1.
         11    1    3    3    0    0  0.56335071510E+00  0.13237580086E+02  0.47376930294E+01  0.14071127392E+02  0.51100000000E-03 0.  1.
        -11    1    3    3    0    0  0.49615399192E+01  0.16877796865E+02  0.15007992032E+02  0.23123942797E+02  0.51100000000E-03 0. -1.
         12    1    3    3    0    0  0.94816543593E+01  0.41120009772E+01  0.23204308921E+01  0.10592200949E+02  0.00000000000E+00 0. -1.
</event>
<event>
 7    1  0.7596051E-010  0.4778727E+02  0.7816164E-02  0.1312668E+00
        -11   -1    0    0    0    0  0.00000000000E+00  0.00000000000E+00  0.45593999997E+02  0.45594000000E+02  0.51100000000E-03 0. -1.
         11   -1    0    0    0    0 -0.00000000000E+00 -0.00000000000E+00 -0.45593999997E+02  0.45594000000E+02  0.51100000000E-03 0.  1.
    9900012    2    1    2    0    0 -0.25069293242E+01 -0.29084993895E+02  0.32115443391E+02  0.47787271104E+02  0.20000000274E+02 0.  0.
        -12    1    1    2    0    0  0.25069293242E+01  0.29084993895E+02 -0.32115443391E+02  0.43400728896E+02  0.00000000000E+00 0.  1.
         11    1    3    3    0    0  0.29089453188E+01 -0.73460846244E+01  0.67228866120E+01  0.10374204877E+02  0.51100000000E-03 0.  1.
        -11    1    3    3    0    0  0.10242607174E+01 -0.15215722200E+02  0.23560155296E+02  0.28065071351E+02  0.51100000000E-03 0. -1.
         12    1    3    3    0    0 -0.64401353605E+01 -0.65231870698E+01  0.18324014823E+01  0.93479948760E+01  0.00000000000E+00 0. -1.
</event>
<event>
 7    1  0.7596051E-010  0.4778727E+02  0.7816164E-02  0.1312668E+00
        -11   -1    0    0    0    0  0.00000000000E+00  0.00000000000E+00  0.45593999997E+02  0.45594000000E+02  0.51100000000E-03 0. -1.
         11   -1    0    0    0    0 -0.00000000000E+00 -0.00000000000E+00 -0.45593999997E+02  0.45594000000E+02  0.51100000000E-03 0.  1.
    9900012    2    1    2    0    0  0.19129754640E+02  0.52095414471E+01 -0.38607463907E+02  0.47787273001E+02  0.20000008920E+02 0.  0.
         12    1    1    2    0    0 -0.19129754640E+02 -0.52095414471E+01  0.38607463907E+02  0.43400726999E+02  0.00000000000E+00 0. -1.
         11    1    3    3    0    0  0.13209074933E+01 -0.36041080080E+01 -0.52287138156E+01  0.64864350429E+01  0.51100000000E-03 0. -1.
        -11    1    3    3    0    0  0.67188950278E+01 -0.22134619329E+01 -0.42866425908E+01  0.82715336598E+01  0.51100000000E-03 0.  1.
        -12    1    3    3    0    0  0.11089952119E+02  0.11027111388E+02 -0.29092107501E+02  0.33029304298E+02  0.00000000000E+00 0.  1.
</event>
<event>
 7    1  0.7596051E-010  0.4778727E+02  0.7816164E-02  0.1312668E+00
        -11   -1    0    0    0    0  0.00000000000E+00  0.00000000000E+00  0.45593999997E+02  0.45594000000E+02  0.51100000000E-03 0. -1.
         11   -1    0    0    0    0 -0.00000000000E+00 -0.00000000000E+00 -0.45593999997E+02  0.45594000000E+02  0.51100000000E-03 0.  1.
    9900012    2    1    2    0    0 -0.31983782085E+02  0.16838193820E+02  0.24023659292E+02  0.47787270820E+02  0.19999998977E+02 0.  0.
        -12    1    1    2    0    0  0.31983782085E+02 -0.16838193820E+02 -0.24023659292E+02  0.43400729180E+02  0.00000000000E+00 0.  1.
         11    1    3    3    0    0 -0.18848237741E+02  0.11740247061E+02  0.11801803612E+02  0.25147008485E+02  0.51100000000E-03 0. -1.
        -11    1    3    3    0    0 -0.13182419779E+02  0.26593958211E+01  0.39496713020E+01  0.14016008027E+02  0.51100000000E-03 0.  1.
        -12    1    3    3    0    0  0.46875434994E-01  0.24385509378E+01  0.82721843779E+01  0.86242543078E+01  0.00000000000E+00 0.  1.
</event>
<event>
 7    1  0.7596051E-010  0.4778727E+02  0.7816164E-02  0.1312668E+00
        -11   -1    0    0    0    0  0.00000000000E+00  0.00000000000E+00  0.45593999997E+02  0.45594000000E+02  0.51100000000E-03 0. -1.
         11   -1    0    0    0    0 -0.00000000000E+00 -0.00000000000E+00 -0.45593999997E+02  0.45594000000E+02  0.51100000000E-03 0.  1.
    9900012    2    1    2    0    0  0.27356176952E+02 -0.25172509581E+02  0.22396591590E+02  0.47787274535E+02  0.20000015914E+02 0.  0.
        -12    1    1    2    0    0 -0.27356176952E+02  0.25172509581E+02 -0.22396591590E+02  0.43400725465E+02  0.00000000000E+00 0.  1.
         11    1    3    3    0    0  0.53215314572E+01 -0.12060534731E+02  0.89379213293E+01  0.15926758396E+02  0.51100000000E-03 0. -1.
        -11    1    3    3    0    0  0.12184029133E+02 -0.14485293509E+02  0.85612285343E+01  0.20774237128E+02  0.51100000000E-03 0.  1.
        -12    1    3    3    0    0  0.98506163614E+01  0.13733186595E+01  0.48974417267E+01  0.11086279011E+02  0.00000000000E+00 0.  1.
</event>
<event>
 7    1  0.7596051E-010  0.4778728E+02  0.7816164E-02  0.1312668E+00
        -11   -1    0    0    0    0  0.00000000000E+00  0.00000000000E+00  0.45593999997E+02  0.45594000000E+02  0.51100000000E-03 0. -1.
         11   -1    0    0    0    0 -0.00000000000E+00 -0.00000000000E+00 -0.45593999997E+02  0.45594000000E+02  0.51100000000E-03 0.  1.
    9900012    2    1    2    0    0  0.41579488308E+01 -0.28622656589E+01  0.43106167945E+02  0.47787276296E+02  0.20000023943E+02 0.  0.
        -12    1    1    2    0    0 -0.41579488308E+01  0.28622656589E+01 -0.43106167945E+02  0.43400723704E+02  0.00000000000E+00 0.  1.
         11    1    3    3    0    0  0.42463363474E+01 -0.57569011165E+01  0.13959180238E+02  0.15685407104E+02  0.51100000000E-03 0. -1.
        -11    1    3    3    0    0  0.57731708204E+01  0.43891888259E+01  0.13468130739E+02  0.15296569084E+02  0.51100000000E-03 0.  1.
        -12    1    3    3    0    0 -0.58615583370E+01 -0.14945533683E+01  0.15678856967E+02  0.16805300108E+02  0.00000000000E+00 0.  1.
</event>
<event>
 7    1  0.7596051E-010  0.4778727E+02  0.7816164E-02  0.1312668E+00
        -11   -1    0    0    0    0  0.00000000000E+00  0.00000000000E+00  0.45593999997E+02  0.45594000000E+02  0.51100000000E-03 0. -1.
         11   -1    0    0    0    0 -0.00000000000E+00 -0.00000000000E+00 -0.45593999997E+02  0.45594000000E+02  0.51100000000E-03 0.  1.
    9900012    2    1    2    0    0  0.18713955643E+01 -0.39902933063E+02 -0.16966945858E+02  0.47787269129E+02  0.19999991266E+02 0.  0.
         12    1    1    2    0    0 -0.18713955643E+01  0.39902933063E+02  0.16966945858E+02  0.43400730871E+02  0.00000000000E+00 0. -1.
         11    1    3    3    0    0 -0.17501534519E+01 -0.23940155780E+02 -0.18074015833E+02  0.30047697823E+02  0.51100000000E-03 0. -1.
        -11    1    3    3    0    0 -0.13977347288E+00 -0.72552426762E+01 -0.23751198271E+01  0.76353963465E+01  0.51100000000E-03 0.  1.
         12    1    3    3    0    0  0.37613224891E+01 -0.87075346065E+01  0.34821898015E+01  0.10104174959E+02  0.00000000000E+00 0. -1.
</event>
<event>
 7    1  0.7596051E-010  0.4778725E+02  0.7816164E-02  0.1312668E+00
        -11   -1    0    0    0    0  0.00000000000E+00  0.00000000000E+00  0.45593999997E+02  0.45594000000E+02  0.51100000000E-03 0.  1.
         11   -1    0    0    0    0 -0.00000000000E+00 -0.00000000000E+00 -0.45593999997E+02  0.45594000000E+02  0.51100000000E-03 0. -1.
    9900012    2    1    2    0    0 -0.30155650998E+02 -0.28506230971E+02 -0.12714420990E+02  0.47787251246E+02  0.19999909729E+02 0.  0.
        -12    1    1    2    0    0  0.30155650998E+02  0.28506230971E+02  0.12714420990E+02  0.43400748754E+02  0.00000000000E+00 0.  1.
         11    1    3    3    0    0 -0.62101651330E+01 -0.35310768134E+01 -0.15515909145E+01  0.73104096375E+01  0.51100000000E-03 0. -1.
        -11    1    3    3    0    0 -0.40894536015E+01 -0.16322562040E+02 -0.19505229356E+01  0.16939722616E+02  0.51100000000E-03 0.  1.
        -12    1    3    3    0    0 -0.19856032264E+02 -0.86525921178E+01 -0.92123071400E+01  0.23537118992E+02  0.00000000000E+00 0.  1.
</event>
<event>
 7    1  0.7596051E-010  0.4778728E+02  0.7816164E-02  0.1312668E+00
        -11   -1    0    0    0    0  0.00000000000E+00  0.00000000000E+00  0.45593999997E+02  0.45594000000E+02  0.51100000000E-03 0. -1.
         11   -1    0    0    0    0 -0.00000000000E+00 -0.00000000000E+00 -0.45593999997E+02  0.45594000000E+02  0.51100000000E-03 0.  1.
    9900012    2    1    2    0    0  0.30109580898E+02 -0.66029097646E+01  0.30552201504E+02  0.47787282311E+02  0.20000051367E+02 0.  0.
        -12    1    1    2    0    0 -0.30109580898E+02  0.66029097646E+01 -0.30552201504E+02  0.43400717689E+02  0.00000000000E+00 0.  1.
         11    1    3    3    0    0  0.92699768123E+01 -0.26654637770E+00  0.17668702159E+02  0.19954612332E+02  0.51100000000E-03 0. -1.
        -11    1    3    3    0    0  0.73993014488E+01 -0.92078658533E+00  0.10901236401E+02  0.13207364052E+02  0.51100000000E-03 0.  1.
        -12    1    3    3    0    0  0.13440302637E+02 -0.54155768016E+01  0.19822629437E+01  0.14625305926E+02  0.00000000000E+00 0.  1.
</event>
<event>
 7    1  0.7596051E-010  0.4778727E+02  0.7816164E-02  0.1312668E+00
        -11   -1    0    0    0    0  0.00000000000E+00  0.00000000000E+00  0.45593999997E+02  0.45594000000E+02  0.51100000000E-03 0. -1.
         11   -1    0    0    0    0 -0.00000000000E+00 -0.00000000000E+00 -0.45593999997E+02  0.45594000000E+02  0.51100000000E-03 0.  1.
    9900012    2    1    2    0    0  0.36996443625E+02  0.11981004798E+02 -0.19270238649E+02  0.47787269425E+02  0.19999992616E+02 0.  0.
         12    1    1    2    0    0 -0.36996443625E+02 -0.11981004798E+02  0.19270238649E+02  0.43400730575E+02  0.00000000000E+00 0. -1.
         11    1    3    3    0    0  0.20875923701E+01 -0.19189807641E+01 -0.46605171797E+01  0.54553597241E+01  0.51100000000E-03 0. -1.
        -11    1    3    3    0    0  0.13036207544E+02  0.77196155798E+00 -0.99080112794E+01  0.16392294518E+02  0.51100000000E-03 0.  1.
        -12    1    3    3    0    0  0.21872643711E+02  0.13128024004E+02 -0.47017101899E+01  0.25939615183E+02  0.00000000000E+00 0.  1.
</event>
<event>
 7    1  0.7596051E-010  0.4778726E+02  0.7816164E-02  0.1312668E+00
        -11   -1    0    0    0    0  0.00000000000E+00  0.00000000000E+00  0.45593999997E+02  0.45594000000E+02  0.51100000000E-03 0. -1.
         11   -1    0    0    0    0 -0.00000000000E+00 -0.00000000000E+00 -0.45593999997E+02  0.45594000000E+02  0.51100000000E-03 0.  1.
    9900012    2    1    2    0    0 -0.12147928268E+02 -0.26382926775E+02 -0.32248931109E+02  0.47787256411E+02  0.19999933280E+02 0.  0.
         12    1    1    2    0    0  0.12147928268E+02  0.26382926775E+02  0.32248931109E+02  0.43400743589E+02  0.00000000000E+00 0. -1.
         11    1    3    3    0    0  0.29948305827E+01  0.12308807777E+01 -0.39984561658E+01  0.51450684814E+01  0.51100000000E-03 0. -1.
        -11    1    3    3    0    0 -0.25806883351E+01 -0.46166744583E+01 -0.23158806184E+01  0.57738149118E+01  0.51100000000E-03 0.  1.
        -12    1    3    3    0    0 -0.12562070515E+02 -0.22997133094E+02 -0.25934594325E+02  0.36868373018E+02  0.00000000000E+00 0.  1.
</event>
<event>
 7    1  0.7596051E-010  0.4778727E+02  0.7816164E-02  0.1312668E+00
        -11   -1    0    0    0    0  0.00000000000E+00  0.00000000000E+00  0.45593999997E+02  0.45594000000E+02  0.51100000000E-03 0. -1.
         11   -1    0    0    0    0 -0.00000000000E+00 -0.00000000000E+00 -0.45593999997E+02  0.45594000000E+02  0.51100000000E-03 0.  1.
    9900012    2    1    2    0    0  0.34965898480E+02 -0.15380334130E+02  0.20602294846E+02  0.47787270889E+02  0.19999999290E+02 0.  0.
        -12    1    1    2    0    0 -0.34965898480E+02  0.15380334130E+02 -0.20602294846E+02  0.43400729111E+02  0.00000000000E+00 0.  1.
         11    1    3    3    0    0  0.83281225038E+01 -0.30745636298E+01  0.35125635733E+01  0.95471812106E+01  0.51100000000E-03 0. -1.
        -11    1    3    3    0    0  0.80809973658E+01 -0.12741368611E+02  0.11116042850E+02  0.18740635032E+02  0.51100000000E-03 0.  1.
        -12    1    3    3    0    0  0.18556778610E+02  0.43559811020E+00  0.59736884222E+01  0.19499454646E+02  0.00000000000E+00 0.  1.
</event>
<event>
 7    1  0.7596051E-010  0.4778727E+02  0.7816164E-02  0.1312668E+00
        -11   -1    0    0    0    0  0.00000000000E+00  0.00000000000E+00  0.45593999997E+02  0.45594000000E+02  0.51100000000E-03 0. -1.
         11   -1    0    0    0    0 -0.00000000000E+00 -0.00000000000E+00 -0.45593999997E+02  0.45594000000E+02  0.51100000000E-03 0.  1.
    9900012    2    1    2    0    0 -0.14370960486E+02  0.81902635823E+01  0.40125030812E+02  0.47787273963E+02  0.20000013308E+02 0.  0.
        -12    1    1    2    0    0  0.14370960486E+02 -0.81902635823E+01 -0.40125030812E+02  0.43400726037E+02  0.00000000000E+00 0.  1.
         11    1    3    3    0    0 -0.62587199435E+01  0.14391377890E+01  0.21476047471E+02  0.22415693345E+02  0.51100000000E-03 0. -1.
        -11    1    3    3    0    0 -0.11959785813E+02  0.48942615453E+01  0.14346171970E+02  0.19308105118E+02  0.51100000000E-03 0.  1.
        -12    1    3    3    0    0  0.38475452712E+01  0.18568642479E+01  0.43028113712E+01  0.60634755005E+01  0.00000000000E+00 0.  1.
</event>
<event>
 7    1  0.7596051E-010  0.4778727E+02  0.7816164E-02  0.1312668E+00
        -11   -1    0    0    0    0  0.00000000000E+00  0.00000000000E+00  0.45593999997E+02  0.45594000000E+02  0.51100000000E-03 0. -1.
         11   -1    0    0    0    0 -0.00000000000E+00 -0.00000000000E+00 -0.45593999997E+02  0.45594000000E+02  0.51100000000E-03 0.  1.
    9900012    2    1    2    0    0  0.23341282708E+02  0.17320786032E+02 -0.32230395093E+02  0.47787268727E+02  0.19999989434E+02 0.  0.
         12    1    1    2    0    0 -0.23341282708E+02 -0.17320786032E+02  0.32230395093E+02  0.43400731273E+02  0.00000000000E+00 0. -1.
         11    1    3    3    0    0  0.40629848443E+01  0.10640493977E+01  0.32940563402E+00  0.42129034286E+01  0.51100000000E-03 0. -1.
        -11    1    3    3    0    0  0.85503275761E+01 -0.78788619459E+00 -0.73128585826E+01  0.11278597751E+02  0.51100000000E-03 0.  1.
        -12    1    3    3    0    0  0.10727970287E+02  0.17044622829E+02 -0.25246942144E+02  0.32295767548E+02  0.00000000000E+00 0.  1.
</event>
<event>
 7    1  0.7596051E-010  0.4778724E+02  0.7816164E-02  0.1312668E+00
        -11   -1    0    0    0    0  0.00000000000E+00  0.00000000000E+00  0.45593999997E+02  0.45594000000E+02  0.51100000000E-03 0. -1.
         11   -1    0    0    0    0 -0.00000000000E+00 -0.00000000000E+00 -0.45593999997E+02  0.45594000000E+02  0.51100000000E-03 0.  1.
    9900012    2    1    2    0    0  0.23974856359E+01 -0.29394067969E+02 -0.31841270314E+02  0.47787243505E+02  0.19999874436E+02 0.  0.
         12    1    1    2    0    0 -0.23974856359E+01  0.29394067969E+02  0.31841270314E+02  0.43400756495E+02  0.00000000000E+00 0. -1.
         11    1    3    3    0    0  0.41967074017E+01 -0.18354700770E+02 -0.66762106645E+01  0.19976966298E+02  0.51100000000E-03 0. -1.
        -11    1    3    3    0    0  0.13735240903E+00 -0.59179988883E+01 -0.92720941434E+01  0.11000604828E+02  0.51100000000E-03 0.  1.
         12    1    3    3    0    0 -0.19365741748E+01 -0.51213683113E+01 -0.15892965506E+02  0.16809672379E+02  0.00000000000E+00 0. -1.
</event>
<event>
 7    1  0.7596051E-010  0.4778727E+02  0.7816164E-02  0.1312668E+00
        -11   -1    0    0    0    0  0.00000000000E+00  0.00000000000E+00  0.45593999997E+02  0.45594000000E+02  0.51100000000E-03 0. -1.
         11   -1    0    0    0    0 -0.00000000000E+00 -0.00000000000E+00 -0.45593999997E+02  0.45594000000E+02  0.51100000000E-03 0.  1.
    9900012    2    1    2    0    0  0.17295428256E+02 -0.17960182102E+02 -0.35523556833E+02  0.47787273396E+02  0.20000010722E+02 0.  0.
         12    1    1    2    0    0 -0.17295428256E+02  0.17960182102E+02  0.35523556833E+02  0.43400726604E+02  0.00000000000E+00 0. -1.
         11    1    3    3    0    0  0.95173380701E+01 -0.32652390292E+01 -0.69895758994E+01  0.12251354267E+02  0.51100000000E-03 0. -1.
        -11    1    3    3    0    0  0.87934800172E+01 -0.31145049289E+01 -0.10158474314E+02  0.13792027857E+02  0.51100000000E-03 0.  1.
        -12    1    3    3    0    0 -0.10153898317E+01 -0.11580438143E+02 -0.18375506620E+02  0.21743891272E+02  0.00000000000E+00 0.  1.
</event>
<event>
 7    1  0.7596051E-010  0.4778727E+02  0.7816164E-02  0.1312668E+00
        -11   -1    0    0    0    0  0.00000000000E+00  0.00000000000E+00  0.45593999997E+02  0.45594000000E+02  0.51100000000E-03 0. -1.
         11   -1    0    0    0    0 -0.00000000000E+00 -0.00000000000E+00 -0.45593999997E+02  0.45594000000E+02  0.51100000000E-03 0.  1.
    9900012    2    1    2    0    0  0.26382423912E+02  0.17458623568E+02 -0.29711739919E+02  0.47787270543E+02  0.19999997714E+02 0.  0.
         12    1    1    2    0    0 -0.26382423912E+02 -0.17458623568E+02  0.29711739919E+02  0.43400729457E+02  0.00000000000E+00 0. -1.
         11    1    3    3    0    0  0.76340050320E+01  0.17579382406E+01 -0.48591914493E+01  0.92184663306E+01  0.51100000000E-03 0. -1.
        -11    1    3    3    0    0  0.78502342230E+01  0.40768463946E+01  0.23513052960E+00  0.88488496714E+01  0.51100000000E-03 0.  1.
        -12    1    3    3    0    0  0.10898184658E+02  0.11623838933E+02 -0.25087678999E+02  0.29719954541E+02  0.00000000000E+00 0.  1.
</event>
<event>
 7    1  0.7596051E-010  0.4778727E+02  0.7816164E-02  0.1312668E+00
        -11   -1    0    0    0    0  0.00000000000E+00  0.00000000000E+00  0.45593999997E+02  0.45594000000E+02  0.51100000000E-03 0. -1.
         11   -1    0    0    0    0 -0.00000000000E+00 -0.00000000000E+00 -0.45593999997E+02  0.45594000000E+02  0.51100000000E-03 0.  1.
    9900012    2    1    2    0    0  0.15151566586E+02 -0.15169193459E+00 -0.40669773809E+02  0.47787268645E+02  0.19999989061E+02 0.  0.
         12    1    1    2    0    0 -0.15151566586E+02  0.15169193459E+00  0.40669773809E+02  0.43400731355E+02  0.00000000000E+00 0. -1.
         11    1    3    3    0    0  0.39712092139E+01  0.21195961795E+00  0.90381984025E+00  0.40782741528E+01  0.51100000000E-03 0. -1.
        -11    1    3    3    0    0  0.47442156519E+01  0.35054768630E+00 -0.65699413484E+01  0.81113867751E+01  0.51100000000E-03 0.  1.
        -12    1    3    3    0    0  0.64361417204E+01 -0.71419923884E+00 -0.35003652301E+02  0.35597607717E+02  0.00000000000E+00 0.  1.
</event>
<event>
 7    1  0.7596051E-010  0.4778727E+02  0.7816164E-02  0.1312668E+00
        -11   -1    0    0    0    0  0.00000000000E+00  0.00000000000E+00  0.45593999997E+02  0.45594000000E+02  0.51100000000E-03 0. -1.
         11   -1    0    0    0    0 -0.00000000000E+00 -0.00000000000E+00 -0.45593999997E+02  0.45594000000E+02  0.51100000000E-03 0.  1.
    9900012    2    1    2    0    0  0.37120738616E+02  0.20283769398E+02  0.97078645596E+01  0.47787272233E+02  0.20000005420E+02 0.  0.
        -12    1    1    2    0    0 -0.37120738616E+02 -0.20283769398E+02 -0.97078645596E+01  0.43400727767E+02  0.00000000000E+00 0.  1.
         11    1    3    3    0    0  0.40361515349E+01 -0.62549619681E+00  0.22240008442E+01  0.46505854170E+01  0.51100000000E-03 0.  1.
        -11    1    3    3    0    0  0.27674442749E+02  0.23224891701E+02  0.86212175516E+01  0.37142910068E+02  0.51100000000E-03 0. -1.
         12    1    3    3    0    0  0.54101443317E+01 -0.23156261064E+01 -0.11373538362E+01  0.59937767478E+01  0.00000000000E+00 0. -1.
</event>
<event>
 7    1  0.7596051E-010  0.4778727E+02  0.7816164E-02  0.1312668E+00
        -11   -1    0    0    0    0  0.00000000000E+00  0.00000000000E+00  0.45593999997E+02  0.45594000000E+02  0.51100000000E-03 0. -1.
         11   -1    0    0    0    0 -0.00000000000E+00 -0.00000000000E+00 -0.45593999997E+02  0.45594000000E+02  0.51100000000E-03 0.  1.
    9900012    2    1    2    0    0  0.25604721118E+02 -0.33673958362E+00 -0.35041523954E+02  0.47787268000E+02  0.19999986120E+02 0.  0.
         12    1    1    2    0    0 -0.25604721118E+02  0.33673958362E+00  0.35041523954E+02  0.43400732000E+02  0.00000000000E+00 0. -1.
         11    1    3    3    0    0  0.76374649137E+01 -0.15955290714E+01 -0.19432852353E+02  0.20940686095E+02  0.51100000000E-03 0. -1.
        -11    1    3    3    0    0  0.10882434122E+01  0.26131684389E+01 -0.76095987435E+01  0.81190465150E+01  0.51100000000E-03 0.  1.
         12    1    3    3    0    0  0.16879012792E+02 -0.13543789511E+01 -0.79990728582E+01  0.18727535390E+02  0.00000000000E+00 0. -1.
</event>
<event>
 7    1  0.7596051E-010  0.4778727E+02  0.7816164E-02  0.1312668E+00
        -11   -1    0    0    0    0  0.00000000000E+00  0.00000000000E+00  0.45593999997E+02  0.45594000000E+02  0.51100000000E-03 0. -1.
         11   -1    0    0    0    0 -0.00000000000E+00 -0.00000000000E+00 -0.45593999997E+02  0.45594000000E+02  0.51100000000E-03 0.  1.
    9900012    2    1    2    0    0  0.36433804149E+01 -0.82062358513E+01 -0.42461827281E+02  0.47787270700E+02  0.19999998430E+02 0.  0.
         12    1    1    2    0    0 -0.36433804149E+01  0.82062358513E+01  0.42461827281E+02  0.43400729300E+02  0.00000000000E+00 0. -1.
         11    1    3    3    0    0 -0.10649098979E+01  0.70136672523E+00  0.56713665159E+00  0.13955617566E+01  0.51100000000E-03 0.  1.
        -11    1    3    3    0    0 -0.25100659066E+01 -0.43277066757E+00 -0.72606470907E+00  0.26485640504E+01  0.51100000000E-03 0. -1.
        -12    1    3    3    0    0  0.72183562194E+01 -0.84748319089E+01 -0.42302899224E+02  0.43743144893E+02  0.00000000000E+00 0.  1.
</event>
<event>
 7    1  0.7596051E-010  0.4778727E+02  0.7816164E-02  0.1312668E+00
        -11   -1    0    0    0    0  0.00000000000E+00  0.00000000000E+00  0.45593999997E+02  0.45594000000E+02  0.51100000000E-03 0. -1.
         11   -1    0    0    0    0 -0.00000000000E+00 -0.00000000000E+00 -0.45593999997E+02  0.45594000000E+02  0.51100000000E-03 0.  1.
    9900012    2    1    2    0    0  0.30728317753E+02  0.12388847935E+02 -0.28034089823E+02  0.47787271236E+02  0.20000000872E+02 0.  0.
         12    1    1    2    0    0 -0.30728317753E+02 -0.12388847935E+02  0.28034089823E+02  0.43400728764E+02  0.00000000000E+00 0. -1.
         11    1    3    3    0    0  0.59160279562E+01 -0.22157008651E+01 -0.28440059219E+01  0.69279930028E+01  0.51100000000E-03 0.  1.
        -11    1    3    3    0    0  0.16094122768E+02  0.65564233034E+01 -0.22945622506E+02  0.28783833425E+02  0.51100000000E-03 0. -1.
         12    1    3    3    0    0  0.87181670282E+01  0.80481254969E+01 -0.22444613951E+01  0.12075444808E+02  0.00000000000E+00 0. -1.
</event>
<event>
 7    1  0.7596051E-010  0.4778727E+02  0.7816164E-02  0.1312668E+00
        -11   -1    0    0    0    0  0.00000000000E+00  0.00000000000E+00  0.45593999997E+02  0.45594000000E+02  0.51100000000E-03 0. -1.
         11   -1    0    0    0    0 -0.00000000000E+00 -0.00000000000E+00 -0.45593999997E+02  0.45594000000E+02  0.51100000000E-03 0.  1.
    9900012    2    1    2    0    0 -0.38106056708E+02  0.20097110589E+02  0.52590804459E+01  0.47787270294E+02  0.19999996577E+02 0.  0.
        -12    1    1    2    0    0  0.38106056708E+02 -0.20097110589E+02 -0.52590804459E+01  0.43400729706E+02  0.00000000000E+00 0.  1.
         11    1    3    3    0    0 -0.25644686648E+02  0.13276297794E+02  0.84176521590E+01  0.30079343485E+02  0.51100000000E-03 0. -1.
        -11    1    3    3    0    0 -0.47337329123E+01  0.61864675832E+01  0.24188437483E+01  0.81566790903E+01  0.51100000000E-03 0.  1.
        -12    1    3    3    0    0 -0.77276371486E+01  0.63434521197E+00 -0.55774154613E+01  0.95512477183E+01  0.00000000000E+00 0.  1.
</event>
<event>
 7    1  0.7596051E-010  0.4778727E+02  0.7816164E-02  0.1312668E+00
        -11   -1    0    0    0    0  0.00000000000E+00  0.00000000000E+00  0.45593999997E+02  0.45594000000E+02  0.51100000000E-03 0. -1.
         11   -1    0    0    0    0 -0.00000000000E+00 -0.00000000000E+00 -0.45593999997E+02  0.45594000000E+02  0.51100000000E-03 0.  1.
    9900012    2    1    2    0    0 -0.57087531310E+01 -0.66903070967E+01 -0.42500275051E+02  0.47787269007E+02  0.19999990709E+02 0.  0.
         12    1    1    2    0    0  0.57087531310E+01  0.66903070967E+01  0.42500275051E+02  0.43400730993E+02  0.00000000000E+00 0. -1.
         11    1    3    3    0    0  0.17479472966E+01  0.14610070751E+01 -0.28678226434E+01  0.36625494400E+01  0.51100000000E-03 0. -1.
        -11    1    3    3    0    0  0.40905623911E+01 -0.45872658738E+01 -0.21287680208E+02  0.22157189303E+02  0.51100000000E-03 0.  1.
        -12    1    3    3    0    0 -0.11547262819E+02 -0.35640482979E+01 -0.18344772199E+02  0.21967530264E+02  0.00000000000E+00 0.  1.
</event>
<event>
 7    1  0.7596051E-010  0.4778727E+02  0.7816164E-02  0.1312668E+00
        -11   -1    0    0    0    0  0.00000000000E+00  0.00000000000E+00  0.45593999997E+02  0.45594000000E+02  0.51100000000E-03 0.  1.
         11   -1    0    0    0    0 -0.00000000000E+00 -0.00000000000E+00 -0.45593999997E+02  0.45594000000E+02  0.51100000000E-03 0. -1.
    9900012    2    1    2    0    0 -0.28347839463E+02 -0.28286160213E+02 -0.16730698741E+02  0.47787272562E+02  0.20000006919E+02 0.  0.
        -12    1    1    2    0    0  0.28347839463E+02  0.28286160213E+02  0.16730698741E+02  0.43400727438E+02  0.00000000000E+00 0.  1.
         11    1    3    3    0    0 -0.14117472920E+02 -0.21786409768E+02 -0.12620374986E+02  0.28865629342E+02  0.51100000000E-03 0. -1.
        -11    1    3    3    0    0 -0.19251407777E+00 -0.40986196711E+01 -0.16378964082E-01  0.41031711407E+01  0.51100000000E-03 0.  1.
        -12    1    3    3    0    0 -0.14037852465E+02 -0.24011307732E+01 -0.40939447905E+01  0.14818472080E+02  0.00000000000E+00 0.  1.
</event>
<event>
 7    1  0.7596051E-010  0.4778725E+02  0.7816164E-02  0.1312668E+00
        -11   -1    0    0    0    0  0.00000000000E+00  0.00000000000E+00  0.45593999997E+02  0.45594000000E+02  0.51100000000E-03 0. -1.
         11   -1    0    0    0    0 -0.00000000000E+00 -0.00000000000E+00 -0.45593999997E+02  0.45594000000E+02  0.51100000000E-03 0.  1.
    9900012    2    1    2    0    0 -0.12796203934E+02 -0.18421758640E+02  0.37155361480E+02  0.47787252158E+02  0.19999913890E+02 0.  0.
        -12    1    1    2    0    0  0.12796203934E+02  0.18421758640E+02 -0.37155361480E+02  0.43400747842E+02  0.00000000000E+00 0.  1.
         11    1    3    3    0    0 -0.86392264907E+01 -0.10188648544E+02  0.52822541453E+01  0.14364783417E+02  0.51100000000E-03 0.  1.
        -11    1    3    3    0    0 -0.34818774654E+00 -0.10622779059E+01  0.10494567495E+02  0.10553938423E+02  0.51100000000E-03 0. -1.
        -12    1    3    3    0    0 -0.38087896964E+01 -0.71708321907E+01  0.21378539840E+02  0.22868530319E+02  0.00000000000E+00 0.  1.
</event>
<event>
 7    1  0.7596051E-010  0.4778727E+02  0.7816164E-02  0.1312668E+00
        -11   -1    0    0    0    0  0.00000000000E+00  0.00000000000E+00  0.45593999997E+02  0.45594000000E+02  0.51100000000E-03 0. -1.
         11   -1    0    0    0    0 -0.00000000000E+00 -0.00000000000E+00 -0.45593999997E+02  0.45594000000E+02  0.51100000000E-03 0.  1.
    9900012    2    1    2    0    0 -0.22188131886E+01 -0.74438549449E+01 -0.42699986987E+02  0.47787274233E+02  0.20000014536E+02 0.  0.
         12    1    1    2    0    0  0.22188131886E+01  0.74438549449E+01  0.42699986987E+02  0.43400725767E+02  0.00000000000E+00 0. -1.
         11    1    3    3    0    0 -0.18279077014E+01 -0.82666289786E+01 -0.14087018633E+02  0.16435403721E+02  0.51100000000E-03 0. -1.
        -11    1    3    3    0    0  0.53658282393E+01 -0.27537507179E+01 -0.12954627226E+02  0.14289773355E+02  0.51100000000E-03 0.  1.
        -12    1    3    3    0    0 -0.57567337266E+01  0.35765247517E+01 -0.15658341128E+02  0.17062097157E+02  0.00000000000E+00 0.  1.
</event>
<event>
 7    1  0.7596051E-010  0.4778728E+02  0.7816164E-02  0.1312668E+00
        -11   -1    0    0    0    0  0.00000000000E+00  0.00000000000E+00  0.45593999997E+02  0.45594000000E+02  0.51100000000E-03 0.  1.
         11   -1    0    0    0    0 -0.00000000000E+00 -0.00000000000E+00 -0.45593999997E+02  0.45594000000E+02  0.51100000000E-03 0. -1.
    9900012    2    1    2    0    0  0.15496483044E+02  0.93152713713E+01  0.39455126966E+02  0.47787282133E+02  0.20000050558E+02 0.  0.
        -12    1    1    2    0    0 -0.15496483044E+02 -0.93152713713E+01 -0.39455126966E+02  0.43400717867E+02  0.00000000000E+00 0.  1.
         11    1    3    3    0    0  0.62094942011E+01  0.30992856425E+00  0.10900674116E+02  0.12549046593E+02  0.51100000000E-03 0. -1.
        -11    1    3    3    0    0 -0.29101351891E+01 -0.20026642372E+01  0.21382532693E+01  0.41293677689E+01  0.51100000000E-03 0.  1.
        -12    1    3    3    0    0  0.12197124032E+02  0.11008007044E+02  0.26416199581E+02  0.31108867771E+02  0.00000000000E+00 0.  1.
</event>
<event>
 7    1  0.7596051E-010  0.4778728E+02  0.7816164E-02  0.1312668E+00
        -11   -1    0    0    0    0  0.00000000000E+00  0.00000000000E+00  0.45593999997E+02  0.45594000000E+02  0.51100000000E-03 0. -1.
         11   -1    0    0    0    0 -0.00000000000E+00 -0.00000000000E+00 -0.45593999997E+02  0.45594000000E+02  0.51100000000E-03 0.  1.
    9900012    2    1    2    0    0  0.23223649688E+02  0.13602572337E+02 -0.34047829725E+02  0.47787278946E+02  0.20000036028E+02 0.  0.
         12    1    1    2    0    0 -0.23223649688E+02 -0.13602572337E+02  0.34047829725E+02  0.43400721054E+02  0.00000000000E+00 0. -1.
         11    1    3    3    0    0  0.48577585990E+01  0.79601989009E+01 -0.27694356105E+01  0.97279164784E+01  0.51100000000E-03 0. -1.
        -11    1    3    3    0    0  0.71102902138E+01  0.73312032745E+01 -0.16520577500E+02  0.19422467649E+02  0.51100000000E-03 0.  1.
        -12    1    3    3    0    0  0.11255600875E+02 -0.16888298382E+01 -0.14757816614E+02  0.18636894819E+02  0.00000000000E+00 0.  1.
</event>
<event>
 7    1  0.7596051E-010  0.4778727E+02  0.7816164E-02  0.1312668E+00
        -11   -1    0    0    0    0  0.00000000000E+00  0.00000000000E+00  0.45593999997E+02  0.45594000000E+02  0.51100000000E-03 0. -1.
         11   -1    0    0    0    0 -0.00000000000E+00 -0.00000000000E+00 -0.45593999997E+02  0.45594000000E+02  0.51100000000E-03 0.  1.
    9900012    2    1    2    0    0 -0.38112983058E+02  0.33363339765E+01  0.20491279221E+02  0.47787272747E+02  0.20000007763E+02 0.  0.
        -12    1    1    2    0    0  0.38112983058E+02 -0.33363339765E+01 -0.20491279221E+02  0.43400727253E+02  0.00000000000E+00 0.  1.
         11    1    3    3    0    0 -0.19843861451E+02 -0.45250445424E+01  0.10235849441E+02  0.22782174598E+02  0.51100000000E-03 0. -1.
        -11    1    3    3    0    0 -0.91700752553E+01  0.38237404643E+00 -0.30880795774E+00  0.91832375944E+01  0.51100000000E-03 0.  1.
         12    1    3    3    0    0 -0.90990463515E+01  0.74790044725E+01  0.10564237739E+02  0.15821860554E+02  0.00000000000E+00 0. -1.
</event>
<event>
 7    1  0.7596051E-010  0.4778727E+02  0.7816164E-02  0.1312668E+00
        -11   -1    0    0    0    0  0.00000000000E+00  0.00000000000E+00  0.45593999997E+02  0.45594000000E+02  0.51100000000E-03 0. -1.
         11   -1    0    0    0    0 -0.00000000000E+00 -0.00000000000E+00 -0.45593999997E+02  0.45594000000E+02  0.51100000000E-03 0.  1.
    9900012    2    1    2    0    0  0.47266611149E+01  0.16013498417E+02  0.40060579443E+02  0.47787268645E+02  0.19999989060E+02 0.  0.
        -12    1    1    2    0    0 -0.47266611149E+01 -0.16013498417E+02 -0.40060579443E+02  0.43400731355E+02  0.00000000000E+00 0.  1.
         11    1    3    3    0    0  0.57640827353E+00  0.98788590076E+01  0.59612712975E+01  0.11552526024E+02  0.51100000000E-03 0. -1.
        -11    1    3    3    0    0 -0.22954282960E+01 -0.51108833701E+00  0.31539460093E+01  0.39341553148E+01  0.51100000000E-03 0.  1.
        -12    1    3    3    0    0  0.64456811374E+01  0.66457277465E+01  0.30945362136E+02  0.32300587306E+02  0.00000000000E+00 0.  1.
</event>
<event>
 7    1  0.7644925E-010  0.4778727E+02  0.7816164E-02  0.1312668E+00
        -11   -1    0    0    0    0  0.00000000000E+00  0.00000000000E+00  0.45593999997E+02  0.45594000000E+02  0.51100000000E-03 0. -1.
         11   -1    0    0    0    0 -0.00000000000E+00 -0.00000000000E+00 -0.45593999997E+02  0.45594000000E+02  0.51100000000E-03 0.  1.
    9900012    2    1    2    0    0 -0.35711738850E+01 -0.37870458832E+01  0.43087448009E+02  0.47787272179E+02  0.20000005175E+02 0.  0.
        -12    1    1    2    0    0  0.35711738850E+01  0.37870458832E+01 -0.43087448009E+02  0.43400727821E+02  0.00000000000E+00 0.  1.
         11    1    3    3    0    0  0.30975157867E+01  0.20527098139E+01  0.33365784155E+01  0.49940942535E+01  0.51100000000E-03 0. -1.
        -11    1    3    3    0    0  0.39396910898E+01 -0.64060607268E+00  0.87435333413E+01  0.96114992366E+01  0.51100000000E-03 0.  1.
         12    1    3    3    0    0 -0.10608380761E+02 -0.51991496244E+01  0.31007336252E+02  0.33181678689E+02  0.00000000000E+00 0. -1.
</event>
<event>
 7    1  0.7596051E-010  0.4778729E+02  0.7816164E-02  0.1312668E+00
        -11   -1    0    0    0    0  0.00000000000E+00  0.00000000000E+00  0.45593999997E+02  0.45594000000E+02  0.51100000000E-03 0. -1.
         11   -1    0    0    0    0 -0.00000000000E+00 -0.00000000000E+00 -0.45593999997E+02  0.45594000000E+02  0.51100000000E-03 0.  1.
    9900012    2    1    2    0    0  0.22926374226E+02  0.88184446122E+01  0.35780411547E+02  0.47787292045E+02  0.20000095748E+02 0.  0.
        -12    1    1    2    0    0 -0.22926374226E+02 -0.88184446122E+01 -0.35780411547E+02  0.43400707955E+02  0.00000000000E+00 0.  1.
         11    1    3    3    0    0  0.13837000431E+02 -0.76578046614E+00  0.10088513856E+02  0.17141385963E+02  0.51100000000E-03 0. -1.
        -11    1    3    3    0    0  0.22505571823E+01  0.27231798013E+00  0.14095017514E+02  0.14276157876E+02  0.51100000000E-03 0.  1.
         12    1    3    3    0    0  0.68388166125E+01  0.93119070982E+01  0.11596880177E+02  0.16369748205E+02  0.00000000000E+00 0. -1.
</event>
<event>
 7    1  0.7596051E-010  0.4778727E+02  0.7816164E-02  0.1312668E+00
        -11   -1    0    0    0    0  0.00000000000E+00  0.00000000000E+00  0.45593999997E+02  0.45594000000E+02  0.51100000000E-03 0. -1.
         11   -1    0    0    0    0 -0.00000000000E+00 -0.00000000000E+00 -0.45593999997E+02  0.45594000000E+02  0.51100000000E-03 0.  1.
    9900012    2    1    2    0    0 -0.26293904396E+02  0.72632061334E+01  0.33756473420E+02  0.47787273399E+02  0.20000010736E+02 0.  0.
        -12    1    1    2    0    0  0.26293904396E+02 -0.72632061334E+01 -0.33756473420E+02  0.43400726601E+02  0.00000000000E+00 0.  1.
         11    1    3    3    0    0 -0.85656449211E+01  0.11659612808E+02  0.14707673528E+02  0.20630862915E+02  0.51100000000E-03 0. -1.
        -11    1    3    3    0    0 -0.83678513171E+01  0.29519570226E+00  0.54368245414E+01  0.99833430034E+01  0.51100000000E-03 0.  1.
         12    1    3    3    0    0 -0.93604081573E+01 -0.46916023772E+01  0.13611975351E+02  0.17173067481E+02  0.00000000000E+00 0. -1.
</event>
<event>
 7    1  0.7596051E-010  0.4778727E+02  0.7816164E-02  0.1312668E+00
        -11   -1    0    0    0    0  0.00000000000E+00  0.00000000000E+00  0.45593999997E+02  0.45594000000E+02  0.51100000000E-03 0.  1.
         11   -1    0    0    0    0 -0.00000000000E+00 -0.00000000000E+00 -0.45593999997E+02  0.45594000000E+02  0.51100000000E-03 0. -1.
    9900012    2    1    2    0    0 -0.23549865091E+02 -0.33687030881E+02  0.13935959804E+02  0.47787272229E+02  0.20000005402E+02 0.  0.
        -12    1    1    2    0    0  0.23549865091E+02  0.33687030881E+02 -0.13935959804E+02  0.43400727771E+02  0.00000000000E+00 0.  1.
         11    1    3    3    0    0 -0.60239623221E+01 -0.53518445507E+01 -0.10029859795E+00  0.80585620444E+01  0.51100000000E-03 0. -1.
        -11    1    3    3    0    0 -0.53626743312E+01 -0.21541673218E+01  0.85866837666E+01  0.10350355124E+02  0.51100000000E-03 0.  1.
         12    1    3    3    0    0 -0.12163228438E+02 -0.26181019008E+02  0.54495746348E+01  0.29378355060E+02  0.00000000000E+00 0. -1.
</event>
<event>
 7    1  0.7596051E-010  0.4778727E+02  0.7816164E-02  0.1312668E+00
        -11   -1    0    0    0    0  0.00000000000E+00  0.00000000000E+00  0.45593999997E+02  0.45594000000E+02  0.51100000000E-03 0.  1.
         11   -1    0    0    0    0 -0.00000000000E+00 -0.00000000000E+00 -0.45593999997E+02  0.45594000000E+02  0.51100000000E-03 0. -1.
    9900012    2    1    2    0    0  0.23107020313E+02  0.19992847896E+02 -0.30821663893E+02  0.47787270514E+02  0.19999997583E+02 0.  0.
         12    1    1    2    0    0 -0.23107020313E+02 -0.19992847896E+02  0.30821663893E+02  0.43400729486E+02  0.00000000000E+00 0. -1.
         11    1    3    3    0    0  0.64950253292E+00 -0.55941440357E+00 -0.47059146947E+01  0.47833493903E+01  0.51100000000E-03 0. -1.
        -11    1    3    3    0    0  0.64836059657E+01 -0.54074445848E+00 -0.11134950545E+01  0.66007137785E+01  0.51100000000E-03 0.  1.
        -12    1    3    3    0    0  0.15973911815E+02  0.21093006758E+02 -0.25002254144E+02  0.36403207346E+02  0.00000000000E+00 0.  1.
</event>
<event>
 7    1  0.7596051E-010  0.4778727E+02  0.7816164E-02  0.1312668E+00
        -11   -1    0    0    0    0  0.00000000000E+00  0.00000000000E+00  0.45593999997E+02  0.45594000000E+02  0.51100000000E-03 0.  1.
         11   -1    0    0    0    0 -0.00000000000E+00 -0.00000000000E+00 -0.45593999997E+02  0.45594000000E+02  0.51100000000E-03 0. -1.
    9900012    2    1    2    0    0  0.18547883897E+02 -0.38916960042E+02  0.50069319340E+01  0.47787272548E+02  0.20000006856E+02 0.  0.
         12    1    1    2    0    0 -0.18547883897E+02  0.38916960042E+02 -0.50069319340E+01  0.43400727452E+02  0.00000000000E+00 0. -1.
         11    1    3    3    0    0  0.24035131261E+01 -0.67184248735E+01  0.41454955578E+01  0.82522264759E+01  0.51100000000E-03 0. -1.
        -11    1    3    3    0    0  0.18643134816E+02 -0.21919554399E+02  0.22622622806E+01  0.28864358155E+02  0.51100000000E-03 0.  1.
         12    1    3    3    0    0 -0.24987640450E+01 -0.10278980769E+02 -0.14008259043E+01  0.10670687917E+02  0.00000000000E+00 0. -1.
</event>
<event>
 7    1  0.7596051E-010  0.4778726E+02  0.7816164E-02  0.1312668E+00
        -11   -1    0    0    0    0  0.00000000000E+00  0.00000000000E+00  0.45593999997E+02  0.45594000000E+02  0.51100000000E-03 0. -1.
         11   -1    0    0    0    0 -0.00000000000E+00 -0.00000000000E+00 -0.45593999997E+02  0.45594000000E+02  0.51100000000E-03 0.  1.
    9900012    2    1    2    0    0 -0.16747669498E+02  0.24683065271E+02 -0.31525964888E+02  0.47787255687E+02  0.19999929980E+02 0.  0.
         12    1    1    2    0    0  0.16747669498E+02 -0.24683065271E+02  0.31525964888E+02  0.43400744313E+02  0.00000000000E+00 0. -1.
         11    1    3    3    0    0 -0.97096622869E+01  0.18956202302E+01 -0.48156661178E+01  0.11002797744E+02  0.51100000000E-03 0. -1.
        -11    1    3    3    0    0 -0.19461768846E+01  0.58138692052E+01 -0.21468366973E+01  0.64959670309E+01  0.51100000000E-03 0.  1.
        -12    1    3    3    0    0 -0.50918303266E+01  0.16973575836E+02 -0.24563462073E+02  0.30288490912E+02  0.00000000000E+00 0.  1.
</event>
<event>
 7    1  0.7596051E-010  0.4778727E+02  0.7816164E-02  0.1312668E+00
        -11   -1    0    0    0    0  0.00000000000E+00  0.00000000000E+00  0.45593999997E+02  0.45594000000E+02  0.51100000000E-03 0. -1.
         11   -1    0    0    0    0 -0.00000000000E+00 -0.00000000000E+00 -0.45593999997E+02  0.45594000000E+02  0.51100000000E-03 0.  1.
    9900012    2    1    2    0    0 -0.13750342001E+02 -0.29418261865E+02 -0.28794395547E+02  0.47787271306E+02  0.20000001192E+02 0.  0.
         12    1    1    2    0    0  0.13750342001E+02  0.29418261865E+02  0.28794395547E+02  0.43400728694E+02  0.00000000000E+00 0. -1.
         11    1    3    3    0    0  0.35044830518E+01 -0.11188557532E+01 -0.45436350007E+01  0.58461832795E+01  0.51100000000E-03 0. -1.
        -11    1    3    3    0    0 -0.55876447874E+01 -0.56506905921E+01 -0.99179561047E+01  0.12708970532E+02  0.51100000000E-03 0.  1.
        -12    1    3    3    0    0 -0.11667180265E+02 -0.22648715520E+02 -0.14332804441E+02  0.29232117494E+02  0.00000000000E+00 0.  1.
</event>
<event>
 7    1  0.7596051E-010  0.4778728E+02  0.7816164E-02  0.1312668E+00
        -11   -1    0    0    0    0  0.00000000000E+00  0.00000000000E+00  0.45593999997E+02  0.45594000000E+02  0.51100000000E-03 0.  1.
         11   -1    0    0    0    0 -0.00000000000E+00 -0.00000000000E+00 -0.45593999997E+02  0.45594000000E+02  0.51100000000E-03 0. -1.
    9900012    2    1    2    0    0 -0.35659187700E+02  0.24717694010E+02 -0.10395307966E+01  0.47787277784E+02  0.20000030729E+02 0.  0.
         12    1    1    2    0    0  0.35659187700E+02 -0.24717694010E+02  0.10395307966E+01  0.43400722216E+02  0.00000000000E+00 0. -1.
         11    1    3    3    0    0 -0.65000973909E+01  0.11567814216E+02  0.22086427563E+00  0.13270809060E+02  0.51100000000E-03 0. -1.
        -11    1    3    3    0    0 -0.29094861105E+02  0.92594356722E+01 -0.41926260973E+00  0.30535616468E+02  0.51100000000E-03 0.  1.
         12    1    3    3    0    0 -0.64229203223E-01  0.38904441226E+01 -0.84113246251E+00  0.39808522556E+01  0.00000000000E+00 0. -1.
</event>
<event>
 7    1  0.7596051E-010  0.4778728E+02  0.7816164E-02  0.1312668E+00
        -11   -1    0    0    0    0  0.00000000000E+00  0.00000000000E+00  0.45593999997E+02  0.45594000000E+02  0.51100000000E-03 0. -1.
         11   -1    0    0    0    0 -0.00000000000E+00 -0.00000000000E+00 -0.45593999997E+02  0.45594000000E+02  0.51100000000E-03 0.  1.
    9900012    2    1    2    0    0 -0.11513696819E+02  0.40712565143E+02 -0.96718281022E+01  0.47787280722E+02  0.20000044125E+02 0.  0.
         12    1    1    2    0    0  0.11513696819E+02 -0.40712565143E+02  0.96718281022E+01  0.43400719278E+02  0.00000000000E+00 0. -1.
         11    1    3    3    0    0  0.27291230866E+01  0.42770157297E+01  0.45253901418E+00  0.50936988716E+01  0.51100000000E-03 0. -1.
        -11    1    3    3    0    0  0.21429009941E+01  0.11085968643E+02 -0.28245344441E+01  0.11639103080E+02  0.51100000000E-03 0.  1.
        -12    1    3    3    0    0 -0.16385720900E+02  0.25349580770E+02 -0.72998326723E+01  0.31054478770E+02  0.00000000000E+00 0.  1.
</event>
<event>
 7    1  0.7596051E-010  0.4778727E+02  0.7816164E-02  0.1312668E+00
        -11   -1    0    0    0    0  0.00000000000E+00  0.00000000000E+00  0.45593999997E+02  0.45594000000E+02  0.51100000000E-03 0. -1.
         11   -1    0    0    0    0 -0.00000000000E+00 -0.00000000000E+00 -0.45593999997E+02  0.45594000000E+02  0.51100000000E-03 0.  1.
    9900012    2    1    2    0    0  0.35587739662E+01 -0.29618001619E+02  0.31523528035E+02  0.47787265999E+02  0.19999976998E+02 0.  0.
        -12    1    1    2    0    0 -0.35587739662E+01  0.29618001619E+02 -0.31523528035E+02  0.43400734001E+02  0.00000000000E+00 0.  1.
         11    1    3    3    0    0 -0.16900404045E+01 -0.50736853061E+01 -0.54252984582E+00  0.53752077215E+01  0.51100000000E-03 0. -1.
        -11    1    3    3    0    0 -0.24461518223E+01 -0.58318752718E+00  0.39027155654E+01  0.46427314670E+01  0.51100000000E-03 0.  1.
        -12    1    3    3    0    0  0.76949661929E+01 -0.23961128785E+02  0.28163342315E+02  0.37769326811E+02  0.00000000000E+00 0.  1.
</event>
<event>
 7    1  0.7596051E-010  0.4778727E+02  0.7816164E-02  0.1312668E+00
        -11   -1    0    0    0    0  0.00000000000E+00  0.00000000000E+00  0.45593999997E+02  0.45594000000E+02  0.51100000000E-03 0. -1.
         11   -1    0    0    0    0 -0.00000000000E+00 -0.00000000000E+00 -0.45593999997E+02  0.45594000000E+02  0.51100000000E-03 0.  1.
    9900012    2    1    2    0    0 -0.24308145173E+01 -0.31802905622E+02  0.29432793087E+02  0.47787274498E+02  0.20000015748E+02 0.  0.
        -12    1    1    2    0    0  0.24308145173E+01  0.31802905622E+02 -0.29432793087E+02  0.43400725502E+02  0.00000000000E+00 0.  1.
         11    1    3    3    0    0 -0.55408631946E+01 -0.77980469641E+01  0.68173329373E+01  0.11746775304E+02  0.51100000000E-03 0. -1.
        -11    1    3    3    0    0 -0.41350675355E+01 -0.44718233416E+01  0.99293600147E+01  0.11648526863E+02  0.51100000000E-03 0.  1.
        -12    1    3    3    0    0  0.72451162128E+01 -0.19533035316E+02  0.12686100135E+02  0.24391972331E+02  0.00000000000E+00 0.  1.
</event>
<event>
 7    1  0.7596051E-010  0.4778727E+02  0.7816164E-02  0.1312668E+00
        -11   -1    0    0    0    0  0.00000000000E+00  0.00000000000E+00  0.45593999997E+02  0.45594000000E+02  0.51100000000E-03 0. -1.
         11   -1    0    0    0    0 -0.00000000000E+00 -0.00000000000E+00 -0.45593999997E+02  0.45594000000E+02  0.51100000000E-03 0.  1.
    9900012    2    1    2    0    0  0.36833447188E+02 -0.97930469946E+00 -0.22933855308E+02  0.47787267417E+02  0.19999983461E+02 0.  0.
         12    1    1    2    0    0 -0.36833447188E+02  0.97930469946E+00  0.22933855308E+02  0.43400732583E+02  0.00000000000E+00 0. -1.
         11    1    3    3    0    0  0.15677212196E+02 -0.32130465792E+01 -0.90454464431E+01  0.18382566529E+02  0.51100000000E-03 0. -1.
        -11    1    3    3    0    0  0.20060749504E+02 -0.31560947482E+01 -0.97812021635E+01  0.22540330981E+02  0.51100000000E-03 0.  1.
         12    1    3    3    0    0  0.10954854874E+01  0.53898366279E+01 -0.41072067018E+01  0.68643699070E+01  0.00000000000E+00 0. -1.
</event>
<event>
 7    1  0.7596051E-010  0.4778727E+02  0.7816164E-02  0.1312668E+00
        -11   -1    0    0    0    0  0.00000000000E+00  0.00000000000E+00  0.45593999997E+02  0.45594000000E+02  0.51100000000E-03 0. -1.
         11   -1    0    0    0    0 -0.00000000000E+00 -0.00000000000E+00 -0.45593999997E+02  0.45594000000E+02  0.51100000000E-03 0.  1.
    9900012    2    1    2    0    0 -0.31832949153E+01 -0.32867366092E+02  0.28164274691E+02  0.47787268564E+02  0.19999988691E+02 0.  0.
        -12    1    1    2    0    0  0.31832949153E+01  0.32867366092E+02 -0.28164274691E+02  0.43400731436E+02  0.00000000000E+00 0.  1.
         11    1    3    3    0    0  0.74725483544E+00 -0.38033654604E+01  0.63640520614E+01  0.74515191415E+01  0.51100000000E-03 0. -1.
        -11    1    3    3    0    0  0.98212182796E+00 -0.86272690584E+00 -0.24773820803E+01  0.28011217810E+01  0.51100000000E-03 0.  1.
         12    1    3    3    0    0 -0.49126715787E+01 -0.28201273725E+02  0.24277604709E+02  0.37534627642E+02  0.00000000000E+00 0. -1.
</event>
<event>
 7    1  0.7596051E-010  0.4778727E+02  0.7816164E-02  0.1312668E+00
        -11   -1    0    0    0    0  0.00000000000E+00  0.00000000000E+00  0.45593999997E+02  0.45594000000E+02  0.51100000000E-03 0. -1.
         11   -1    0    0    0    0 -0.00000000000E+00 -0.00000000000E+00 -0.45593999997E+02  0.45594000000E+02  0.51100000000E-03 0.  1.
    9900012    2    1    2    0    0  0.35586100537E+02  0.23373843072E+02 -0.84211776326E+01  0.47787270466E+02  0.19999997362E+02 0.  0.
        -12    1    1    2    0    0 -0.35586100537E+02 -0.23373843072E+02  0.84211776326E+01  0.43400729534E+02  0.00000000000E+00 0.  1.
         11    1    3    3    0    0  0.10040908203E+02  0.13410209743E+02 -0.65875441463E+01  0.18001369421E+02  0.51100000000E-03 0. -1.
        -11    1    3    3    0    0  0.86480378078E+01  0.86239365570E+01  0.20819844455E+01  0.12389330053E+02  0.51100000000E-03 0.  1.
        -12    1    3    3    0    0  0.16897154526E+02  0.13396967727E+01 -0.39156179318E+01  0.17396570992E+02  0.00000000000E+00 0.  1.
</event>
<event>
 7    1  0.7596051E-010  0.4778727E+02  0.7816164E-02  0.1312668E+00
        -11   -1    0    0    0    0  0.00000000000E+00  0.00000000000E+00  0.45593999997E+02  0.45594000000E+02  0.51100000000E-03 0. -1.
         11   -1    0    0    0    0 -0.00000000000E+00 -0.00000000000E+00 -0.45593999997E+02  0.45594000000E+02  0.51100000000E-03 0.  1.
    9900012    2    1    2    0    0 -0.14208774813E+02 -0.30673474898E+02  0.27218966906E+02  0.47787268399E+02  0.19999987940E+02 0.  0.
        -12    1    1    2    0    0  0.14208774813E+02  0.30673474898E+02 -0.27218966906E+02  0.43400731601E+02  0.00000000000E+00 0.  1.
         11    1    3    3    0    0 -0.16793601686E+01 -0.58358035989E+01  0.11572244723E+02  0.13068806464E+02  0.51100000000E-03 0.  1.
        -11    1    3    3    0    0 -0.69562950286E+01 -0.19836843228E+02  0.17091357885E+02  0.27092524880E+02  0.51100000000E-03 0. -1.
        -12    1    3    3    0    0 -0.55731196158E+01 -0.50008280714E+01 -0.14446357013E+01  0.76259370547E+01  0.00000000000E+00 0.  1.
</event>
<event>
 7    1  0.7596051E-010  0.4778727E+02  0.7816164E-02  0.1312668E+00
        -11   -1    0    0    0    0  0.00000000000E+00  0.00000000000E+00  0.45593999997E+02  0.45594000000E+02  0.51100000000E-03 0.  1.
         11   -1    0    0    0    0 -0.00000000000E+00 -0.00000000000E+00 -0.45593999997E+02  0.45594000000E+02  0.51100000000E-03 0. -1.
    9900012    2    1    2    0    0  0.29223362261E+02 -0.31714204536E+02  0.48813192141E+01  0.47787274793E+02  0.20000017092E+02 0.  0.
         12    1    1    2    0    0 -0.29223362261E+02  0.31714204536E+02 -0.48813192141E+01  0.43400725207E+02  0.00000000000E+00 0. -1.
         11    1    3    3    0    0  0.13278666913E+01  0.67881326221E+00 -0.15381022421E+01  0.21423762888E+01  0.51100000000E-03 0. -1.
        -11    1    3    3    0    0  0.38467654883E+01 -0.21803148459E+01 -0.36552366095E+01  0.57369096630E+01  0.51100000000E-03 0.  1.
        -12    1    3    3    0    0  0.24048730081E+02 -0.30212702953E+02  0.10074658066E+02  0.39907988841E+02  0.00000000000E+00 0.  1.
</event>
<event>
 7    1  0.7596051E-010  0.4778727E+02  0.7816164E-02  0.1312668E+00
        -11   -1    0    0    0    0  0.00000000000E+00  0.00000000000E+00  0.45593999997E+02  0.45594000000E+02  0.51100000000E-03 0. -1.
         11   -1    0    0    0    0 -0.00000000000E+00 -0.00000000000E+00 -0.45593999997E+02  0.45594000000E+02  0.51100000000E-03 0.  1.
    9900012    2    1    2    0    0  0.52456413526E+01 -0.15442617462E+02  0.40219796721E+02  0.47787271486E+02  0.20000002012E+02 0.  0.
        -12    1    1    2    0    0 -0.52456413526E+01  0.15442617462E+02 -0.40219796721E+02  0.43400728514E+02  0.00000000000E+00 0.  1.
         11    1    3    3    0    0 -0.21187974305E+01 -0.77889411675E+01  0.20848927821E+02  0.22356983218E+02  0.51100000000E-03 0. -1.
        -11    1    3    3    0    0  0.21590284649E+00 -0.79119019317E+01  0.49568167524E+01  0.93388885203E+01  0.51100000000E-03 0.  1.
         12    1    3    3    0    0  0.71485359367E+01  0.25822563697E+00  0.14414052148E+02  0.16091399748E+02  0.00000000000E+00 0. -1.
</event>
<event>
 7    1  0.7596051E-010  0.4778727E+02  0.7816164E-02  0.1312668E+00
        -11   -1    0    0    0    0  0.00000000000E+00  0.00000000000E+00  0.45593999997E+02  0.45594000000E+02  0.51100000000E-03 0. -1.
         11   -1    0    0    0    0 -0.00000000000E+00 -0.00000000000E+00 -0.45593999997E+02  0.45594000000E+02  0.51100000000E-03 0.  1.
    9900012    2    1    2    0    0  0.13644794666E+01  0.52763353906E+01 -0.43057188717E+02  0.47787273974E+02  0.20000013357E+02 0.  0.
         12    1    1    2    0    0 -0.13644794666E+01 -0.52763353906E+01  0.43057188717E+02  0.43400726026E+02  0.00000000000E+00 0. -1.
         11    1    3    3    0    0 -0.22278579459E+00 -0.18449584800E+01  0.43757716579E+00  0.19091828986E+01  0.51100000000E-03 0. -1.
        -11    1    3    3    0    0 -0.21693663347E+01  0.76046517826E+01 -0.13504146338E+02  0.15649244314E+02  0.51100000000E-03 0.  1.
        -12    1    3    3    0    0  0.37566315959E+01 -0.48335791202E+00 -0.29990619545E+02  0.30228846761E+02  0.00000000000E+00 0.  1.
</event>
<event>
 7    1  0.7596051E-010  0.4778727E+02  0.7816164E-02  0.1312668E+00
        -11   -1    0    0    0    0  0.00000000000E+00  0.00000000000E+00  0.45593999997E+02  0.45594000000E+02  0.51100000000E-03 0. -1.
         11   -1    0    0    0    0 -0.00000000000E+00 -0.00000000000E+00 -0.45593999997E+02  0.45594000000E+02  0.51100000000E-03 0.  1.
    9900012    2    1    2    0    0 -0.18179934754E+02  0.36052638391E+02 -0.15916043048E+02  0.47787272023E+02  0.20000004462E+02 0.  0.
         12    1    1    2    0    0  0.18179934754E+02 -0.36052638391E+02  0.15916043048E+02  0.43400727977E+02  0.00000000000E+00 0. -1.
         11    1    3    3    0    0 -0.32760294241E+01  0.16097194006E+01  0.15927024666E+01  0.39824950401E+01  0.51100000000E-03 0. -1.
        -11    1    3    3    0    0 -0.59797213057E+01  0.15257151458E+02 -0.73607052375E-01  0.16387286407E+02  0.51100000000E-03 0.  1.
        -12    1    3    3    0    0 -0.89241840240E+01  0.19185767532E+02 -0.17435138462E+02  0.27417490576E+02  0.00000000000E+00 0.  1.
</event>
<event>
 7    1  0.7596051E-010  0.4778727E+02  0.7816164E-02  0.1312668E+00
        -11   -1    0    0    0    0  0.00000000000E+00  0.00000000000E+00  0.45593999997E+02  0.45594000000E+02  0.51100000000E-03 0. -1.
         11   -1    0    0    0    0 -0.00000000000E+00 -0.00000000000E+00 -0.45593999997E+02  0.45594000000E+02  0.51100000000E-03 0.  1.
    9900012    2    1    2    0    0  0.12770335595E+02 -0.13402309871E+02 -0.39254553900E+02  0.47787269788E+02  0.19999994270E+02 0.  0.
         12    1    1    2    0    0 -0.12770335595E+02  0.13402309871E+02  0.39254553900E+02  0.43400730212E+02  0.00000000000E+00 0. -1.
         11    1    3    3    0    0  0.55479500617E+01 -0.78204506834E+01 -0.57379165585E+01  0.11174206257E+02  0.51100000000E-03 0. -1.
        -11    1    3    3    0    0  0.84891404600E+01 -0.77603142142E+01 -0.22013257959E+02  0.24836898129E+02  0.51100000000E-03 0.  1.
         12    1    3    3    0    0 -0.12667549271E+01  0.21784550269E+01 -0.11503379382E+02  0.11776165401E+02  0.00000000000E+00 0. -1.
</event>
<event>
 7    1  0.7596051E-010  0.4778727E+02  0.7816164E-02  0.1312668E+00
        -11   -1    0    0    0    0  0.00000000000E+00  0.00000000000E+00  0.45593999997E+02  0.45594000000E+02  0.51100000000E-03 0. -1.
         11   -1    0    0    0    0 -0.00000000000E+00 -0.00000000000E+00 -0.45593999997E+02  0.45594000000E+02  0.51100000000E-03 0.  1.
    9900012    2    1    2    0    0 -0.27774674799E+02 -0.20920836991E+02  0.25971312844E+02  0.47787273376E+02  0.20000010633E+02 0.  0.
        -12    1    1    2    0    0  0.27774674799E+02  0.20920836991E+02 -0.25971312844E+02  0.43400726624E+02  0.00000000000E+00 0.  1.
         11    1    3    3    0    0 -0.26658087139E+01 -0.89337564268E+01  0.96126291769E+01  0.13391085839E+02  0.51100000000E-03 0. -1.
        -11    1    3    3    0    0 -0.27865868827E+01  0.63980308869E+00 -0.14180777337E+01  0.31914509502E+01  0.51100000000E-03 0.  1.
        -12    1    3    3    0    0 -0.22322279203E+02 -0.12626883653E+02  0.17776761400E+02  0.31204736587E+02  0.00000000000E+00 0.  1.
</event>
<event>
 7    1  0.7596051E-010  0.4778727E+02  0.7816164E-02  0.1312668E+00
        -11   -1    0    0    0    0  0.00000000000E+00  0.00000000000E+00  0.45593999997E+02  0.45594000000E+02  0.51100000000E-03 0. -1.
         11   -1    0    0    0    0 -0.00000000000E+00 -0.00000000000E+00 -0.45593999997E+02  0.45594000000E+02  0.51100000000E-03 0.  1.
    9900012    2    1    2    0    0  0.29979825434E+02 -0.13315826248E+02 -0.28416932705E+02  0.47787271595E+02  0.20000002509E+02 0.  0.
         12    1    1    2    0    0 -0.29979825434E+02  0.13315826248E+02  0.28416932705E+02  0.43400728405E+02  0.00000000000E+00 0. -1.
         11    1    3    3    0    0  0.93300601483E+01 -0.53814346965E+01 -0.16948241542E+02  0.20081154184E+02  0.51100000000E-03 0. -1.
        -11    1    3    3    0    0  0.16201257959E+02 -0.13314278520E+00 -0.81088765094E+01  0.18117736199E+02  0.51100000000E-03 0.  1.
        -12    1    3    3    0    0  0.44485073272E+01 -0.78012487660E+01 -0.33598146541E+01  0.95883812116E+01  0.00000000000E+00 0.  1.
</event>
<event>
 7    1  0.7596051E-010  0.4778727E+02  0.7816164E-02  0.1312668E+00
        -11   -1    0    0    0    0  0.00000000000E+00  0.00000000000E+00  0.45593999997E+02  0.45594000000E+02  0.51100000000E-03 0. -1.
         11   -1    0    0    0    0 -0.00000000000E+00 -0.00000000000E+00 -0.45593999997E+02  0.45594000000E+02  0.51100000000E-03 0.  1.
    9900012    2    1    2    0    0 -0.42557215998E+02  0.79831317209E+01  0.29624162758E+01  0.47787274939E+02  0.20000017759E+02 0.  0.
        -12    1    1    2    0    0  0.42557215998E+02 -0.79831317209E+01 -0.29624162758E+01  0.43400725061E+02  0.00000000000E+00 0.  1.
         11    1    3    3    0    0 -0.28142896250E+02  0.98955837724E+01  0.19204752280E+01  0.29893701893E+02  0.51100000000E-03 0. -1.
        -11    1    3    3    0    0 -0.29628398726E+01  0.39937376127E+01  0.49103997824E+00  0.49969471431E+01  0.51100000000E-03 0.  1.
        -12    1    3    3    0    0 -0.11451479876E+02 -0.59061896641E+01  0.55090106963E+00  0.12896625903E+02  0.00000000000E+00 0.  1.
</event>
<event>
 7    1  0.7596051E-010  0.4778727E+02  0.7816164E-02  0.1312668E+00
        -11   -1    0    0    0    0  0.00000000000E+00  0.00000000000E+00  0.45593999997E+02  0.45594000000E+02  0.51100000000E-03 0. -1.
         11   -1    0    0    0    0 -0.00000000000E+00 -0.00000000000E+00 -0.45593999997E+02  0.45594000000E+02  0.51100000000E-03 0.  1.
    9900012    2    1    2    0    0 -0.34251789668E+02  0.13902924337E+02 -0.22740863707E+02  0.47787270943E+02  0.19999999536E+02 0.  0.
         12    1    1    2    0    0  0.34251789668E+02 -0.13902924337E+02  0.22740863707E+02  0.43400729057E+02  0.00000000000E+00 0. -1.
         11    1    3    3    0    0 -0.39126380079E+01 -0.44196560320E+00 -0.65239440113E+01  0.76200994416E+01  0.51100000000E-03 0. -1.
        -11    1    3    3    0    0 -0.17410338384E+02  0.86305915456E+01 -0.17263726014E+02  0.25993138118E+02  0.51100000000E-03 0.  1.
        -12    1    3    3    0    0 -0.12928813276E+02  0.57142983950E+01  0.10468063188E+01  0.14174033383E+02  0.00000000000E+00 0.  1.
</event>
<event>
 7    1  0.7596051E-010  0.4778727E+02  0.7816164E-02  0.1312668E+00
        -11   -1    0    0    0    0  0.00000000000E+00  0.00000000000E+00  0.45593999997E+02  0.45594000000E+02  0.51100000000E-03 0. -1.
         11   -1    0    0    0    0 -0.00000000000E+00 -0.00000000000E+00 -0.45593999997E+02  0.45594000000E+02  0.51100000000E-03 0.  1.
    9900012    2    1    2    0    0  0.25434249895E+02  0.18027314281E+02  0.30194998481E+02  0.47787273495E+02  0.20000011171E+02 0.  0.
        -12    1    1    2    0    0 -0.25434249895E+02 -0.18027314281E+02 -0.30194998481E+02  0.43400726505E+02  0.00000000000E+00 0.  1.
         11    1    3    3    0    0  0.66338385807E+01  0.65691217208E+01  0.15479858531E+02  0.18077256288E+02  0.51100000000E-03 0. -1.
        -11    1    3    3    0    0 -0.16572590944E+01  0.19748723229E+01  0.39656260017E+01  0.47299913577E+01  0.51100000000E-03 0.  1.
        -12    1    3    3    0    0  0.20457670409E+02  0.94833202375E+01  0.10749513948E+02  0.24980025849E+02  0.00000000000E+00 0.  1.
</event>
<event>
 7    1  0.7596051E-010  0.4778727E+02  0.7816164E-02  0.1312668E+00
        -11   -1    0    0    0    0  0.00000000000E+00  0.00000000000E+00  0.45593999997E+02  0.45594000000E+02  0.51100000000E-03 0.  1.
         11   -1    0    0    0    0 -0.00000000000E+00 -0.00000000000E+00 -0.45593999997E+02  0.45594000000E+02  0.51100000000E-03 0. -1.
    9900012    2    1    2    0    0  0.33479018128E+02  0.27335926009E+02 -0.39402417003E+01  0.47787274081E+02  0.20000013846E+02 0.  0.
         12    1    1    2    0    0 -0.33479018128E+02 -0.27335926009E+02  0.39402417003E+01  0.43400725919E+02  0.00000000000E+00 0. -1.
         11    1    3    3    0    0  0.11908710214E+02  0.11751133091E+02  0.33193143739E+01  0.17056504802E+02  0.51100000000E-03 0. -1.
        -11    1    3    3    0    0  0.11462232424E+02  0.61857764701E+01  0.32005647386E+01  0.13412315892E+02  0.51100000000E-03 0.  1.
        -12    1    3    3    0    0  0.10108075490E+02  0.93990164482E+01 -0.10460120813E+02  0.17318453387E+02  0.00000000000E+00 0.  1.
</event>
<event>
 7    1  0.7596051E-010  0.4778728E+02  0.7816164E-02  0.1312668E+00
        -11   -1    0    0    0    0  0.00000000000E+00  0.00000000000E+00  0.45593999997E+02  0.45594000000E+02  0.51100000000E-03 0. -1.
         11   -1    0    0    0    0 -0.00000000000E+00 -0.00000000000E+00 -0.45593999997E+02  0.45594000000E+02  0.51100000000E-03 0.  1.
    9900012    2    1    2    0    0  0.32370561274E+01 -0.32238099184E+02  0.28876445707E+02  0.47787277793E+02  0.20000030770E+02 0.  0.
        -12    1    1    2    0    0 -0.32370561274E+01  0.32238099184E+02 -0.28876445707E+02  0.43400722207E+02  0.00000000000E+00 0.  1.
         11    1    3    3    0    0 -0.22267896739E+01 -0.18230237599E+02  0.98509960261E+01  0.20840879975E+02  0.51100000000E-03 0. -1.
        -11    1    3    3    0    0 -0.30887337831E+01 -0.22771654184E+01  0.13378558579E+01  0.40639411023E+01  0.51100000000E-03 0.  1.
        -12    1    3    3    0    0  0.85525795844E+01 -0.11730696167E+02  0.17687593823E+02  0.22882456716E+02  0.00000000000E+00 0.  1.
</event>
<event>
 7    1  0.7739692E-010  0.4778728E+02  0.7816164E-02  0.1312668E+00
        -11   -1    0    0    0    0  0.00000000000E+00  0.00000000000E+00  0.45593999997E+02  0.45594000000E+02  0.51100000000E-03 0. -1.
         11   -1    0    0    0    0 -0.00000000000E+00 -0.00000000000E+00 -0.45593999997E+02  0.45594000000E+02  0.51100000000E-03 0.  1.
    9900012    2    1    2    0    0  0.23027909397E+02 -0.23589767104E+02  0.28228715027E+02  0.47787284853E+02  0.20000062960E+02 0.  0.
        -12    1    1    2    0    0 -0.23027909397E+02  0.23589767104E+02 -0.28228715027E+02  0.43400715147E+02  0.00000000000E+00 0.  1.
         11    1    3    3    0    0  0.59807897320E+00 -0.33641622412E+01  0.46017176418E+01  0.57315871763E+01  0.51100000000E-03 0. -1.
        -11    1    3    3    0    0 -0.20746275829E+01  0.10222911542E+01  0.10640683591E+01  0.25458594905E+01  0.51100000000E-03 0.  1.
         12    1    3    3    0    0  0.24504458006E+02 -0.21247896017E+02  0.22562929026E+02  0.39509838187E+02  0.00000000000E+00 0. -1.
</event>
<event>
 7    1  0.7596051E-010  0.4778727E+02  0.7816164E-02  0.1312668E+00
        -11   -1    0    0    0    0  0.00000000000E+00  0.00000000000E+00  0.45593999997E+02  0.45594000000E+02  0.51100000000E-03 0. -1.
         11   -1    0    0    0    0 -0.00000000000E+00 -0.00000000000E+00 -0.45593999997E+02  0.45594000000E+02  0.51100000000E-03 0.  1.
    9900012    2    1    2    0    0  0.30701807009E+02  0.10394408509E+02  0.28861365484E+02  0.47787273054E+02  0.20000009163E+02 0.  0.
        -12    1    1    2    0    0 -0.30701807009E+02 -0.10394408509E+02 -0.28861365484E+02  0.43400726946E+02  0.00000000000E+00 0.  1.
         11    1    3    3    0    0  0.90701455541E+01 -0.15284268043E+01  0.39508888273E+01  0.10010651910E+02  0.51100000000E-03 0. -1.
        -11    1    3    3    0    0  0.13464786233E+02  0.48568930432E+01  0.50661088017E+01  0.15184048768E+02  0.51100000000E-03 0.  1.
         12    1    3    3    0    0  0.81668752221E+01  0.70659422699E+01  0.19844367855E+02  0.22592572377E+02  0.00000000000E+00 0. -1.
</event>
<event>
 7    1  0.7596051E-010  0.4778727E+02  0.7816164E-02  0.1312668E+00
        -11   -1    0    0    0    0  0.00000000000E+00  0.00000000000E+00  0.45593999997E+02  0.45594000000E+02  0.51100000000E-03 0. -1.
         11   -1    0    0    0    0 -0.00000000000E+00 -0.00000000000E+00 -0.45593999997E+02  0.45594000000E+02  0.51100000000E-03 0.  1.
    9900012    2    1    2    0    0 -0.13289463401E+02 -0.24042408176E+02  0.33600237563E+02  0.47787271980E+02  0.20000004268E+02 0.  0.
        -12    1    1    2    0    0  0.13289463401E+02  0.24042408176E+02 -0.33600237563E+02  0.43400728020E+02  0.00000000000E+00 0.  1.
         11    1    3    3    0    0 -0.12237844817E+02 -0.85882069919E+01  0.16886612757E+02  0.22553931714E+02  0.51100000000E-03 0. -1.
        -11    1    3    3    0    0 -0.58061148980E+01 -0.79924430513E+01  0.10532290630E+02  0.14440196062E+02  0.51100000000E-03 0.  1.
        -12    1    3    3    0    0  0.47544963139E+01 -0.74617581325E+01  0.61813341759E+01  0.10793144205E+02  0.00000000000E+00 0.  1.
</event>
<event>
 7    1  0.7596051E-010  0.4778727E+02  0.7816164E-02  0.1312668E+00
        -11   -1    0    0    0    0  0.00000000000E+00  0.00000000000E+00  0.45593999997E+02  0.45594000000E+02  0.51100000000E-03 0. -1.
         11   -1    0    0    0    0 -0.00000000000E+00 -0.00000000000E+00 -0.45593999997E+02  0.45594000000E+02  0.51100000000E-03 0.  1.
    9900012    2    1    2    0    0  0.10667800818E+02 -0.38166695117E+02  0.17695324645E+02  0.47787272993E+02  0.20000008885E+02 0.  0.
        -12    1    1    2    0    0 -0.10667800818E+02  0.38166695117E+02 -0.17695324645E+02  0.43400727007E+02  0.00000000000E+00 0.  1.
         11    1    3    3    0    0  0.65720630230E+01 -0.13352515456E+02  0.77744832439E+00  0.14902553726E+02  0.51100000000E-03 0. -1.
        -11    1    3    3    0    0  0.64115147036E+01 -0.58430095885E+01  0.79770430882E+01  0.11784799470E+02  0.51100000000E-03 0.  1.
        -12    1    3    3    0    0 -0.23157769085E+01 -0.18971170072E+02  0.89408332321E+01  0.21099919798E+02  0.00000000000E+00 0.  1.
</event>
<event>
 7    1  0.7596051E-010  0.4778727E+02  0.7816164E-02  0.1312668E+00
        -11   -1    0    0    0    0  0.00000000000E+00  0.00000000000E+00  0.45593999997E+02  0.45594000000E+02  0.51100000000E-03 0.  1.
         11   -1    0    0    0    0 -0.00000000000E+00 -0.00000000000E+00 -0.45593999997E+02  0.45594000000E+02  0.51100000000E-03 0. -1.
    9900012    2    1    2    0    0  0.18362803604E+02  0.39278914092E+02  0.18967114399E+01  0.47787272325E+02  0.20000005838E+02 0.  0.
        -12    1    1    2    0    0 -0.18362803604E+02 -0.39278914092E+02 -0.18967114399E+01  0.43400727675E+02  0.00000000000E+00 0.  1.
         11    1    3    3    0    0  0.18963205441E+02  0.27391275948E+02  0.69176581750E+01  0.34025566175E+02  0.51100000000E-03 0. -1.
        -11    1    3    3    0    0  0.12645856719E+01  0.24549337121E+01  0.29080914501E+00  0.27767691068E+01  0.51100000000E-03 0.  1.
        -12    1    3    3    0    0 -0.18649875088E+01  0.94327044321E+01 -0.53117558801E+01  0.10984937043E+02  0.00000000000E+00 0.  1.
</event>
<event>
 7    1  0.7596051E-010  0.4778727E+02  0.7816164E-02  0.1312668E+00
        -11   -1    0    0    0    0  0.00000000000E+00  0.00000000000E+00  0.45593999997E+02  0.45594000000E+02  0.51100000000E-03 0. -1.
         11   -1    0    0    0    0 -0.00000000000E+00 -0.00000000000E+00 -0.45593999997E+02  0.45594000000E+02  0.51100000000E-03 0.  1.
    9900012    2    1    2    0    0  0.92385393363E-01 -0.41383915715E+02 -0.13076161685E+02  0.47787273976E+02  0.20000013368E+02 0.  0.
         12    1    1    2    0    0 -0.92385393363E-01  0.41383915715E+02  0.13076161685E+02  0.43400726024E+02  0.00000000000E+00 0. -1.
         11    1    3    3    0    0 -0.24919472368E+01 -0.34282826233E+02 -0.94335506992E+01  0.35644268187E+02  0.51100000000E-03 0. -1.
        -11    1    3    3    0    0  0.43560993516E+01 -0.80259721080E+01 -0.15739460681E+01  0.92665601128E+01  0.51100000000E-03 0.  1.
        -12    1    3    3    0    0 -0.17717667214E+01  0.92488262573E+00 -0.20686649180E+01  0.28764456764E+01  0.00000000000E+00 0.  1.
</event>
<event>
 7    1  0.7596051E-010  0.4778727E+02  0.7816164E-02  0.1312668E+00
        -11   -1    0    0    0    0  0.00000000000E+00  0.00000000000E+00  0.45593999997E+02  0.45594000000E+02  0.51100000000E-03 0. -1.
         11   -1    0    0    0    0 -0.00000000000E+00 -0.00000000000E+00 -0.45593999997E+02  0.45594000000E+02  0.51100000000E-03 0.  1.
    9900012    2    1    2    0    0 -0.17109226609E+02  0.16460839813E+02 -0.36330959558E+02  0.47787268383E+02  0.19999987864E+02 0.  0.
         12    1    1    2    0    0  0.17109226609E+02 -0.16460839813E+02  0.36330959558E+02  0.43400731617E+02  0.00000000000E+00 0. -1.
         11    1    3    3    0    0 -0.95464452942E+00  0.18104166635E+01  0.18328391100E+01  0.27474086222E+01  0.51100000000E-03 0. -1.
        -11    1    3    3    0    0 -0.50251581893E+00  0.57372844296E+01 -0.72215141692E+01  0.92368404734E+01  0.51100000000E-03 0.  1.
         12    1    3    3    0    0 -0.15652066261E+02  0.89131387196E+01 -0.30942284499E+02  0.35803019287E+02  0.00000000000E+00 0. -1.
</event>
<event>
 7    1  0.7596051E-010  0.4778727E+02  0.7816164E-02  0.1312668E+00
        -11   -1    0    0    0    0  0.00000000000E+00  0.00000000000E+00  0.45593999997E+02  0.45594000000E+02  0.51100000000E-03 0. -1.
         11   -1    0    0    0    0 -0.00000000000E+00 -0.00000000000E+00 -0.45593999997E+02  0.45594000000E+02  0.51100000000E-03 0.  1.
    9900012    2    1    2    0    0 -0.11885028805E+02  0.40789028322E+01  0.41541928074E+02  0.47787272516E+02  0.20000006709E+02 0.  0.
        -12    1    1    2    0    0  0.11885028805E+02 -0.40789028322E+01 -0.41541928074E+02  0.43400727484E+02  0.00000000000E+00 0.  1.
         11    1    3    3    0    0  0.67585974530E+00 -0.14722831209E+01  0.20098614599E+01  0.25814622470E+01  0.51100000000E-03 0. -1.
        -11    1    3    3    0    0  0.36196394731E+01  0.42593999079E+01  0.12150477816E+02  0.13374542568E+02  0.51100000000E-03 0.  1.
         12    1    3    3    0    0 -0.16180528024E+02  0.12917860452E+01  0.27381588798E+02  0.31831267700E+02  0.00000000000E+00 0. -1.
</event>
<event>
 7    1  0.7596051E-010  0.4778727E+02  0.7816164E-02  0.1312668E+00
        -11   -1    0    0    0    0  0.00000000000E+00  0.00000000000E+00  0.45593999997E+02  0.45594000000E+02  0.51100000000E-03 0. -1.
         11   -1    0    0    0    0 -0.00000000000E+00 -0.00000000000E+00 -0.45593999997E+02  0.45594000000E+02  0.51100000000E-03 0.  1.
    9900012    2    1    2    0    0 -0.30379655341E+01 -0.30239327225E+02  0.30983495802E+02  0.47787272383E+02  0.20000006103E+02 0.  0.
        -12    1    1    2    0    0  0.30379655341E+01  0.30239327225E+02 -0.30983495802E+02  0.43400727617E+02  0.00000000000E+00 0.  1.
         11    1    3    3    0    0 -0.32741469968E+01 -0.92154817775E+01  0.22256020445E+02  0.24309989495E+02  0.51100000000E-03 0. -1.
        -11    1    3    3    0    0 -0.24591423569E+01 -0.78893124621E+01  0.21298883995E+01  0.85337598461E+01  0.51100000000E-03 0.  1.
        -12    1    3    3    0    0  0.26953238196E+01 -0.13134532985E+02  0.65975869570E+01  0.14943523042E+02  0.00000000000E+00 0.  1.
</event>
<event>
 7    1  0.7596051E-010  0.4778727E+02  0.7816164E-02  0.1312668E+00
        -11   -1    0    0    0    0  0.00000000000E+00  0.00000000000E+00  0.45593999997E+02  0.45594000000E+02  0.51100000000E-03 0.  1.
         11   -1    0    0    0    0 -0.00000000000E+00 -0.00000000000E+00 -0.45593999997E+02  0.45594000000E+02  0.51100000000E-03 0. -1.
    9900012    2    1    2    0    0 -0.24966367255E+02 -0.13078954616E+02 -0.33003706144E+02  0.47787272275E+02  0.20000005612E+02 0.  0.
         12    1    1    2    0    0  0.24966367255E+02  0.13078954616E+02  0.33003706144E+02  0.43400727725E+02  0.00000000000E+00 0. -1.
         11    1    3    3    0    0 -0.12509825367E+02 -0.40076776056E+01 -0.67852615875E+01  0.14785025721E+02  0.51100000000E-03 0. -1.
        -11    1    3    3    0    0 -0.13047521840E+02 -0.41449538734E+01 -0.12982929553E+02  0.18867297868E+02  0.51100000000E-03 0.  1.
         12    1    3    3    0    0  0.59097995193E+00 -0.49263231371E+01 -0.13235515003E+02  0.14134948686E+02  0.00000000000E+00 0. -1.
</event>
<event>
 7    1  0.7596051E-010  0.4778727E+02  0.7816164E-02  0.1312668E+00
        -11   -1    0    0    0    0  0.00000000000E+00  0.00000000000E+00  0.45593999997E+02  0.45594000000E+02  0.51100000000E-03 0. -1.
         11   -1    0    0    0    0 -0.00000000000E+00 -0.00000000000E+00 -0.45593999997E+02  0.45594000000E+02  0.51100000000E-03 0.  1.
    9900012    2    1    2    0    0  0.16737924507E+02 -0.38921426073E+02  0.94121096635E+01  0.47787270367E+02  0.19999996912E+02 0.  0.
        -12    1    1    2    0    0 -0.16737924507E+02  0.38921426073E+02 -0.94121096635E+01  0.43400729633E+02  0.00000000000E+00 0.  1.
         11    1    3    3    0    0  0.83743448378E+01 -0.13315835027E+02  0.56982031294E+01  0.16730529970E+02  0.51100000000E-03 0. -1.
        -11    1    3    3    0    0  0.59088662033E+01 -0.17789780120E+02  0.95116149748E+01  0.21020508943E+02  0.51100000000E-03 0.  1.
         12    1    3    3    0    0  0.24547134659E+01 -0.78158109266E+01 -0.57977084407E+01  0.10036231454E+02  0.00000000000E+00 0. -1.
</event>
<event>
 7    1  0.7596051E-010  0.4778727E+02  0.7816164E-02  0.1312668E+00
        -11   -1    0    0    0    0  0.00000000000E+00  0.00000000000E+00  0.45593999997E+02  0.45594000000E+02  0.51100000000E-03 0. -1.
         11   -1    0    0    0    0 -0.00000000000E+00 -0.00000000000E+00 -0.45593999997E+02  0.45594000000E+02  0.51100000000E-03 0.  1.
    9900012    2    1    2    0    0 -0.29869986488E+02 -0.18482223705E+01 -0.31432328507E+02  0.47787270812E+02  0.19999998939E+02 0.  0.
         12    1    1    2    0    0  0.29869986488E+02  0.18482223705E+01  0.31432328507E+02  0.43400729188E+02  0.00000000000E+00 0. -1.
         11    1    3    3    0    0 -0.41299710592E+01 -0.36777533693E+01 -0.12963269859E+02  0.14093576426E+02  0.51100000000E-03 0.  1.
        -11    1    3    3    0    0 -0.75091431292E+01  0.46347794490E+01 -0.10177514846E+02  0.13470345941E+02  0.51100000000E-03 0. -1.
         12    1    3    3    0    0 -0.18230872300E+02 -0.28052484502E+01 -0.82915438025E+01  0.20223348444E+02  0.00000000000E+00 0. -1.
</event>
<event>
 7    1  0.7596051E-010  0.4778727E+02  0.7816164E-02  0.1312668E+00
        -11   -1    0    0    0    0  0.00000000000E+00  0.00000000000E+00  0.45593999997E+02  0.45594000000E+02  0.51100000000E-03 0.  1.
         11   -1    0    0    0    0 -0.00000000000E+00 -0.00000000000E+00 -0.45593999997E+02  0.45594000000E+02  0.51100000000E-03 0. -1.
    9900012    2    1    2    0    0  0.31231840768E+02  0.30012838276E+02 -0.27248473530E+01  0.47787272676E+02  0.20000007440E+02 0.  0.
        -12    1    1    2    0    0 -0.31231840768E+02 -0.30012838276E+02  0.27248473530E+01  0.43400727324E+02  0.00000000000E+00 0.  1.
         11    1    3    3    0    0  0.36278432427E+01 -0.11263561688E+01  0.20429187935E+00  0.38041635408E+01  0.51100000000E-03 0.  1.
        -11    1    3    3    0    0  0.94208917309E+00 -0.11737274012E+01  0.11476676491E+01  0.18926989503E+01  0.51100000000E-03 0. -1.
         12    1    3    3    0    0  0.26661908352E+02  0.32312921846E+02 -0.40768068815E+01  0.42090410185E+02  0.00000000000E+00 0. -1.
</event>
<event>
 7    1  0.7596051E-010  0.4778727E+02  0.7816164E-02  0.1312668E+00
        -11   -1    0    0    0    0  0.00000000000E+00  0.00000000000E+00  0.45593999997E+02  0.45594000000E+02  0.51100000000E-03 0. -1.
         11   -1    0    0    0    0 -0.00000000000E+00 -0.00000000000E+00 -0.45593999997E+02  0.45594000000E+02  0.51100000000E-03 0.  1.
    9900012    2    1    2    0    0  0.27731298729E+02  0.18014258291E+01 -0.33336965131E+02  0.47787270648E+02  0.19999998191E+02 0.  0.
         12    1    1    2    0    0 -0.27731298729E+02 -0.18014258291E+01  0.33336965131E+02  0.43400729352E+02  0.00000000000E+00 0. -1.
         11    1    3    3    0    0  0.10198563956E+02  0.35028582389E-01 -0.10295521138E+02  0.14491711063E+02  0.51100000000E-03 0. -1.
        -11    1    3    3    0    0  0.18557644850E+02  0.46117535534E+01 -0.13826921321E+02  0.23597419492E+02  0.51100000000E-03 0.  1.
         12    1    3    3    0    0 -0.10249100777E+01 -0.28453563067E+01 -0.92145226718E+01  0.96981400922E+01  0.00000000000E+00 0. -1.
</event>
<event>
 7    1  0.7596051E-010  0.4778726E+02  0.7816164E-02  0.1312668E+00
        -11   -1    0    0    0    0  0.00000000000E+00  0.00000000000E+00  0.45593999997E+02  0.45594000000E+02  0.51100000000E-03 0. -1.
         11   -1    0    0    0    0 -0.00000000000E+00 -0.00000000000E+00 -0.45593999997E+02  0.45594000000E+02  0.51100000000E-03 0.  1.
    9900012    2    1    2    0    0 -0.19471335574E+02 -0.24199854756E+02  0.30312672697E+02  0.47787262618E+02  0.19999961581E+02 0.  0.
        -12    1    1    2    0    0  0.19471335574E+02  0.24199854756E+02 -0.30312672697E+02  0.43400737382E+02  0.00000000000E+00 0.  1.
         11    1    3    3    0    0 -0.41154847493E+01 -0.73027950181E+01  0.48052438525E+01  0.96622149915E+01  0.51100000000E-03 0. -1.
        -11    1    3    3    0    0 -0.16870317360E+02 -0.10934088608E+02  0.24810972085E+02  0.31933465793E+02  0.51100000000E-03 0.  1.
         12    1    3    3    0    0  0.15144665349E+01 -0.59629711299E+01  0.69645675951E+00  0.61915818333E+01  0.00000000000E+00 0. -1.
</event>
<event>
 7    1  0.7596051E-010  0.4778727E+02  0.7816164E-02  0.1312668E+00
        -11   -1    0    0    0    0  0.00000000000E+00  0.00000000000E+00  0.45593999997E+02  0.45594000000E+02  0.51100000000E-03 0. -1.
         11   -1    0    0    0    0 -0.00000000000E+00 -0.00000000000E+00 -0.45593999997E+02  0.45594000000E+02  0.51100000000E-03 0.  1.
    9900012    2    1    2    0    0  0.26882118838E+02 -0.51541334062E+01 -0.33681002099E+02  0.47787270665E+02  0.19999998271E+02 0.  0.
         12    1    1    2    0    0 -0.26882118838E+02  0.51541334062E+01  0.33681002099E+02  0.43400729335E+02  0.00000000000E+00 0. -1.
         11    1    3    3    0    0 -0.24900687518E+01 -0.22503058818E+00 -0.80669045359E+01  0.84454739481E+01  0.51100000000E-03 0.  1.
        -11    1    3    3    0    0  0.75093766411E+01 -0.14802237733E+01 -0.54003625760E+01  0.93672683409E+01  0.51100000000E-03 0. -1.
        -12    1    3    3    0    0  0.21862810949E+02 -0.34488790447E+01 -0.20213734987E+02  0.29974528376E+02  0.00000000000E+00 0.  1.
</event>
<event>
 7    1  0.7596051E-010  0.4778728E+02  0.7816164E-02  0.1312668E+00
        -11   -1    0    0    0    0  0.00000000000E+00  0.00000000000E+00  0.45593999997E+02  0.45594000000E+02  0.51100000000E-03 0. -1.
         11   -1    0    0    0    0 -0.00000000000E+00 -0.00000000000E+00 -0.45593999997E+02  0.45594000000E+02  0.51100000000E-03 0.  1.
    9900012    2    1    2    0    0  0.50832398179E+01 -0.21149299089E+02 -0.37556494934E+02  0.47787280067E+02  0.20000041137E+02 0.  0.
         12    1    1    2    0    0 -0.50832398179E+01  0.21149299089E+02  0.37556494934E+02  0.43400719933E+02  0.00000000000E+00 0. -1.
         11    1    3    3    0    0  0.64330994047E+01 -0.72083133720E+01 -0.11870274389E+02  0.15305161350E+02  0.51100000000E-03 0. -1.
        -11    1    3    3    0    0  0.45972874628E+01 -0.42032093585E+01 -0.26390489098E+01  0.67651016502E+01  0.51100000000E-03 0.  1.
        -12    1    3    3    0    0 -0.59471470496E+01 -0.97377763580E+01 -0.23047171635E+02  0.25717017066E+02  0.00000000000E+00 0.  1.
</event>
<event>
 7    1  0.7596051E-010  0.4778727E+02  0.7816164E-02  0.1312668E+00
        -11   -1    0    0    0    0  0.00000000000E+00  0.00000000000E+00  0.45593999997E+02  0.45594000000E+02  0.51100000000E-03 0. -1.
         11   -1    0    0    0    0 -0.00000000000E+00 -0.00000000000E+00 -0.45593999997E+02  0.45594000000E+02  0.51100000000E-03 0.  1.
    9900012    2    1    2    0    0  0.27555410257E+01 -0.27223000514E+01 -0.43227528506E+02  0.47787272534E+02  0.20000006790E+02 0.  0.
         12    1    1    2    0    0 -0.27555410257E+01  0.27223000514E+01  0.43227528506E+02  0.43400727466E+02  0.00000000000E+00 0. -1.
         11    1    3    3    0    0 -0.26417552994E+00  0.11597039623E+01 -0.16238565859E+01  0.20128617596E+01  0.51100000000E-03 0. -1.
        -11    1    3    3    0    0  0.46978186629E+01  0.65393154014E+01 -0.13072672160E+02  0.15353400397E+02  0.51100000000E-03 0.  1.
         12    1    3    3    0    0 -0.16781021072E+01 -0.10421319415E+02 -0.28530999760E+02  0.30421010377E+02  0.00000000000E+00 0. -1.
</event>
<event>
 7    1  0.7596051E-010  0.4778727E+02  0.7816164E-02  0.1312668E+00
        -11   -1    0    0    0    0  0.00000000000E+00  0.00000000000E+00  0.45593999997E+02  0.45594000000E+02  0.51100000000E-03 0. -1.
         11   -1    0    0    0    0 -0.00000000000E+00 -0.00000000000E+00 -0.45593999997E+02  0.45594000000E+02  0.51100000000E-03 0.  1.
    9900012    2    1    2    0    0  0.23664486929E+01 -0.23577938578E+02 -0.36360751854E+02  0.47787267950E+02  0.19999985893E+02 0.  0.
         12    1    1    2    0    0 -0.23664486929E+01  0.23577938578E+02  0.36360751854E+02  0.43400732050E+02  0.00000000000E+00 0. -1.
         11    1    3    3    0    0 -0.81042103198E+01 -0.56948427776E+01 -0.10738037377E+02  0.14608727054E+02  0.51100000000E-03 0. -1.
        -11    1    3    3    0    0  0.18199198323E+01 -0.10188755243E+01 -0.31826476186E+01  0.38051887805E+01  0.51100000000E-03 0.  1.
         12    1    3    3    0    0  0.86507391804E+01 -0.16864220276E+02 -0.22440066859E+02  0.29373352116E+02  0.00000000000E+00 0. -1.
</event>
<event>
 7    1  0.7596051E-010  0.4778727E+02  0.7816164E-02  0.1312668E+00
        -11   -1    0    0    0    0  0.00000000000E+00  0.00000000000E+00  0.45593999997E+02  0.45594000000E+02  0.51100000000E-03 0. -1.
         11   -1    0    0    0    0 -0.00000000000E+00 -0.00000000000E+00 -0.45593999997E+02  0.45594000000E+02  0.51100000000E-03 0.  1.
    9900012    2    1    2    0    0  0.47243517414E+01  0.97338199224E+01 -0.42030422022E+02  0.47787272759E+02  0.20000007818E+02 0.  0.
         12    1    1    2    0    0 -0.47243517414E+01 -0.97338199224E+01  0.42030422022E+02  0.43400727241E+02  0.00000000000E+00 0. -1.
         11    1    3    3    0    0  0.49163872818E+01  0.57236899083E+01 -0.66388018195E+01  0.10050133329E+02  0.51100000000E-03 0. -1.
        -11    1    3    3    0    0  0.28738493145E+01  0.61194225687E+01 -0.99790637331E+01  0.12053549507E+02  0.51100000000E-03 0.  1.
         12    1    3    3    0    0 -0.30658848548E+01 -0.21092925546E+01 -0.25412556470E+02  0.25683589924E+02  0.00000000000E+00 0. -1.
</event>
<event>
 7    1  0.7596051E-010  0.4778727E+02  0.7816164E-02  0.1312668E+00
        -11   -1    0    0    0    0  0.00000000000E+00  0.00000000000E+00  0.45593999997E+02  0.45594000000E+02  0.51100000000E-03 0. -1.
         11   -1    0    0    0    0 -0.00000000000E+00 -0.00000000000E+00 -0.45593999997E+02  0.45594000000E+02  0.51100000000E-03 0.  1.
    9900012    2    1    2    0    0 -0.25912088902E+02  0.51764954585E+01 -0.34429505822E+02  0.47787270425E+02  0.19999997177E+02 0.  0.
         12    1    1    2    0    0  0.25912088902E+02 -0.51764954585E+01  0.34429505822E+02  0.43400729575E+02  0.00000000000E+00 0. -1.
         11    1    3    3    0    0 -0.41793054362E+01 -0.20635682622E+01  0.28206297632E+00  0.46695254241E+01  0.51100000000E-03 0. -1.
        -11    1    3    3    0    0 -0.11546557295E+02 -0.18524652549E+01 -0.13161878571E+02  0.17606523243E+02  0.51100000000E-03 0.  1.
        -12    1    3    3    0    0 -0.10186226170E+02  0.90925289755E+01 -0.21549690227E+02  0.25511221759E+02  0.00000000000E+00 0.  1.
</event>
<event>
 7    1  0.7596051E-010  0.4778727E+02  0.7816164E-02  0.1312668E+00
        -11   -1    0    0    0    0  0.00000000000E+00  0.00000000000E+00  0.45593999997E+02  0.45594000000E+02  0.51100000000E-03 0. -1.
         11   -1    0    0    0    0 -0.00000000000E+00 -0.00000000000E+00 -0.45593999997E+02  0.45594000000E+02  0.51100000000E-03 0.  1.
    9900012    2    1    2    0    0 -0.19457462585E+02 -0.21011115894E+02 -0.32612319632E+02  0.47787271514E+02  0.20000002140E+02 0.  0.
         12    1    1    2    0    0  0.19457462585E+02  0.21011115894E+02  0.32612319632E+02  0.43400728486E+02  0.00000000000E+00 0. -1.
         11    1    3    3    0    0 -0.52020532418E+01  0.20181487611E-01 -0.74969911806E+01  0.91250557394E+01  0.51100000000E-03 0. -1.
        -11    1    3    3    0    0 -0.64198548626E+00 -0.13998966553E+01  0.19999468051E+01  0.25242114600E+01  0.51100000000E-03 0.  1.
        -12    1    3    3    0    0 -0.13613423857E+02 -0.19631400726E+02 -0.27115275257E+02  0.36138004314E+02  0.00000000000E+00 0.  1.
</event>
<event>
 7    1  0.7596051E-010  0.4778727E+02  0.7816164E-02  0.1312668E+00
        -11   -1    0    0    0    0  0.00000000000E+00  0.00000000000E+00  0.45593999997E+02  0.45594000000E+02  0.51100000000E-03 0. -1.
         11   -1    0    0    0    0 -0.00000000000E+00 -0.00000000000E+00 -0.45593999997E+02  0.45594000000E+02  0.51100000000E-03 0.  1.
    9900012    2    1    2    0    0  0.60606162437E+01  0.20355242529E+02 -0.37849124320E+02  0.47787272132E+02  0.20000004959E+02 0.  0.
         12    1    1    2    0    0 -0.60606162437E+01 -0.20355242529E+02  0.37849124320E+02  0.43400727868E+02  0.00000000000E+00 0. -1.
         11    1    3    3    0    0  0.77734460694E+00 -0.11794127942E+01 -0.73121372072E+00  0.15905825799E+01  0.51100000000E-03 0. -1.
        -11    1    3    3    0    0  0.93129505630E+01  0.20053507227E+02 -0.25177634238E+02  0.33508020926E+02  0.51100000000E-03 0.  1.
        -12    1    3    3    0    0 -0.40296789263E+01  0.14811480970E+01 -0.11940276361E+02  0.12688668626E+02  0.00000000000E+00 0.  1.
</event>
<event>
 7    1  0.7596051E-010  0.4778728E+02  0.7816164E-02  0.1312668E+00
        -11   -1    0    0    0    0  0.00000000000E+00  0.00000000000E+00  0.45593999997E+02  0.45594000000E+02  0.51100000000E-03 0. -1.
         11   -1    0    0    0    0 -0.00000000000E+00 -0.00000000000E+00 -0.45593999997E+02  0.45594000000E+02  0.51100000000E-03 0.  1.
    9900012    2    1    2    0    0  0.17482669418E+02  0.29573287083E+02 -0.26521681194E+02  0.47787278666E+02  0.20000034752E+02 0.  0.
         12    1    1    2    0    0 -0.17482669418E+02 -0.29573287083E+02  0.26521681194E+02  0.43400721334E+02  0.00000000000E+00 0. -1.
         11    1    3    3    0    0 -0.96565585668E+00  0.45405857218E+01 -0.66992271966E+00  0.46902245833E+01  0.51100000000E-03 0. -1.
        -11    1    3    3    0    0  0.58627473984E+01  0.49501352481E+01 -0.15377094262E+02  0.17185187640E+02  0.51100000000E-03 0.  1.
         12    1    3    3    0    0  0.12585577876E+02  0.20082566114E+02 -0.10474664213E+02  0.25911866443E+02  0.00000000000E+00 0. -1.
</event>
<event>
 7    1  0.7596051E-010  0.4778727E+02  0.7816164E-02  0.1312668E+00
        -11   -1    0    0    0    0  0.00000000000E+00  0.00000000000E+00  0.45593999997E+02  0.45594000000E+02  0.51100000000E-03 0. -1.
         11   -1    0    0    0    0 -0.00000000000E+00 -0.00000000000E+00 -0.45593999997E+02  0.45594000000E+02  0.51100000000E-03 0.  1.
    9900012    2    1    2    0    0  0.16448889565E+02  0.19639245458E+02  0.35033662969E+02  0.47787268772E+02  0.19999989641E+02 0.  0.
        -12    1    1    2    0    0 -0.16448889565E+02 -0.19639245458E+02 -0.35033662969E+02  0.43400731228E+02  0.00000000000E+00 0.  1.
         11    1    3    3    0    0  0.20784887514E+01 -0.15913803955E+01  0.50522792002E+01  0.56901785939E+01  0.51100000000E-03 0. -1.
        -11    1    3    3    0    0  0.12718406042E+02  0.79180422733E+01  0.99359319438E+01  0.17977096249E+02  0.51100000000E-03 0.  1.
         12    1    3    3    0    0  0.16519947716E+01  0.13312583580E+02  0.20045451825E+02  0.24119993930E+02  0.00000000000E+00 0. -1.
</event>
<event>
 7    1  0.7596051E-010  0.4778729E+02  0.7816164E-02  0.1312668E+00
        -11   -1    0    0    0    0  0.00000000000E+00  0.00000000000E+00  0.45593999997E+02  0.45594000000E+02  0.51100000000E-03 0. -1.
         11   -1    0    0    0    0 -0.00000000000E+00 -0.00000000000E+00 -0.45593999997E+02  0.45594000000E+02  0.51100000000E-03 0.  1.
    9900012    2    1    2    0    0  0.26789822540E+02 -0.26811433248E+02 -0.21144135877E+02  0.47787285414E+02  0.20000065518E+02 0.  0.
         12    1    1    2    0    0 -0.26789822540E+02  0.26811433248E+02  0.21144135877E+02  0.43400714586E+02  0.00000000000E+00 0. -1.
         11    1    3    3    0    0  0.12092537452E+02 -0.18293595535E+02 -0.48355867330E+01  0.22455912338E+02  0.51100000000E-03 0. -1.
        -11    1    3    3    0    0 -0.13541114232E+01 -0.72744173841E+00 -0.14369406800E+01  0.21041834540E+01  0.51100000000E-03 0.  1.
        -12    1    3    3    0    0  0.16051396512E+02 -0.77903959740E+01 -0.14871608465E+02  0.23227189622E+02  0.00000000000E+00 0.  1.
</event>
<event>
 7    1  0.7596051E-010  0.4778728E+02  0.7816164E-02  0.1312668E+00
        -11   -1    0    0    0    0  0.00000000000E+00  0.00000000000E+00  0.45593999997E+02  0.45594000000E+02  0.51100000000E-03 0. -1.
         11   -1    0    0    0    0 -0.00000000000E+00 -0.00000000000E+00 -0.45593999997E+02  0.45594000000E+02  0.51100000000E-03 0.  1.
    9900012    2    1    2    0    0 -0.19208945731E+02  0.28600924556E+02 -0.26393667546E+02  0.47787283784E+02  0.20000058083E+02 0.  0.
         12    1    1    2    0    0  0.19208945731E+02 -0.28600924556E+02  0.26393667546E+02  0.43400716216E+02  0.00000000000E+00 0. -1.
         11    1    3    3    0    0 -0.98477982549E+00 -0.13729666767E+01 -0.15276193996E+00  0.16965156266E+01  0.51100000000E-03 0. -1.
        -11    1    3    3    0    0 -0.10365075240E+02  0.12294049719E+02 -0.39194623950E+01  0.16551151892E+02  0.51100000000E-03 0.  1.
        -12    1    3    3    0    0 -0.78590906656E+01  0.17679841513E+02 -0.22321443211E+02  0.29539616265E+02  0.00000000000E+00 0.  1.
</event>
<event>
 7    1  0.7596051E-010  0.4778727E+02  0.7816164E-02  0.1312668E+00
        -11   -1    0    0    0    0  0.00000000000E+00  0.00000000000E+00  0.45593999997E+02  0.45594000000E+02  0.51100000000E-03 0. -1.
         11   -1    0    0    0    0 -0.00000000000E+00 -0.00000000000E+00 -0.45593999997E+02  0.45594000000E+02  0.51100000000E-03 0.  1.
    9900012    2    1    2    0    0 -0.14887608251E+02  0.38392546767E+02  0.13711126292E+02  0.47787268314E+02  0.19999987550E+02 0.  0.
        -12    1    1    2    0    0  0.14887608251E+02 -0.38392546767E+02 -0.13711126292E+02  0.43400731686E+02  0.00000000000E+00 0.  1.
         11    1    3    3    0    0 -0.53586444746E+01  0.20847105248E+01  0.14504713037E+01  0.59300047084E+01  0.51100000000E-03 0. -1.
        -11    1    3    3    0    0 -0.11009573643E+02  0.14714842655E+02  0.56386238862E+01  0.19223199155E+02  0.51100000000E-03 0.  1.
        -12    1    3    3    0    0  0.14806098665E+01  0.21592993587E+02  0.66220311021E+01  0.22634064450E+02  0.00000000000E+00 0.  1.
</event>
<event>
 7    1  0.7596051E-010  0.4778728E+02  0.7816164E-02  0.1312668E+00
        -11   -1    0    0    0    0  0.00000000000E+00  0.00000000000E+00  0.45593999997E+02  0.45594000000E+02  0.51100000000E-03 0.  1.
         11   -1    0    0    0    0 -0.00000000000E+00 -0.00000000000E+00 -0.45593999997E+02  0.45594000000E+02  0.51100000000E-03 0. -1.
    9900012    2    1    2    0    0  0.99633527676E+01 -0.38814059768E+02  0.16668030517E+02  0.47787275636E+02  0.20000020935E+02 0.  0.
        -12    1    1    2    0    0 -0.99633527676E+01  0.38814059768E+02 -0.16668030517E+02  0.43400724364E+02  0.00000000000E+00 0.  1.
         11    1    3    3    0    0  0.12090124257E+02 -0.33491177329E+02  0.14582678831E+02  0.38477065709E+02  0.51100000000E-03 0. -1.
        -11    1    3    3    0    0  0.25716557154E+01 -0.21501795609E+01  0.29577186917E+00  0.33651398964E+01  0.51100000000E-03 0.  1.
        -12    1    3    3    0    0 -0.46984272048E+01 -0.31727028778E+01  0.17895798168E+01  0.59450700307E+01  0.00000000000E+00 0.  1.
</event>
<event>
 7    1  0.7596051E-010  0.4778727E+02  0.7816164E-02  0.1312668E+00
        -11   -1    0    0    0    0  0.00000000000E+00  0.00000000000E+00  0.45593999997E+02  0.45594000000E+02  0.51100000000E-03 0.  1.
         11   -1    0    0    0    0 -0.00000000000E+00 -0.00000000000E+00 -0.45593999997E+02  0.45594000000E+02  0.51100000000E-03 0. -1.
    9900012    2    1    2    0    0 -0.27901363103E+02 -0.32889925179E+02  0.48363455087E+01  0.47787268680E+02  0.19999989218E+02 0.  0.
         12    1    1    2    0    0  0.27901363103E+02  0.32889925179E+02 -0.48363455087E+01  0.43400731320E+02  0.00000000000E+00 0. -1.
         11    1    3    3    0    0  0.50866069492E-01 -0.43394844640E+00 -0.17131410867E+01  0.17679794272E+01  0.51100000000E-03 0. -1.
        -11    1    3    3    0    0 -0.10047358927E+02 -0.63102707383E+01  0.79793419972E+01  0.14298210978E+02  0.51100000000E-03 0.  1.
         12    1    3    3    0    0 -0.17904870245E+02 -0.26145705994E+02 -0.14298554018E+01  0.31721078274E+02  0.00000000000E+00 0. -1.
</event>
<event>
 7    1  0.7596051E-010  0.4778727E+02  0.7816164E-02  0.1312668E+00
        -11   -1    0    0    0    0  0.00000000000E+00  0.00000000000E+00  0.45593999997E+02  0.45594000000E+02  0.51100000000E-03 0. -1.
         11   -1    0    0    0    0 -0.00000000000E+00 -0.00000000000E+00 -0.45593999997E+02  0.45594000000E+02  0.51100000000E-03 0.  1.
    9900012    2    1    2    0    0 -0.23503415006E+02 -0.59382443851E+01  0.35999301808E+02  0.47787274269E+02  0.20000014703E+02 0.  0.
        -12    1    1    2    0    0  0.23503415006E+02  0.59382443851E+01 -0.35999301808E+02  0.43400725731E+02  0.00000000000E+00 0.  1.
         11    1    3    3    0    0 -0.19231762797E+02 -0.75564092348E+01  0.25038086722E+02  0.32463299397E+02  0.51100000000E-03 0. -1.
        -11    1    3    3    0    0 -0.20645173551E+01 -0.96180802436E+00  0.11640688457E+02  0.11861405254E+02  0.51100000000E-03 0.  1.
         12    1    3    3    0    0 -0.22071348543E+01  0.25799728741E+01 -0.67947337144E+00  0.34625696178E+01  0.00000000000E+00 0. -1.
</event>
<event>
 7    1  0.7596051E-010  0.4778727E+02  0.7816164E-02  0.1312668E+00
        -11   -1    0    0    0    0  0.00000000000E+00  0.00000000000E+00  0.45593999997E+02  0.45594000000E+02  0.51100000000E-03 0. -1.
         11   -1    0    0    0    0 -0.00000000000E+00 -0.00000000000E+00 -0.45593999997E+02  0.45594000000E+02  0.51100000000E-03 0.  1.
    9900012    2    1    2    0    0  0.11262680772E+02 -0.24449874933E+02  0.34043779010E+02  0.47787271301E+02  0.20000001168E+02 0.  0.
        -12    1    1    2    0    0 -0.11262680772E+02  0.24449874933E+02 -0.34043779010E+02  0.43400728699E+02  0.00000000000E+00 0.  1.
         11    1    3    3    0    0  0.12212832000E+02 -0.12131259726E+02  0.17527902885E+02  0.24567216118E+02  0.51100000000E-03 0. -1.
        -11    1    3    3    0    0  0.18375674526E+01 -0.48829947629E+01  0.13919824785E+02  0.14865457084E+02  0.51100000000E-03 0.  1.
        -12    1    3    3    0    0 -0.27877186810E+01 -0.74356204441E+01  0.25960513394E+01  0.83545980987E+01  0.00000000000E+00 0.  1.
</event>
<event>
 7    1  0.1223439E-009  0.4778727E+02  0.7816164E-02  0.1312668E+00
        -11   -1    0    0    0    0  0.00000000000E+00  0.00000000000E+00  0.45593999997E+02  0.45594000000E+02  0.51100000000E-03 0. -1.
         11   -1    0    0    0    0 -0.00000000000E+00 -0.00000000000E+00 -0.45593999997E+02  0.45594000000E+02  0.51100000000E-03 0.  1.
    9900012    2    1    2    0    0  0.29573025720E+02 -0.70432627937E+01  0.30975024610E+02  0.47787267856E+02  0.19999985463E+02 0.  0.
        -12    1    1    2    0    0 -0.29573025720E+02  0.70432627937E+01 -0.30975024610E+02  0.43400732144E+02  0.00000000000E+00 0.  1.
         11    1    3    3    0    0  0.66935327101E+00  0.31259925764E+00 -0.10255857841E+01  0.12639535430E+01  0.51100000000E-03 0. -1.
        -11    1    3    3    0    0 -0.31036162054E+00 -0.37933414285E+01  0.67321693491E+01  0.77335546765E+01  0.51100000000E-03 0.  1.
         12    1    3    3    0    0  0.29214034070E+02 -0.35625206229E+01  0.25268441045E+02  0.38789759637E+02  0.00000000000E+00 0. -1.
</event>
<event>
 7    1  0.7596051E-010  0.4778727E+02  0.7816164E-02  0.1312668E+00
        -11   -1    0    0    0    0  0.00000000000E+00  0.00000000000E+00  0.45593999997E+02  0.45594000000E+02  0.51100000000E-03 0. -1.
         11   -1    0    0    0    0 -0.00000000000E+00 -0.00000000000E+00 -0.45593999997E+02  0.45594000000E+02  0.51100000000E-03 0.  1.
    9900012    2    1    2    0    0  0.71232090703E+01  0.19730866116E+01  0.42766693722E+02  0.47787271087E+02  0.20000000195E+02 0.  0.
        -12    1    1    2    0    0 -0.71232090703E+01 -0.19730866116E+01 -0.42766693722E+02  0.43400728913E+02  0.00000000000E+00 0.  1.
         11    1    3    3    0    0  0.10131654335E+02 -0.53131582728E+00  0.30358592310E+02  0.32009011909E+02  0.51100000000E-03 0. -1.
        -11    1    3    3    0    0 -0.61827520082E+00 -0.16056273076E+01  0.10524543217E+02  0.10664254004E+02  0.51100000000E-03 0.  1.
        -12    1    3    3    0    0 -0.23901700634E+01  0.41100297465E+01  0.18835581952E+01  0.51140051744E+01  0.00000000000E+00 0.  1.
</event>
<event>
 7    1  0.7821863E-010  0.4778727E+02  0.7816164E-02  0.1312668E+00
        -11   -1    0    0    0    0  0.00000000000E+00  0.00000000000E+00  0.45593999997E+02  0.45594000000E+02  0.51100000000E-03 0.  1.
         11   -1    0    0    0    0 -0.00000000000E+00 -0.00000000000E+00 -0.45593999997E+02  0.45594000000E+02  0.51100000000E-03 0. -1.
    9900012    2    1    2    0    0 -0.20953643472E+02 -0.29003522772E+02  0.24563463744E+02  0.47787271215E+02  0.20000000778E+02 0.  0.
        -12    1    1    2    0    0  0.20953643472E+02  0.29003522772E+02 -0.24563463744E+02  0.43400728785E+02  0.00000000000E+00 0.  1.
         11    1    3    3    0    0 -0.15565923268E+02 -0.19294995824E+02  0.15332499138E+02  0.29149277197E+02  0.51100000000E-03 0. -1.
        -11    1    3    3    0    0 -0.41829675626E+01 -0.39164155056E+01  0.11050987764E+02  0.12448287387E+02  0.51100000000E-03 0.  1.
         12    1    3    3    0    0 -0.12047526416E+01 -0.57921114418E+01 -0.18200231577E+01  0.61897066309E+01  0.00000000000E+00 0. -1.
</event>
<event>
 7    1  0.7596051E-010  0.4778727E+02  0.7816164E-02  0.1312668E+00
        -11   -1    0    0    0    0  0.00000000000E+00  0.00000000000E+00  0.45593999997E+02  0.45594000000E+02  0.51100000000E-03 0. -1.
         11   -1    0    0    0    0 -0.00000000000E+00 -0.00000000000E+00 -0.45593999997E+02  0.45594000000E+02  0.51100000000E-03 0.  1.
    9900012    2    1    2    0    0 -0.13995452191E+01 -0.32010791480E+02  0.29274110995E+02  0.47787273364E+02  0.20000010574E+02 0.  0.
        -12    1    1    2    0    0  0.13995452191E+01  0.32010791480E+02 -0.29274110995E+02  0.43400726636E+02  0.00000000000E+00 0.  1.
         11    1    3    3    0    0 -0.53290661791E+01 -0.14623964428E+02  0.93141501489E+01  0.18138706547E+02  0.51100000000E-03 0. -1.
        -11    1    3    3    0    0 -0.14340374871E+00 -0.12847878437E+02  0.19731158872E+02  0.23545852621E+02  0.51100000000E-03 0.  1.
         12    1    3    3    0    0  0.40729247086E+01 -0.45389486150E+01  0.22880197489E+00  0.61027141958E+01  0.00000000000E+00 0. -1.
</event>
<event>
 7    1  0.7596051E-010  0.4778727E+02  0.7816164E-02  0.1312668E+00
        -11   -1    0    0    0    0  0.00000000000E+00  0.00000000000E+00  0.45593999997E+02  0.45594000000E+02  0.51100000000E-03 0. -1.
         11   -1    0    0    0    0 -0.00000000000E+00 -0.00000000000E+00 -0.45593999997E+02  0.45594000000E+02  0.51100000000E-03 0.  1.
    9900012    2    1    2    0    0 -0.68953035166E+01 -0.22217923482E+02  0.36639347717E+02  0.47787272638E+02  0.20000007266E+02 0.  0.
        -12    1    1    2    0    0  0.68953035166E+01  0.22217923482E+02 -0.36639347717E+02  0.43400727362E+02  0.00000000000E+00 0.  1.
         11    1    3    3    0    0 -0.90146335949E+01 -0.11868255290E+02  0.29616662566E+02  0.33155177639E+02  0.51100000000E-03 0. -1.
        -11    1    3    3    0    0  0.19209624749E+01 -0.19418662613E+01  0.54217413468E+01  0.60709324572E+01  0.51100000000E-03 0.  1.
        -12    1    3    3    0    0  0.19836760335E+00 -0.84078019303E+01  0.16009438043E+01  0.85611625419E+01  0.00000000000E+00 0.  1.
</event>
<event>
 7    1  0.7596051E-010  0.4778727E+02  0.7816164E-02  0.1312668E+00
        -11   -1    0    0    0    0  0.00000000000E+00  0.00000000000E+00  0.45593999997E+02  0.45594000000E+02  0.51100000000E-03 0.  1.
         11   -1    0    0    0    0 -0.00000000000E+00 -0.00000000000E+00 -0.45593999997E+02  0.45594000000E+02  0.51100000000E-03 0. -1.
    9900012    2    1    2    0    0  0.29245357705E+02 -0.16096328291E+02 -0.27735185359E+02  0.47787271450E+02  0.20000001851E+02 0.  0.
         12    1    1    2    0    0 -0.29245357705E+02  0.16096328291E+02  0.27735185359E+02  0.43400728550E+02  0.00000000000E+00 0. -1.
         11    1    3    3    0    0 -0.91592874819E-01 -0.15834373394E+01  0.99708739689E+00  0.18734584598E+01  0.51100000000E-03 0. -1.
        -11    1    3    3    0    0  0.16851278937E+02 -0.12853723028E+02 -0.10236332418E+02  0.23536488674E+02  0.51100000000E-03 0.  1.
         12    1    3    3    0    0  0.12485671643E+02 -0.16591679235E+01 -0.18495940338E+02  0.22377324316E+02  0.00000000000E+00 0. -1.
</event>
<event>
 7    1  0.7596051E-010  0.4778727E+02  0.7816164E-02  0.1312668E+00
        -11   -1    0    0    0    0  0.00000000000E+00  0.00000000000E+00  0.45593999997E+02  0.45594000000E+02  0.51100000000E-03 0.  1.
         11   -1    0    0    0    0 -0.00000000000E+00 -0.00000000000E+00 -0.45593999997E+02  0.45594000000E+02  0.51100000000E-03 0. -1.
    9900012    2    1    2    0    0  0.31774128936E+02  0.24440134552E+02 -0.16634548178E+02  0.47787266830E+02  0.19999980786E+02 0.  0.
         12    1    1    2    0    0 -0.31774128936E+02 -0.24440134552E+02  0.16634548178E+02  0.43400733170E+02  0.00000000000E+00 0. -1.
         11    1    3    3    0    0  0.96130199098E+01  0.44631666095E+01 -0.17036585161E+01  0.10734638353E+02  0.51100000000E-03 0. -1.
        -11    1    3    3    0    0  0.19345860471E+02  0.10810892418E+02 -0.40132771965E+01  0.22522080419E+02  0.51100000000E-03 0.  1.
         12    1    3    3    0    0  0.28152485552E+01  0.91660755242E+01 -0.10917612465E+02  0.14530548059E+02  0.00000000000E+00 0. -1.
</event>
<event>
 7    1  0.7596051E-010  0.4778726E+02  0.7816164E-02  0.1312668E+00
        -11   -1    0    0    0    0  0.00000000000E+00  0.00000000000E+00  0.45593999997E+02  0.45594000000E+02  0.51100000000E-03 0. -1.
         11   -1    0    0    0    0 -0.00000000000E+00 -0.00000000000E+00 -0.45593999997E+02  0.45594000000E+02  0.51100000000E-03 0.  1.
    9900012    2    1    2    0    0 -0.78516257920E+01 -0.20309777208E+02 -0.37543160282E+02  0.47787263120E+02  0.19999963868E+02 0.  0.
         12    1    1    2    0    0  0.78516257920E+01  0.20309777208E+02  0.37543160282E+02  0.43400736880E+02  0.00000000000E+00 0. -1.
         11    1    3    3    0    0 -0.55186296996E+01 -0.33071466507E+01 -0.27421940882E+01  0.69937201409E+01  0.51100000000E-03 0. -1.
        -11    1    3    3    0    0 -0.19769857501E+01  0.82369296918E+00 -0.60030046295E+00  0.22242535086E+01  0.51100000000E-03 0.  1.
        -12    1    3    3    0    0 -0.35601034236E+00 -0.17826323526E+02 -0.34200665731E+02  0.38569289470E+02  0.00000000000E+00 0.  1.
</event>
<event>
 7    1  0.7596051E-010  0.4778727E+02  0.7816164E-02  0.1312668E+00
        -11   -1    0    0    0    0  0.00000000000E+00  0.00000000000E+00  0.45593999997E+02  0.45594000000E+02  0.51100000000E-03 0. -1.
         11   -1    0    0    0    0 -0.00000000000E+00 -0.00000000000E+00 -0.45593999997E+02  0.45594000000E+02  0.51100000000E-03 0.  1.
    9900012    2    1    2    0    0  0.23293355230E+01  0.37321401848E+02 -0.22029762070E+02  0.47787271242E+02  0.20000000900E+02 0.  0.
         12    1    1    2    0    0 -0.23293355230E+01 -0.37321401848E+02  0.22029762070E+02  0.43400728758E+02  0.00000000000E+00 0. -1.
         11    1    3    3    0    0  0.35269933832E+01  0.16789172190E+02 -0.25073221513E+01  0.17337896348E+02  0.51100000000E-03 0.  1.
        -11    1    3    3    0    0  0.53457717426E-01  0.14578230573E+02 -0.62746325775E+01  0.15871316221E+02  0.51100000000E-03 0. -1.
         12    1    3    3    0    0 -0.12511155776E+01  0.59539990854E+01 -0.13247807341E+02  0.14578058672E+02  0.00000000000E+00 0. -1.
</event>
<event>
 7    1  0.7596051E-010  0.4778727E+02  0.7816164E-02  0.1312668E+00
        -11   -1    0    0    0    0  0.00000000000E+00  0.00000000000E+00  0.45593999997E+02  0.45594000000E+02  0.51100000000E-03 0.  1.
         11   -1    0    0    0    0 -0.00000000000E+00 -0.00000000000E+00 -0.45593999997E+02  0.45594000000E+02  0.51100000000E-03 0. -1.
    9900012    2    1    2    0    0 -0.37874117150E+02  0.19612363341E+02 -0.80330504454E+01  0.47787269071E+02  0.19999991002E+02 0.  0.
        -12    1    1    2    0    0  0.37874117150E+02 -0.19612363341E+02  0.80330504454E+01  0.43400730929E+02  0.00000000000E+00 0.  1.
         11    1    3    3    0    0 -0.26660990982E+01  0.22733978859E+01 -0.31773489943E+01  0.47299016102E+01  0.51100000000E-03 0. -1.
        -11    1    3    3    0    0 -0.32451741506E+02  0.88132086816E+01 -0.54999993436E+01  0.34074010141E+02  0.51100000000E-03 0.  1.
        -12    1    3    3    0    0 -0.27562765453E+01  0.85257567736E+01  0.64429789249E+00  0.89833573196E+01  0.00000000000E+00 0.  1.
</event>
<event>
 7    1  0.7596051E-010  0.4778724E+02  0.7816164E-02  0.1312668E+00
        -11   -1    0    0    0    0  0.00000000000E+00  0.00000000000E+00  0.45593999997E+02  0.45594000000E+02  0.51100000000E-03 0.  1.
         11   -1    0    0    0    0 -0.00000000000E+00 -0.00000000000E+00 -0.45593999997E+02  0.45594000000E+02  0.51100000000E-03 0. -1.
    9900012    2    1    2    0    0 -0.32142774653E+02 -0.28639416130E+02  0.55001701805E+01  0.47787239746E+02  0.19999857295E+02 0.  0.
        -12    1    1    2    0    0  0.32142774653E+02  0.28639416130E+02 -0.55001701805E+01  0.43400760254E+02  0.00000000000E+00 0.  1.
         11    1    3    3    0    0  0.18103791280E+00 -0.77571816909E+00 -0.38887807764E+00  0.88641966591E+00  0.51100000000E-03 0. -1.
        -11    1    3    3    0    0 -0.90830618766E+01  0.93411490977E+00 -0.12386764696E+01  0.92146027248E+01  0.51100000000E-03 0.  1.
         12    1    3    3    0    0 -0.23240750689E+02 -0.28797812870E+02  0.71277247277E+01  0.37686217355E+02  0.00000000000E+00 0. -1.
</event>
<event>
 7    1  0.7596051E-010  0.4778727E+02  0.7816164E-02  0.1312668E+00
        -11   -1    0    0    0    0  0.00000000000E+00  0.00000000000E+00  0.45593999997E+02  0.45594000000E+02  0.51100000000E-03 0. -1.
         11   -1    0    0    0    0 -0.00000000000E+00 -0.00000000000E+00 -0.45593999997E+02  0.45594000000E+02  0.51100000000E-03 0.  1.
    9900012    2    1    2    0    0 -0.10413545952E+02  0.20595629210E+01 -0.42082532876E+02  0.47787270605E+02  0.19999997997E+02 0.  0.
         12    1    1    2    0    0  0.10413545952E+02 -0.20595629210E+01  0.42082532876E+02  0.43400729395E+02  0.00000000000E+00 0. -1.
         11    1    3    3    0    0 -0.21801472450E+01 -0.39295023636E+01 -0.15024201833E+02  0.15681858047E+02  0.51100000000E-03 0. -1.
        -11    1    3    3    0    0 -0.11237495017E+02  0.91433393111E+00 -0.19418163566E+02  0.22454005819E+02  0.51100000000E-03 0.  1.
        -12    1    3    3    0    0  0.30040963101E+01  0.50747313535E+01 -0.76401674781E+01  0.96514067391E+01  0.00000000000E+00 0.  1.
</event>
<event>
 7    1  0.7596051E-010  0.4778727E+02  0.7816164E-02  0.1312668E+00
        -11   -1    0    0    0    0  0.00000000000E+00  0.00000000000E+00  0.45593999997E+02  0.45594000000E+02  0.51100000000E-03 0. -1.
         11   -1    0    0    0    0 -0.00000000000E+00 -0.00000000000E+00 -0.45593999997E+02  0.45594000000E+02  0.51100000000E-03 0.  1.
    9900012    2    1    2    0    0  0.31970059575E+02 -0.16972068175E+01  0.29302875881E+02  0.47787265500E+02  0.19999974722E+02 0.  0.
        -12    1    1    2    0    0 -0.31970059575E+02  0.16972068175E+01 -0.29302875881E+02  0.43400734500E+02  0.00000000000E+00 0.  1.
         11    1    3    3    0    0  0.16438711198E+02  0.57319267888E+01  0.14379032717E+02  0.22579698685E+02  0.51100000000E-03 0. -1.
        -11    1    3    3    0    0  0.51871843175E+01  0.24089652547E+01  0.63904707789E+01  0.85760195766E+01  0.51100000000E-03 0.  1.
        -12    1    3    3    0    0  0.10344164060E+02 -0.98380988610E+01  0.85333723851E+01  0.16631547239E+02  0.00000000000E+00 0.  1.
</event>
<event>
 7    1  0.7596051E-010  0.4778726E+02  0.7816164E-02  0.1312668E+00
        -11   -1    0    0    0    0  0.00000000000E+00  0.00000000000E+00  0.45593999997E+02  0.45594000000E+02  0.51100000000E-03 0. -1.
         11   -1    0    0    0    0 -0.00000000000E+00 -0.00000000000E+00 -0.45593999997E+02  0.45594000000E+02  0.51100000000E-03 0.  1.
    9900012    2    1    2    0    0  0.11396826661E+02  0.66987486958E+01  0.41338396028E+02  0.47787264082E+02  0.19999968256E+02 0.  0.
        -12    1    1    2    0    0 -0.11396826661E+02 -0.66987486958E+01 -0.41338396028E+02  0.43400735918E+02  0.00000000000E+00 0.  1.
         11    1    3    3    0    0  0.68215058338E+01  0.29783906711E+01  0.22189601462E+02  0.23404746658E+02  0.51100000000E-03 0. -1.
        -11    1    3    3    0    0  0.68023017134E+01  0.73100168811E+01  0.92142206490E+01  0.13587108516E+02  0.51100000000E-03 0.  1.
        -12    1    3    3    0    0 -0.22269808862E+01 -0.35896588564E+01  0.99345739173E+01  0.10795408908E+02  0.00000000000E+00 0.  1.
</event>
<event>
 7    1  0.7596051E-010  0.4778727E+02  0.7816164E-02  0.1312668E+00
        -11   -1    0    0    0    0  0.00000000000E+00  0.00000000000E+00  0.45593999997E+02  0.45594000000E+02  0.51100000000E-03 0. -1.
         11   -1    0    0    0    0 -0.00000000000E+00 -0.00000000000E+00 -0.45593999997E+02  0.45594000000E+02  0.51100000000E-03 0.  1.
    9900012    2    1    2    0    0 -0.22345170088E+02 -0.44599834466E+01 -0.36938126170E+02  0.47787271393E+02  0.20000001591E+02 0.  0.
         12    1    1    2    0    0  0.22345170088E+02  0.44599834466E+01  0.36938126170E+02  0.43400728607E+02  0.00000000000E+00 0. -1.
         11    1    3    3    0    0 -0.11751083319E+02  0.22162364043E+01 -0.82746337898E+01  0.14541981556E+02  0.51100000000E-03 0. -1.
        -11    1    3    3    0    0 -0.82093797110E+01 -0.58917758940E+01 -0.93424615681E+01  0.13761850415E+02  0.51100000000E-03 0.  1.
        -12    1    3    3    0    0 -0.23847070585E+01 -0.78444395693E+00 -0.19321030812E+02  0.19483439422E+02  0.00000000000E+00 0.  1.
</event>
<event>
 7    1  0.7596051E-010  0.4778728E+02  0.7816164E-02  0.1312668E+00
        -11   -1    0    0    0    0  0.00000000000E+00  0.00000000000E+00  0.45593999997E+02  0.45594000000E+02  0.51100000000E-03 0. -1.
         11   -1    0    0    0    0 -0.00000000000E+00 -0.00000000000E+00 -0.45593999997E+02  0.45594000000E+02  0.51100000000E-03 0.  1.
    9900012    2    1    2    0    0 -0.41314681876E+02  0.38167346630E+01 -0.12733911541E+02  0.47787275293E+02  0.20000019369E+02 0.  0.
         12    1    1    2    0    0  0.41314681876E+02 -0.38167346630E+01  0.12733911541E+02  0.43400724707E+02  0.00000000000E+00 0. -1.
         11    1    3    3    0    0 -0.14207103266E+02 -0.13857477576E+01  0.41733918959E+01  0.14872097372E+02  0.51100000000E-03 0. -1.
        -11    1    3    3    0    0 -0.11195145168E+02 -0.60231493600E+00 -0.54489264864E+01  0.12465346314E+02  0.51100000000E-03 0.  1.
         12    1    3    3    0    0 -0.15912433441E+02  0.58047973567E+01 -0.11458376951E+02  0.20449831606E+02  0.00000000000E+00 0. -1.
</event>
<event>
 7    1  0.7596051E-010  0.4778727E+02  0.7816164E-02  0.1312668E+00
        -11   -1    0    0    0    0  0.00000000000E+00  0.00000000000E+00  0.45593999997E+02  0.45594000000E+02  0.51100000000E-03 0. -1.
         11   -1    0    0    0    0 -0.00000000000E+00 -0.00000000000E+00 -0.45593999997E+02  0.45594000000E+02  0.51100000000E-03 0.  1.
    9900012    2    1    2    0    0 -0.11398563141E+02 -0.28737735982E+02 -0.30460443652E+02  0.47787270300E+02  0.19999996604E+02 0.  0.
         12    1    1    2    0    0  0.11398563141E+02  0.28737735982E+02  0.30460443652E+02  0.43400729700E+02  0.00000000000E+00 0. -1.
         11    1    3    3    0    0  0.13042891983E+01  0.13403310827E+01  0.34979495339E+00  0.19026335681E+01  0.51100000000E-03 0. -1.
        -11    1    3    3    0    0 -0.20486752614E+01 -0.49414032092E+01 -0.10744759282E+02  0.12002682545E+02  0.51100000000E-03 0.  1.
        -12    1    3    3    0    0 -0.10654177077E+02 -0.25136663855E+02 -0.20065479324E+02  0.33881954186E+02  0.00000000000E+00 0.  1.
</event>
<event>
 7    1  0.7596051E-010  0.4778725E+02  0.7816164E-02  0.1312668E+00
        -11   -1    0    0    0    0  0.00000000000E+00  0.00000000000E+00  0.45593999997E+02  0.45594000000E+02  0.51100000000E-03 0. -1.
         11   -1    0    0    0    0 -0.00000000000E+00 -0.00000000000E+00 -0.45593999997E+02  0.45594000000E+02  0.51100000000E-03 0.  1.
    9900012    2    1    2    0    0  0.16672181957E+01 -0.33580465568E+02  0.27444441805E+02  0.47787254958E+02  0.19999926654E+02 0.  0.
        -12    1    1    2    0    0 -0.16672181957E+01  0.33580465568E+02 -0.27444441805E+02  0.43400745042E+02  0.00000000000E+00 0.  1.
         11    1    3    3    0    0  0.23937704087E+01 -0.31919957377E+01  0.45560854097E+01  0.60561446549E+01  0.51100000000E-03 0.  1.
        -11    1    3    3    0    0 -0.11696381486E+01 -0.32608869921E+02  0.21440589824E+02  0.39043633837E+02  0.51100000000E-03 0. -1.
         12    1    3    3    0    0  0.44308593557E+00  0.22204000911E+01  0.14477665707E+01  0.26874764658E+01  0.00000000000E+00 0. -1.
</event>
<event>
 7    1  0.7596051E-010  0.4778728E+02  0.7816164E-02  0.1312668E+00
        -11   -1    0    0    0    0  0.00000000000E+00  0.00000000000E+00  0.45593999997E+02  0.45594000000E+02  0.51100000000E-03 0. -1.
         11   -1    0    0    0    0 -0.00000000000E+00 -0.00000000000E+00 -0.45593999997E+02  0.45594000000E+02  0.51100000000E-03 0.  1.
    9900012    2    1    2    0    0 -0.24703936359E+02 -0.18707021314E+02 -0.30387253938E+02  0.47787282034E+02  0.20000050104E+02 0.  0.
         12    1    1    2    0    0  0.24703936359E+02  0.18707021314E+02  0.30387253938E+02  0.43400717966E+02  0.00000000000E+00 0. -1.
         11    1    3    3    0    0 -0.12471300399E+02 -0.11913399131E+02 -0.15626026872E+02  0.23273055849E+02  0.51100000000E-03 0. -1.
        -11    1    3    3    0    0 -0.12614359015E+02 -0.85595503478E+01 -0.74204454110E+01  0.16954378959E+02  0.51100000000E-03 0.  1.
         12    1    3    3    0    0  0.38172305477E+00  0.17659281641E+01 -0.73407816551E+01  0.75598472259E+01  0.00000000000E+00 0. -1.
</event>
<event>
 7    1  0.7596051E-010  0.4778727E+02  0.7816164E-02  0.1312668E+00
        -11   -1    0    0    0    0  0.00000000000E+00  0.00000000000E+00  0.45593999997E+02  0.45594000000E+02  0.51100000000E-03 0. -1.
         11   -1    0    0    0    0 -0.00000000000E+00 -0.00000000000E+00 -0.45593999997E+02  0.45594000000E+02  0.51100000000E-03 0.  1.
    9900012    2    1    2    0    0 -0.98747064841E+01  0.30304567311E+02 -0.29457543599E+02  0.47787268405E+02  0.19999987966E+02 0.  0.
         12    1    1    2    0    0  0.98747064841E+01 -0.30304567311E+02  0.29457543599E+02  0.43400731595E+02  0.00000000000E+00 0. -1.
         11    1    3    3    0    0  0.29893387892E+01  0.32924432634E+01 -0.18428677829E+01  0.48137813583E+01  0.51100000000E-03 0. -1.
        -11    1    3    3    0    0 -0.47893851201E+01  0.22831458874E+02 -0.16304011743E+02  0.28461105448E+02  0.51100000000E-03 0.  1.
         12    1    3    3    0    0 -0.80746601532E+01  0.41806651741E+01 -0.11310664073E+02  0.14512381599E+02  0.00000000000E+00 0. -1.
</event>
<event>
 7    1  0.7596051E-010  0.4778727E+02  0.7816164E-02  0.1312668E+00
        -11   -1    0    0    0    0  0.00000000000E+00  0.00000000000E+00  0.45593999997E+02  0.45594000000E+02  0.51100000000E-03 0. -1.
         11   -1    0    0    0    0 -0.00000000000E+00 -0.00000000000E+00 -0.45593999997E+02  0.45594000000E+02  0.51100000000E-03 0.  1.
    9900012    2    1    2    0    0 -0.26397402714E+02  0.30266489979E+02 -0.16454180278E+02  0.47787270348E+02  0.19999996823E+02 0.  0.
         12    1    1    2    0    0  0.26397402714E+02 -0.30266489979E+02  0.16454180278E+02  0.43400729652E+02  0.00000000000E+00 0. -1.
         11    1    3    3    0    0 -0.82180093789E+01  0.10876425012E+02 -0.14837568325E+01  0.13712542937E+02  0.51100000000E-03 0. -1.
        -11    1    3    3    0    0 -0.38442036670E+01 -0.77504710054E+00  0.16655068995E+01  0.42605766435E+01  0.51100000000E-03 0.  1.
         12    1    3    3    0    0 -0.14335189668E+02  0.20165112068E+02 -0.16635930345E+02  0.29814150767E+02  0.00000000000E+00 0. -1.
</event>
<event>
 7    1  0.7596051E-010  0.4778727E+02  0.7816164E-02  0.1312668E+00
        -11   -1    0    0    0    0  0.00000000000E+00  0.00000000000E+00  0.45593999997E+02  0.45594000000E+02  0.51100000000E-03 0. -1.
         11   -1    0    0    0    0 -0.00000000000E+00 -0.00000000000E+00 -0.45593999997E+02  0.45594000000E+02  0.51100000000E-03 0.  1.
    9900012    2    1    2    0    0  0.16688836309E+02 -0.22015388535E+02 -0.33472805428E+02  0.47787270826E+02  0.19999999002E+02 0.  0.
         12    1    1    2    0    0 -0.16688836309E+02  0.22015388535E+02  0.33472805428E+02  0.43400729174E+02  0.00000000000E+00 0. -1.
         11    1    3    3    0    0  0.23979457039E+01  0.21633959741E+01 -0.27894415516E+01  0.42674828846E+01  0.51100000000E-03 0. -1.
        -11    1    3    3    0    0  0.37601978805E+01 -0.12958090431E+01 -0.10543126096E+02  0.11268350248E+02  0.51100000000E-03 0.  1.
        -12    1    3    3    0    0  0.10530692725E+02 -0.22882975466E+02 -0.20140237780E+02  0.32251437693E+02  0.00000000000E+00 0.  1.
</event>
<event>
 7    1  0.7596051E-010  0.4778727E+02  0.7816164E-02  0.1312668E+00
        -11   -1    0    0    0    0  0.00000000000E+00  0.00000000000E+00  0.45593999997E+02  0.45594000000E+02  0.51100000000E-03 0. -1.
         11   -1    0    0    0    0 -0.00000000000E+00 -0.00000000000E+00 -0.45593999997E+02  0.45594000000E+02  0.51100000000E-03 0.  1.
    9900012    2    1    2    0    0 -0.25257171660E+02 -0.33905744116E+02 -0.98030296484E+01  0.47787267349E+02  0.19999983150E+02 0.  0.
         12    1    1    2    0    0  0.25257171660E+02  0.33905744116E+02  0.98030296484E+01  0.43400732651E+02  0.00000000000E+00 0. -1.
         11    1    3    3    0    0 -0.12629957711E+01 -0.48106756381E+01 -0.67956883688E+01  0.84213501935E+01  0.51100000000E-03 0. -1.
        -11    1    3    3    0    0 -0.93404133827E+01 -0.57459807270E+01 -0.42754224370E+01  0.11770252926E+02  0.51100000000E-03 0.  1.
        -12    1    3    3    0    0 -0.14653762507E+02 -0.23349087751E+02  0.12680811574E+01  0.27595664229E+02  0.00000000000E+00 0.  1.
</event>
<event>
 7    1  0.7596051E-010  0.4778727E+02  0.7816164E-02  0.1312668E+00
        -11   -1    0    0    0    0  0.00000000000E+00  0.00000000000E+00  0.45593999997E+02  0.45594000000E+02  0.51100000000E-03 0. -1.
         11   -1    0    0    0    0 -0.00000000000E+00 -0.00000000000E+00 -0.45593999997E+02  0.45594000000E+02  0.51100000000E-03 0.  1.
    9900012    2    1    2    0    0 -0.13369146410E+02  0.17826857475E+02 -0.37243688164E+02  0.47787271536E+02  0.20000002243E+02 0.  0.
         12    1    1    2    0    0  0.13369146410E+02 -0.17826857475E+02  0.37243688164E+02  0.43400728464E+02  0.00000000000E+00 0. -1.
         11    1    3    3    0    0 -0.62987075083E+01 -0.12574191705E+01 -0.50456985334E+01  0.81678573198E+01  0.51100000000E-03 0. -1.
        -11    1    3    3    0    0 -0.80205101603E+01  0.95972894469E+01 -0.12235953894E+02  0.17497288816E+02  0.51100000000E-03 0.  1.
         12    1    3    3    0    0  0.95007125860E+00  0.94869871982E+01 -0.19962035737E+02  0.22122125401E+02  0.00000000000E+00 0. -1.
</event>
<event>
 7    1  0.7596051E-010  0.4778727E+02  0.7816164E-02  0.1312668E+00
        -11   -1    0    0    0    0  0.00000000000E+00  0.00000000000E+00  0.45593999997E+02  0.45594000000E+02  0.51100000000E-03 0.  1.
         11   -1    0    0    0    0 -0.00000000000E+00 -0.00000000000E+00 -0.45593999997E+02  0.45594000000E+02  0.51100000000E-03 0. -1.
    9900012    2    1    2    0    0 -0.24896782410E+01 -0.39161366162E+02 -0.18542167659E+02  0.47787273291E+02  0.20000010241E+02 0.  0.
         12    1    1    2    0    0  0.24896782410E+01  0.39161366162E+02  0.18542167659E+02  0.43400726709E+02  0.00000000000E+00 0. -1.
         11    1    3    3    0    0  0.57716310942E+01 -0.20284802113E+02 -0.16264983588E+02  0.26633336509E+02  0.51100000000E-03 0. -1.
        -11    1    3    3    0    0 -0.31173773533E+01 -0.91076716012E+01 -0.30187088540E+01  0.10088623641E+02  0.51100000000E-03 0.  1.
         12    1    3    3    0    0 -0.51439319819E+01 -0.97688924481E+01  0.74152478301E+00  0.11065313141E+02  0.00000000000E+00 0. -1.
</event>
<event>
 7    1  0.7596051E-010  0.4778727E+02  0.7816164E-02  0.1312668E+00
        -11   -1    0    0    0    0  0.00000000000E+00  0.00000000000E+00  0.45593999997E+02  0.45594000000E+02  0.51100000000E-03 0. -1.
         11   -1    0    0    0    0 -0.00000000000E+00 -0.00000000000E+00 -0.45593999997E+02  0.45594000000E+02  0.51100000000E-03 0.  1.
    9900012    2    1    2    0    0 -0.24160237181E+02 -0.27462500105E+02  0.23360591963E+02  0.47787271555E+02  0.20000002330E+02 0.  0.
        -12    1    1    2    0    0  0.24160237181E+02  0.27462500105E+02 -0.23360591963E+02  0.43400728445E+02  0.00000000000E+00 0.  1.
         11    1    3    3    0    0 -0.21473408723E+02 -0.13075339781E+02  0.82898085353E+01  0.26472489842E+02  0.51100000000E-03 0.  1.
        -11    1    3    3    0    0 -0.45568455334E+00 -0.36841727790E+01  0.18155534265E+01  0.41324341475E+01  0.51100000000E-03 0. -1.
        -12    1    3    3    0    0 -0.22311439041E+01 -0.10702987545E+02  0.13255230002E+02  0.17182347566E+02  0.00000000000E+00 0.  1.
</event>
<event>
 7    1  0.7596051E-010  0.4778727E+02  0.7816164E-02  0.1312668E+00
        -11   -1    0    0    0    0  0.00000000000E+00  0.00000000000E+00  0.45593999997E+02  0.45594000000E+02  0.51100000000E-03 0. -1.
         11   -1    0    0    0    0 -0.00000000000E+00 -0.00000000000E+00 -0.45593999997E+02  0.45594000000E+02  0.51100000000E-03 0.  1.
    9900012    2    1    2    0    0 -0.87892533911E+01 -0.39497888991E+02 -0.15693591146E+02  0.47787274050E+02  0.20000013704E+02 0.  0.
         12    1    1    2    0    0  0.87892533911E+01  0.39497888991E+02  0.15693591146E+02  0.43400725950E+02  0.00000000000E+00 0. -1.
         11    1    3    3    0    0 -0.44565294443E+00 -0.12248133578E+02  0.15875179212E+01  0.12358624361E+02  0.51100000000E-03 0. -1.
        -11    1    3    3    0    0 -0.58101926429E+01 -0.34761541987E+01 -0.20227891204E+01  0.70663754958E+01  0.51100000000E-03 0.  1.
        -12    1    3    3    0    0 -0.25334078037E+01 -0.23773601215E+02 -0.15258319946E+02  0.28362274193E+02  0.00000000000E+00 0.  1.
</event>
<event>
 7    1  0.7596051E-010  0.4778727E+02  0.7816164E-02  0.1312668E+00
        -11   -1    0    0    0    0  0.00000000000E+00  0.00000000000E+00  0.45593999997E+02  0.45594000000E+02  0.51100000000E-03 0. -1.
         11   -1    0    0    0    0 -0.00000000000E+00 -0.00000000000E+00 -0.45593999997E+02  0.45594000000E+02  0.51100000000E-03 0.  1.
    9900012    2    1    2    0    0 -0.27135378925E+02 -0.86418026528E+01  0.32750777079E+02  0.47787274871E+02  0.20000017445E+02 0.  0.
        -12    1    1    2    0    0  0.27135378925E+02  0.86418026528E+01 -0.32750777079E+02  0.43400725129E+02  0.00000000000E+00 0.  1.
         11    1    3    3    0    0 -0.24375029199E+02 -0.11649338273E+02  0.33666651955E+02  0.43165872918E+02  0.51100000000E-03 0. -1.
        -11    1    3    3    0    0 -0.88897879660E+00  0.96632990997E+00  0.62298469668E+00  0.14533365024E+01  0.51100000000E-03 0.  1.
         12    1    3    3    0    0 -0.18713709296E+01  0.20412057106E+01 -0.15388595733E+01  0.31680654500E+01  0.00000000000E+00 0. -1.
</event>
<event>
 7    1  0.7596051E-010  0.4778727E+02  0.7816164E-02  0.1312668E+00
        -11   -1    0    0    0    0  0.00000000000E+00  0.00000000000E+00  0.45593999997E+02  0.45594000000E+02  0.51100000000E-03 0. -1.
         11   -1    0    0    0    0 -0.00000000000E+00 -0.00000000000E+00 -0.45593999997E+02  0.45594000000E+02  0.51100000000E-03 0.  1.
    9900012    2    1    2    0    0  0.39383555720E+01 -0.22216967837E+02 -0.37074503315E+02  0.47787273042E+02  0.20000009106E+02 0.  0.
         12    1    1    2    0    0 -0.39383555720E+01  0.22216967837E+02  0.37074503315E+02  0.43400726958E+02  0.00000000000E+00 0. -1.
         11    1    3    3    0    0  0.99863244434E+00 -0.42653312524E+01 -0.28422546131E+01  0.52219468590E+01  0.51100000000E-03 0.  1.
        -11    1    3    3    0    0  0.52138703780E+00  0.11253938635E+01 -0.16059233618E+02  0.16107058715E+02  0.51100000000E-03 0. -1.
         12    1    3    3    0    0  0.24183360898E+01 -0.19077030448E+02 -0.18173015084E+02  0.26458267468E+02  0.00000000000E+00 0. -1.
</event>
<event>
 7    1  0.7596051E-010  0.4778727E+02  0.7816164E-02  0.1312668E+00
        -11   -1    0    0    0    0  0.00000000000E+00  0.00000000000E+00  0.45593999997E+02  0.45594000000E+02  0.51100000000E-03 0. -1.
         11   -1    0    0    0    0 -0.00000000000E+00 -0.00000000000E+00 -0.45593999997E+02  0.45594000000E+02  0.51100000000E-03 0.  1.
    9900012    2    1    2    0    0 -0.21592581282E+02  0.30315708739E+02 -0.22323562506E+02  0.47787271829E+02  0.20000003578E+02 0.  0.
         12    1    1    2    0    0  0.21592581282E+02 -0.30315708739E+02  0.22323562506E+02  0.43400728171E+02  0.00000000000E+00 0. -1.
         11    1    3    3    0    0  0.10933699392E+00  0.11187962851E+02 -0.61556061277E+01  0.12770041284E+02  0.51100000000E-03 0. -1.
        -11    1    3    3    0    0 -0.90785497918E+01  0.10288375514E+02 -0.16057259230E+01  0.13814814260E+02  0.51100000000E-03 0.  1.
        -12    1    3    3    0    0 -0.12623368484E+02  0.88393703747E+01 -0.14562230455E+02  0.21202416285E+02  0.00000000000E+00 0.  1.
</event>
<event>
 7    1  0.7596051E-010  0.4778727E+02  0.7816164E-02  0.1312668E+00
        -11   -1    0    0    0    0  0.00000000000E+00  0.00000000000E+00  0.45593999997E+02  0.45594000000E+02  0.51100000000E-03 0. -1.
         11   -1    0    0    0    0 -0.00000000000E+00 -0.00000000000E+00 -0.45593999997E+02  0.45594000000E+02  0.51100000000E-03 0.  1.
    9900012    2    1    2    0    0  0.22299965448E+02  0.25720665281E+02 -0.26921784053E+02  0.47787268001E+02  0.19999986122E+02 0.  0.
         12    1    1    2    0    0 -0.22299965448E+02 -0.25720665281E+02  0.26921784053E+02  0.43400731999E+02  0.00000000000E+00 0. -1.
         11    1    3    3    0    0  0.45648743069E+01  0.64279257099E+01 -0.26066789455E+01  0.83036788086E+01  0.51100000000E-03 0. -1.
        -11    1    3    3    0    0  0.19355608153E+01  0.37696894586E+01  0.23289734648E+01  0.48353978063E+01  0.51100000000E-03 0.  1.
        -12    1    3    3    0    0  0.15799530325E+02  0.15523050113E+02 -0.26644078573E+02  0.34648191386E+02  0.00000000000E+00 0.  1.
</event>
<event>
 7    1  0.7596051E-010  0.4778728E+02  0.7816164E-02  0.1312668E+00
        -11   -1    0    0    0    0  0.00000000000E+00  0.00000000000E+00  0.45593999997E+02  0.45594000000E+02  0.51100000000E-03 0. -1.
         11   -1    0    0    0    0 -0.00000000000E+00 -0.00000000000E+00 -0.45593999997E+02  0.45594000000E+02  0.51100000000E-03 0.  1.
    9900012    2    1    2    0    0 -0.12603176647E+02 -0.11946725110E+02 -0.39775100355E+02  0.47787275229E+02  0.20000019077E+02 0.  0.
         12    1    1    2    0    0  0.12603176647E+02  0.11946725110E+02  0.39775100355E+02  0.43400724771E+02  0.00000000000E+00 0. -1.
         11    1    3    3    0    0  0.36042277734E+00  0.88232121113E+00 -0.29937560781E+01  0.31418101493E+01  0.51100000000E-03 0. -1.
        -11    1    3    3    0    0  0.41266231478E+01 -0.28296627073E+01 -0.42643794724E+01  0.65742636232E+01  0.51100000000E-03 0.  1.
         12    1    3    3    0    0 -0.17090222572E+02 -0.99993836137E+01 -0.32516964804E+02  0.38071201456E+02  0.00000000000E+00 0. -1.
</event>
<event>
 7    1  0.7596051E-010  0.4778727E+02  0.7816164E-02  0.1312668E+00
        -11   -1    0    0    0    0  0.00000000000E+00  0.00000000000E+00  0.45593999997E+02  0.45594000000E+02  0.51100000000E-03 0. -1.
         11   -1    0    0    0    0 -0.00000000000E+00 -0.00000000000E+00 -0.45593999997E+02  0.45594000000E+02  0.51100000000E-03 0.  1.
    9900012    2    1    2    0    0  0.10018819337E+02  0.56184843313E-01 -0.42228466774E+02  0.47787270701E+02  0.19999998434E+02 0.  0.
         12    1    1    2    0    0 -0.10018819337E+02 -0.56184843313E-01  0.42228466774E+02  0.43400729299E+02  0.00000000000E+00 0. -1.
         11    1    3    3    0    0  0.17162198688E+01  0.37668423746E+01 -0.27248280690E+01  0.49557240016E+01  0.51100000000E-03 0. -1.
        -11    1    3    3    0    0 -0.26799541782E+01  0.27111068195E+01 -0.99895122972E+01  0.10692175213E+02  0.51100000000E-03 0.  1.
        -12    1    3    3    0    0  0.10982553646E+02 -0.64217643509E+01 -0.29514126407E+02  0.32139371487E+02  0.00000000000E+00 0.  1.
</event>
<event>
 7    1  0.7596051E-010  0.4778727E+02  0.7816164E-02  0.1312668E+00
        -11   -1    0    0    0    0  0.00000000000E+00  0.00000000000E+00  0.45593999997E+02  0.45594000000E+02  0.51100000000E-03 0. -1.
         11   -1    0    0    0    0 -0.00000000000E+00 -0.00000000000E+00 -0.45593999997E+02  0.45594000000E+02  0.51100000000E-03 0.  1.
    9900012    2    1    2    0    0 -0.30356985298E+02 -0.32975986155E+01 -0.30841567023E+02  0.47787274552E+02  0.20000015991E+02 0.  0.
         12    1    1    2    0    0  0.30356985298E+02  0.32975986155E+01  0.30841567023E+02  0.43400725448E+02  0.00000000000E+00 0. -1.
         11    1    3    3    0    0 -0.14739167183E+02 -0.21758711787E+01 -0.80215143192E+01  0.16921056612E+02  0.51100000000E-03 0. -1.
        -11    1    3    3    0    0 -0.15146246304E+02  0.31217506198E+01 -0.13165518606E+02  0.20309726351E+02  0.51100000000E-03 0.  1.
        -12    1    3    3    0    0 -0.47157181000E+00 -0.42434780566E+01 -0.96545340986E+01  0.10556491588E+02  0.00000000000E+00 0.  1.
</event>
<event>
 7    1  0.7596051E-010  0.4778727E+02  0.7816164E-02  0.1312668E+00
        -11   -1    0    0    0    0  0.00000000000E+00  0.00000000000E+00  0.45593999997E+02  0.45594000000E+02  0.51100000000E-03 0. -1.
         11   -1    0    0    0    0 -0.00000000000E+00 -0.00000000000E+00 -0.45593999997E+02  0.45594000000E+02  0.51100000000E-03 0.  1.
    9900012    2    1    2    0    0 -0.23098037323E+01  0.58267952023E+01  0.42945740382E+02  0.47787270138E+02  0.19999995865E+02 0.  0.
        -12    1    1    2    0    0  0.23098037323E+01 -0.58267952023E+01 -0.42945740382E+02  0.43400729862E+02  0.00000000000E+00 0.  1.
         11    1    3    3    0    0 -0.18233811841E+01  0.39062686177E+01  0.23324697360E+02  0.23719720922E+02  0.51100000000E-03 0. -1.
        -11    1    3    3    0    0 -0.58804968072E+01  0.27342670756E+01  0.16622244913E+02  0.17842519031E+02  0.51100000000E-03 0.  1.
        -12    1    3    3    0    0  0.53940742591E+01 -0.81374049094E+00  0.29987981093E+01  0.62250301846E+01  0.00000000000E+00 0.  1.
</event>
<event>
 7    1  0.7596051E-010  0.4778727E+02  0.7816164E-02  0.1312668E+00
        -11   -1    0    0    0    0  0.00000000000E+00  0.00000000000E+00  0.45593999997E+02  0.45594000000E+02  0.51100000000E-03 0. -1.
         11   -1    0    0    0    0 -0.00000000000E+00 -0.00000000000E+00 -0.45593999997E+02  0.45594000000E+02  0.51100000000E-03 0.  1.
    9900012    2    1    2    0    0  0.30670258068E+02  0.18544991592E+02  0.24475330881E+02  0.47787271149E+02  0.20000000475E+02 0.  0.
        -12    1    1    2    0    0 -0.30670258068E+02 -0.18544991592E+02 -0.24475330881E+02  0.43400728851E+02  0.00000000000E+00 0.  1.
         11    1    3    3    0    0  0.85239717968E+01  0.76248667816E+01  0.30762600849E+01  0.11843144219E+02  0.51100000000E-03 0. -1.
        -11    1    3    3    0    0  0.29642743283E+01 -0.16162042799E+01 -0.13668952224E+01  0.36424499142E+01  0.51100000000E-03 0.  1.
        -12    1    3    3    0    0  0.19182011943E+02  0.12536329090E+02  0.22765966019E+02  0.32301677015E+02  0.00000000000E+00 0.  1.
</event>
<event>
 7    1  0.7596051E-010  0.4778727E+02  0.7816164E-02  0.1312668E+00
        -11   -1    0    0    0    0  0.00000000000E+00  0.00000000000E+00  0.45593999997E+02  0.45594000000E+02  0.51100000000E-03 0. -1.
         11   -1    0    0    0    0 -0.00000000000E+00 -0.00000000000E+00 -0.45593999997E+02  0.45594000000E+02  0.51100000000E-03 0.  1.
    9900012    2    1    2    0    0 -0.33580794447E+00  0.28690127822E+01 -0.43304494474E+02  0.47787271401E+02  0.20000001625E+02 0.  0.
         12    1    1    2    0    0  0.33580794447E+00 -0.28690127822E+01  0.43304494474E+02  0.43400728599E+02  0.00000000000E+00 0. -1.
         11    1    3    3    0    0  0.30063822103E+00  0.21232480815E+01 -0.27233965244E+02  0.27318261821E+02  0.51100000000E-03 0. -1.
        -11    1    3    3    0    0  0.46678272250E+01 -0.24181031780E+01 -0.11920017974E+02  0.13027765071E+02  0.51100000000E-03 0.  1.
         12    1    3    3    0    0 -0.53042733905E+01  0.31638678787E+01 -0.41505112557E+01  0.74412445087E+01  0.00000000000E+00 0. -1.
</event>
<event>
 7    1  0.7596051E-010  0.4778727E+02  0.7816164E-02  0.1312668E+00
        -11   -1    0    0    0    0  0.00000000000E+00  0.00000000000E+00  0.45593999997E+02  0.45594000000E+02  0.51100000000E-03 0. -1.
         11   -1    0    0    0    0 -0.00000000000E+00 -0.00000000000E+00 -0.45593999997E+02  0.45594000000E+02  0.51100000000E-03 0.  1.
    9900012    2    1    2    0    0  0.77229085491E+01 -0.30849714412E+02  0.29534301788E+02  0.47787272151E+02  0.20000005043E+02 0.  0.
        -12    1    1    2    0    0 -0.77229085491E+01  0.30849714412E+02 -0.29534301788E+02  0.43400727849E+02  0.00000000000E+00 0.  1.
         11    1    3    3    0    0 -0.38617434159E+01 -0.31594659577E+01  0.90799461933E+01  0.10360536206E+02  0.51100000000E-03 0. -1.
        -11    1    3    3    0    0  0.50734100570E+00 -0.98310692409E+01  0.35799999244E+01  0.10474908927E+02  0.51100000000E-03 0.  1.
        -12    1    3    3    0    0  0.11077310959E+02 -0.17859179214E+02  0.16874355670E+02  0.26951827017E+02  0.00000000000E+00 0.  1.
</event>
<event>
 7    1  0.7596051E-010  0.4778727E+02  0.7816164E-02  0.1312668E+00
        -11   -1    0    0    0    0  0.00000000000E+00  0.00000000000E+00  0.45593999997E+02  0.45594000000E+02  0.51100000000E-03 0. -1.
         11   -1    0    0    0    0 -0.00000000000E+00 -0.00000000000E+00 -0.45593999997E+02  0.45594000000E+02  0.51100000000E-03 0.  1.
    9900012    2    1    2    0    0 -0.23754837012E+02  0.79303991131E+01 -0.35446293072E+02  0.47787271848E+02  0.20000003664E+02 0.  0.
         12    1    1    2    0    0  0.23754837012E+02 -0.79303991131E+01  0.35446293072E+02  0.43400728152E+02  0.00000000000E+00 0. -1.
         11    1    3    3    0    0 -0.66474549352E+01  0.32122763305E+01 -0.11293973620E+02  0.13493006216E+02  0.51100000000E-03 0. -1.
        -11    1    3    3    0    0 -0.20474102213E+02  0.43191643942E+01 -0.20155128301E+02  0.29052938571E+02  0.51100000000E-03 0.  1.
         12    1    3    3    0    0  0.33667201364E+01  0.39895838828E+00 -0.39971911507E+01  0.52413270616E+01  0.00000000000E+00 0. -1.
</event>
<event>
 7    1  0.7596051E-010  0.4778726E+02  0.7816164E-02  0.1312668E+00
        -11   -1    0    0    0    0  0.00000000000E+00  0.00000000000E+00  0.45593999997E+02  0.45594000000E+02  0.51100000000E-03 0. -1.
         11   -1    0    0    0    0 -0.00000000000E+00 -0.00000000000E+00 -0.45593999997E+02  0.45594000000E+02  0.51100000000E-03 0.  1.
    9900012    2    1    2    0    0  0.25704378154E+02 -0.28123599881E+01 -0.34856846821E+02  0.47787260429E+02  0.19999951599E+02 0.  0.
         12    1    1    2    0    0 -0.25704378154E+02  0.28123599881E+01  0.34856846821E+02  0.43400739571E+02  0.00000000000E+00 0. -1.
         11    1    3    3    0    0  0.17420991317E+01 -0.28299270557E+00  0.89649440176E+00  0.19795698345E+01  0.51100000000E-03 0.  1.
        -11    1    3    3    0    0  0.90991418277E+00 -0.10047727377E+01  0.14688151505E+01  0.19987321686E+01  0.51100000000E-03 0. -1.
        -12    1    3    3    0    0  0.23052364840E+02 -0.15245945448E+01 -0.37222156374E+02  0.43808958426E+02  0.00000000000E+00 0.  1.
</event>
<event>
 7    1  0.7596051E-010  0.4778727E+02  0.7816164E-02  0.1312668E+00
        -11   -1    0    0    0    0  0.00000000000E+00  0.00000000000E+00  0.45593999997E+02  0.45594000000E+02  0.51100000000E-03 0. -1.
         11   -1    0    0    0    0 -0.00000000000E+00 -0.00000000000E+00 -0.45593999997E+02  0.45594000000E+02  0.51100000000E-03 0.  1.
    9900012    2    1    2    0    0 -0.26352188794E+02  0.11791625439E+02 -0.32405911189E+02  0.47787269998E+02  0.19999995228E+02 0.  0.
         12    1    1    2    0    0  0.26352188794E+02 -0.11791625439E+02  0.32405911189E+02  0.43400730002E+02  0.00000000000E+00 0. -1.
         11    1    3    3    0    0 -0.69661135745E+01  0.10633476515E+01  0.23693002119E+00  0.70507859603E+01  0.51100000000E-03 0. -1.
        -11    1    3    3    0    0  0.11087403377E+01  0.58837984427E-02 -0.74832042784E+00  0.13376559645E+01  0.51100000000E-03 0.  1.
        -12    1    3    3    0    0 -0.20494815557E+02  0.10722393989E+02 -0.31894520782E+02  0.39398828073E+02  0.00000000000E+00 0.  1.
</event>
<event>
 7    1  0.7596051E-010  0.4778727E+02  0.7816164E-02  0.1312668E+00
        -11   -1    0    0    0    0  0.00000000000E+00  0.00000000000E+00  0.45593999997E+02  0.45594000000E+02  0.51100000000E-03 0. -1.
         11   -1    0    0    0    0 -0.00000000000E+00 -0.00000000000E+00 -0.45593999997E+02  0.45594000000E+02  0.51100000000E-03 0.  1.
    9900012    2    1    2    0    0  0.12072347079E+02  0.32269218943E+02 -0.26392791469E+02  0.47787268478E+02  0.19999988297E+02 0.  0.
         12    1    1    2    0    0 -0.12072347079E+02 -0.32269218943E+02  0.26392791469E+02  0.43400731522E+02  0.00000000000E+00 0. -1.
         11    1    3    3    0    0  0.30755119843E+01  0.24492657735E-01 -0.56593459788E+01  0.64410846156E+01  0.51100000000E-03 0. -1.
        -11    1    3    3    0    0  0.78604165403E+01  0.90658110250E+01 -0.10649297189E+02  0.16043148338E+02  0.51100000000E-03 0.  1.
         12    1    3    3    0    0  0.11364185540E+01  0.23178915260E+02 -0.10084148302E+02  0.25303035524E+02  0.00000000000E+00 0. -1.
</event>
<event>
 7    1  0.7596051E-010  0.4778727E+02  0.7816164E-02  0.1312668E+00
        -11   -1    0    0    0    0  0.00000000000E+00  0.00000000000E+00  0.45593999997E+02  0.45594000000E+02  0.51100000000E-03 0. -1.
         11   -1    0    0    0    0 -0.00000000000E+00 -0.00000000000E+00 -0.45593999997E+02  0.45594000000E+02  0.51100000000E-03 0.  1.
    9900012    2    1    2    0    0 -0.13049077458E+02  0.26099967084E+02  0.32126881591E+02  0.47787271607E+02  0.20000002564E+02 0.  0.
        -12    1    1    2    0    0  0.13049077458E+02 -0.26099967084E+02 -0.32126881591E+02  0.43400728393E+02  0.00000000000E+00 0.  1.
         11    1    3    3    0    0  0.18546762936E+01  0.10017852306E+02  0.33593318716E+01  0.10727641860E+02  0.51100000000E-03 0. -1.
        -11    1    3    3    0    0 -0.61355411259E+01  0.58257989692E+01  0.52832678281E+01  0.99748542717E+01  0.51100000000E-03 0.  1.
         12    1    3    3    0    0 -0.87682126256E+01  0.10256315809E+02  0.23484281891E+02  0.27084775476E+02  0.00000000000E+00 0. -1.
</event>
<event>
 7    1  0.7596051E-010  0.4778726E+02  0.7816164E-02  0.1312668E+00
        -11   -1    0    0    0    0  0.00000000000E+00  0.00000000000E+00  0.45593999997E+02  0.45594000000E+02  0.51100000000E-03 0. -1.
         11   -1    0    0    0    0 -0.00000000000E+00 -0.00000000000E+00 -0.45593999997E+02  0.45594000000E+02  0.51100000000E-03 0.  1.
    9900012    2    1    2    0    0 -0.13346795040E+02  0.25888855735E+02 -0.32175365818E+02  0.47787263202E+02  0.19999964241E+02 0.  0.
         12    1    1    2    0    0  0.13346795040E+02 -0.25888855735E+02  0.32175365818E+02  0.43400736798E+02  0.00000000000E+00 0. -1.
         11    1    3    3    0    0 -0.49513022129E+01  0.80243085153E+00 -0.10492043315E+02  0.11629370665E+02  0.51100000000E-03 0.  1.
        -11    1    3    3    0    0 -0.10614118760E+02  0.14586938919E+02 -0.15422342869E+02  0.23733667308E+02  0.51100000000E-03 0. -1.
         12    1    3    3    0    0  0.22186259325E+01  0.10499485965E+02 -0.62609796340E+01  0.12424225228E+02  0.00000000000E+00 0. -1.
</event>
<event>
 7    1  0.7596051E-010  0.4778727E+02  0.7816164E-02  0.1312668E+00
        -11   -1    0    0    0    0  0.00000000000E+00  0.00000000000E+00  0.45593999997E+02  0.45594000000E+02  0.51100000000E-03 0.  1.
         11   -1    0    0    0    0 -0.00000000000E+00 -0.00000000000E+00 -0.45593999997E+02  0.45594000000E+02  0.51100000000E-03 0. -1.
    9900012    2    1    2    0    0 -0.31477391056E+02 -0.27656976369E+02 -0.11308796240E+02  0.47787270030E+02  0.19999995374E+02 0.  0.
         12    1    1    2    0    0  0.31477391056E+02  0.27656976369E+02  0.11308796240E+02  0.43400729970E+02  0.00000000000E+00 0. -1.
         11    1    3    3    0    0 -0.18666867240E+02 -0.20486028605E+02 -0.53043813088E+01  0.28218181406E+02  0.51100000000E-03 0. -1.
        -11    1    3    3    0    0 -0.49100735389E+01 -0.91759033876E+01 -0.41891453104E+01  0.11218509876E+02  0.51100000000E-03 0.  1.
         12    1    3    3    0    0 -0.79004502769E+01  0.20049556235E+01 -0.18152696209E+01  0.83505787480E+01  0.00000000000E+00 0. -1.
</event>
<event>
 7    1  0.7596051E-010  0.4778728E+02  0.7816164E-02  0.1312668E+00
        -11   -1    0    0    0    0  0.00000000000E+00  0.00000000000E+00  0.45593999997E+02  0.45594000000E+02  0.51100000000E-03 0. -1.
         11   -1    0    0    0    0 -0.00000000000E+00 -0.00000000000E+00 -0.45593999997E+02  0.45594000000E+02  0.51100000000E-03 0.  1.
    9900012    2    1    2    0    0  0.21744947542E+01 -0.15902610071E+02 -0.40323707708E+02  0.47787276068E+02  0.20000022904E+02 0.  0.
         12    1    1    2    0    0 -0.21744947542E+01  0.15902610071E+02  0.40323707708E+02  0.43400723932E+02  0.00000000000E+00 0. -1.
         11    1    3    3    0    0 -0.16111101364E+01 -0.10100664418E+02 -0.15340651415E+02  0.18437860062E+02  0.51100000000E-03 0. -1.
        -11    1    3    3    0    0 -0.30927593049E+01 -0.58412611278E+01 -0.19385078408E+02  0.20480887599E+02  0.51100000000E-03 0.  1.
         12    1    3    3    0    0  0.68783641955E+01  0.39315474552E-01 -0.55979778846E+01  0.88685284072E+01  0.00000000000E+00 0. -1.
</event>
<event>
 7    1  0.7596051E-010  0.4778727E+02  0.7816164E-02  0.1312668E+00
        -11   -1    0    0    0    0  0.00000000000E+00  0.00000000000E+00  0.45593999997E+02  0.45594000000E+02  0.51100000000E-03 0. -1.
         11   -1    0    0    0    0 -0.00000000000E+00 -0.00000000000E+00 -0.45593999997E+02  0.45594000000E+02  0.51100000000E-03 0.  1.
    9900012    2    1    2    0    0 -0.44030934566E+01  0.52681122731E+01 -0.42854206151E+02  0.47787271622E+02  0.20000002634E+02 0.  0.
         12    1    1    2    0    0  0.44030934566E+01 -0.52681122731E+01  0.42854206151E+02  0.43400728378E+02  0.00000000000E+00 0. -1.
         11    1    3    3    0    0 -0.56445980223E+01  0.60591621962E+01 -0.15371072206E+02  0.17459805107E+02  0.51100000000E-03 0. -1.
        -11    1    3    3    0    0 -0.17780002372E+01  0.25660786566E+01 -0.24961131879E+02  0.25155598770E+02  0.51100000000E-03 0.  1.
         12    1    3    3    0    0  0.30195048029E+01 -0.33571285796E+01 -0.25220020653E+01  0.51718677451E+01  0.00000000000E+00 0. -1.
</event>
<event>
 7    1  0.7596051E-010  0.4778727E+02  0.7816164E-02  0.1312668E+00
        -11   -1    0    0    0    0  0.00000000000E+00  0.00000000000E+00  0.45593999997E+02  0.45594000000E+02  0.51100000000E-03 0. -1.
         11   -1    0    0    0    0 -0.00000000000E+00 -0.00000000000E+00 -0.45593999997E+02  0.45594000000E+02  0.51100000000E-03 0.  1.
    9900012    2    1    2    0    0  0.59462477339E+01  0.29583531767E+02  0.31194229920E+02  0.47787271963E+02  0.20000004187E+02 0.  0.
        -12    1    1    2    0    0 -0.59462477339E+01 -0.29583531767E+02 -0.31194229920E+02  0.43400728037E+02  0.00000000000E+00 0.  1.
         11    1    3    3    0    0  0.49536856907E+01  0.12871192857E+02  0.27453684501E+01  0.14062135530E+02  0.51100000000E-03 0.  1.
        -11    1    3    3    0    0  0.14449860831E+01  0.30470526837E+01  0.11301727294E+02  0.11794132224E+02  0.51100000000E-03 0. -1.
        -12    1    3    3    0    0 -0.45242403989E+00  0.13665286226E+02  0.17147134176E+02  0.21931004209E+02  0.00000000000E+00 0.  1.
</event>
<event>
 7    1  0.7596051E-010  0.4778727E+02  0.7816164E-02  0.1312668E+00
        -11   -1    0    0    0    0  0.00000000000E+00  0.00000000000E+00  0.45593999997E+02  0.45594000000E+02  0.51100000000E-03 0. -1.
         11   -1    0    0    0    0 -0.00000000000E+00 -0.00000000000E+00 -0.45593999997E+02  0.45594000000E+02  0.51100000000E-03 0.  1.
    9900012    2    1    2    0    0  0.33261759890E+02 -0.48265270479E+00  0.27875535210E+02  0.47787273188E+02  0.20000009772E+02 0.  0.
        -12    1    1    2    0    0 -0.33261759890E+02  0.48265270479E+00 -0.27875535210E+02  0.43400726812E+02  0.00000000000E+00 0.  1.
         11    1    3    3    0    0  0.21571610613E+02 -0.75842421271E+01  0.13237137554E+02  0.26421145395E+02  0.51100000000E-03 0. -1.
        -11    1    3    3    0    0 -0.51234796553E+00 -0.85321368642E+00  0.85239798017E+00  0.13103650675E+01  0.51100000000E-03 0.  1.
         12    1    3    3    0    0  0.12202497243E+02  0.79548031088E+01  0.13785999675E+02  0.20055762725E+02  0.00000000000E+00 0. -1.
</event>
<event>
 7    1  0.7596051E-010  0.4778727E+02  0.7816164E-02  0.1312668E+00
        -11   -1    0    0    0    0  0.00000000000E+00  0.00000000000E+00  0.45593999997E+02  0.45594000000E+02  0.51100000000E-03 0. -1.
         11   -1    0    0    0    0 -0.00000000000E+00 -0.00000000000E+00 -0.45593999997E+02  0.45594000000E+02  0.51100000000E-03 0.  1.
    9900012    2    1    2    0    0  0.29311807312E+01 -0.14826972322E+01 -0.43276242413E+02  0.47787269949E+02  0.19999995004E+02 0.  0.
         12    1    1    2    0    0 -0.29311807312E+01  0.14826972322E+01  0.43276242413E+02  0.43400730051E+02  0.00000000000E+00 0. -1.
         11    1    3    3    0    0 -0.16247021823E+01  0.63150836182E-01 -0.10117463595E+01  0.19150133593E+01  0.51100000000E-03 0. -1.
        -11    1    3    3    0    0  0.92718473580E+01  0.40345001236E+01 -0.29232620395E+02  0.30932029356E+02  0.51100000000E-03 0.  1.
         12    1    3    3    0    0 -0.47159644445E+01 -0.55803481920E+01 -0.13031875659E+02  0.14940227233E+02  0.00000000000E+00 0. -1.
</event>
<event>
 7    1  0.7596051E-010  0.4778727E+02  0.7816164E-02  0.1312668E+00
        -11   -1    0    0    0    0  0.00000000000E+00  0.00000000000E+00  0.45593999997E+02  0.45594000000E+02  0.51100000000E-03 0.  1.
         11   -1    0    0    0    0 -0.00000000000E+00 -0.00000000000E+00 -0.45593999997E+02  0.45594000000E+02  0.51100000000E-03 0. -1.
    9900012    2    1    2    0    0  0.18146124154E+01  0.43173585261E+02 -0.40462337576E+01  0.47787270857E+02  0.19999999147E+02 0.  0.
        -12    1    1    2    0    0 -0.18146124154E+01 -0.43173585261E+02  0.40462337576E+01  0.43400729143E+02  0.00000000000E+00 0.  1.
         11    1    3    3    0    0  0.52117276814E+01  0.31955317761E+02 -0.42738955176E+01  0.32658392823E+02  0.51100000000E-03 0. -1.
        -11    1    3    3    0    0 -0.32961870696E+01  0.44427394445E+01 -0.42764817197E+01  0.69922156095E+01  0.51100000000E-03 0.  1.
        -12    1    3    3    0    0 -0.10092819638E+00  0.67755280555E+01  0.45041434796E+01  0.81366624249E+01  0.00000000000E+00 0.  1.
</event>
<event>
 7    1  0.7596051E-010  0.4778727E+02  0.7816164E-02  0.1312668E+00
        -11   -1    0    0    0    0  0.00000000000E+00  0.00000000000E+00  0.45593999997E+02  0.45594000000E+02  0.51100000000E-03 0. -1.
         11   -1    0    0    0    0 -0.00000000000E+00 -0.00000000000E+00 -0.45593999997E+02  0.45594000000E+02  0.51100000000E-03 0.  1.
    9900012    2    1    2    0    0 -0.32588230729E+02 -0.16456320054E+02 -0.23469555961E+02  0.47787270642E+02  0.19999998167E+02 0.  0.
         12    1    1    2    0    0  0.32588230729E+02  0.16456320054E+02  0.23469555961E+02  0.43400729358E+02  0.00000000000E+00 0. -1.
         11    1    3    3    0    0 -0.12658855444E+02  0.34137067863E+01 -0.49044274197E+01  0.13998336464E+02  0.51100000000E-03 0. -1.
        -11    1    3    3    0    0 -0.55138193622E+01 -0.44749265893E+01 -0.54680672223E+01  0.89625292941E+01  0.51100000000E-03 0.  1.
         12    1    3    3    0    0 -0.14415555923E+02 -0.15395100251E+02 -0.13097061319E+02  0.24826404884E+02  0.00000000000E+00 0. -1.
</event>
<event>
 7    1  0.7596051E-010  0.4778727E+02  0.7816164E-02  0.1312668E+00
        -11   -1    0    0    0    0  0.00000000000E+00  0.00000000000E+00  0.45593999997E+02  0.45594000000E+02  0.51100000000E-03 0.  1.
         11   -1    0    0    0    0 -0.00000000000E+00 -0.00000000000E+00 -0.45593999997E+02  0.45594000000E+02  0.51100000000E-03 0. -1.
    9900012    2    1    2    0    0  0.38573694642E+02  0.10378909837E+02 -0.16969725632E+02  0.47787271022E+02  0.19999999899E+02 0.  0.
         12    1    1    2    0    0 -0.38573694642E+02 -0.10378909837E+02  0.16969725632E+02  0.43400728978E+02  0.00000000000E+00 0. -1.
         11    1    3    3    0    0  0.24455043087E+02  0.12114312643E+02 -0.86516787084E+01  0.28629656790E+02  0.51100000000E-03 0. -1.
        -11    1    3    3    0    0  0.10617993339E+02  0.99713629395E-01 -0.78108983794E+00  0.10647151119E+02  0.51100000000E-03 0.  1.
         12    1    3    3    0    0  0.35006582166E+01 -0.18351164355E+01 -0.75369570859E+01  0.85104631129E+01  0.00000000000E+00 0. -1.
</event>
<event>
 7    1  0.7596051E-010  0.4778733E+02  0.7816164E-02  0.1312668E+00
        -11   -1    0    0    0    0  0.00000000000E+00  0.00000000000E+00  0.45593999997E+02  0.45594000000E+02  0.51100000000E-03 0. -1.
         11   -1    0    0    0    0 -0.00000000000E+00 -0.00000000000E+00 -0.45593999997E+02  0.45594000000E+02  0.51100000000E-03 0.  1.
    9900012    2    1    2    0    0 -0.69095662297E+01 -0.22948718391E+02  0.36183318960E+02  0.47787327745E+02  0.20000258517E+02 0.  0.
        -12    1    1    2    0    0  0.69095662297E+01  0.22948718391E+02 -0.36183318960E+02  0.43400672255E+02  0.00000000000E+00 0.  1.
         11    1    3    3    0    0 -0.23728842603E+01 -0.42114831538E+01  0.86925233124E+01  0.99462119355E+01  0.51100000000E-03 0. -1.
        -11    1    3    3    0    0 -0.44192020404E+01 -0.10823691537E+02  0.29526215984E+01  0.12058176468E+02  0.51100000000E-03 0.  1.
        -12    1    3    3    0    0 -0.11747992904E+00 -0.79135437008E+01  0.24538174049E+02  0.25782939342E+02  0.00000000000E+00 0.  1.
</event>
<event>
 7    1  0.7596051E-010  0.4778726E+02  0.7816164E-02  0.1312668E+00
        -11   -1    0    0    0    0  0.00000000000E+00  0.00000000000E+00  0.45593999997E+02  0.45594000000E+02  0.51100000000E-03 0. -1.
         11   -1    0    0    0    0 -0.00000000000E+00 -0.00000000000E+00 -0.45593999997E+02  0.45594000000E+02  0.51100000000E-03 0.  1.
    9900012    2    1    2    0    0 -0.39967922952E+01  0.22648245726E+02 -0.36806344236E+02  0.47787258542E+02  0.19999942996E+02 0.  0.
         12    1    1    2    0    0  0.39967922952E+01 -0.22648245726E+02  0.36806344236E+02  0.43400741458E+02  0.00000000000E+00 0. -1.
         11    1    3    3    0    0 -0.29761831270E-02  0.14119654138E+02 -0.22899227566E+02  0.26902402592E+02  0.51100000000E-03 0. -1.
        -11    1    3    3    0    0  0.32823336376E+01  0.62247941655E+01 -0.31864563987E+01  0.77249777445E+01  0.51100000000E-03 0.  1.
         12    1    3    3    0    0 -0.72761497496E+01  0.23037974231E+01 -0.10720660270E+02  0.13159878205E+02  0.00000000000E+00 0. -1.
</event>
<event>
 7    1  0.7596051E-010  0.4778728E+02  0.7816164E-02  0.1312668E+00
        -11   -1    0    0    0    0  0.00000000000E+00  0.00000000000E+00  0.45593999997E+02  0.45594000000E+02  0.51100000000E-03 0. -1.
         11   -1    0    0    0    0 -0.00000000000E+00 -0.00000000000E+00 -0.45593999997E+02  0.45594000000E+02  0.51100000000E-03 0.  1.
    9900012    2    1    2    0    0  0.46505103596E+01  0.76804773665E+01  0.42461813300E+02  0.47787279178E+02  0.20000037083E+02 0.  0.
        -12    1    1    2    0    0 -0.46505103596E+01 -0.76804773665E+01 -0.42461813300E+02  0.43400720822E+02  0.00000000000E+00 0.  1.
         11    1    3    3    0    0  0.30244452483E+01  0.14543663841E+01  0.35121114793E+02  0.35281087783E+02  0.51100000000E-03 0. -1.
        -11    1    3    3    0    0 -0.63250024420E-02 -0.13504053204E+00  0.57466472017E+01  0.57482371448E+01  0.51100000000E-03 0.  1.
        -12    1    3    3    0    0  0.16323901138E+01  0.63611515145E+01  0.15940513055E+01  0.67579542495E+01  0.00000000000E+00 0.  1.
</event>
<event>
 7    1  0.9204470E-010  0.4778727E+02  0.7816164E-02  0.1312668E+00
        -11   -1    0    0    0    0  0.00000000000E+00  0.00000000000E+00  0.45593999997E+02  0.45594000000E+02  0.51100000000E-03 0. -1.
         11   -1    0    0    0    0 -0.00000000000E+00 -0.00000000000E+00 -0.45593999997E+02  0.45594000000E+02  0.51100000000E-03 0.  1.
    9900012    2    1    2    0    0 -0.92817817316E+01  0.26284626733E+02  0.33265449657E+02  0.47787271717E+02  0.20000003067E+02 0.  0.
        -12    1    1    2    0    0  0.92817817316E+01 -0.26284626733E+02 -0.33265449657E+02  0.43400728283E+02  0.00000000000E+00 0.  1.
         11    1    3    3    0    0 -0.19919305471E+01  0.27055259958E+00  0.60394038945E+01  0.63651697287E+01  0.51100000000E-03 0. -1.
        -11    1    3    3    0    0  0.40539517926E+01  0.58889808265E+01  0.24772486253E+01  0.75664642551E+01  0.51100000000E-03 0.  1.
         12    1    3    3    0    0 -0.11343802977E+02  0.20125093307E+02  0.24748797137E+02  0.33855637733E+02  0.00000000000E+00 0. -1.
</event>
<event>
 7    1  0.7596051E-010  0.4778727E+02  0.7816164E-02  0.1312668E+00
        -11   -1    0    0    0    0  0.00000000000E+00  0.00000000000E+00  0.45593999997E+02  0.45594000000E+02  0.51100000000E-03 0. -1.
         11   -1    0    0    0    0 -0.00000000000E+00 -0.00000000000E+00 -0.45593999997E+02  0.45594000000E+02  0.51100000000E-03 0.  1.
    9900012    2    1    2    0    0 -0.39610737221E+02  0.16357814363E+02 -0.68581716324E+01  0.47787272909E+02  0.20000008501E+02 0.  0.
         12    1    1    2    0    0  0.39610737221E+02 -0.16357814363E+02  0.68581716324E+01  0.43400727091E+02  0.00000000000E+00 0. -1.
         11    1    3    3    0    0 -0.42139409497E+01  0.21862210435E+01 -0.55906885142E+01  0.73343478989E+01  0.51100000000E-03 0. -1.
        -11    1    3    3    0    0 -0.33568036080E+02  0.15805463521E+02  0.99514847977E+00  0.37116250405E+02  0.51100000000E-03 0.  1.
         12    1    3    3    0    0 -0.18287601915E+01 -0.16338702018E+01 -0.22626315980E+01  0.33366746054E+01  0.00000000000E+00 0. -1.
</event>
<event>
 7    1  0.7596051E-010  0.4778733E+02  0.7816164E-02  0.1312668E+00
        -11   -1    0    0    0    0  0.00000000000E+00  0.00000000000E+00  0.45593999997E+02  0.45594000000E+02  0.51100000000E-03 0. -1.
         11   -1    0    0    0    0 -0.00000000000E+00 -0.00000000000E+00 -0.45593999997E+02  0.45594000000E+02  0.51100000000E-03 0.  1.
    9900012    2    1    2    0    0 -0.23422614020E+02 -0.13199314445E+02 -0.34070184755E+02  0.47787329053E+02  0.20000264483E+02 0.  0.
         12    1    1    2    0    0  0.23422614020E+02  0.13199314445E+02  0.34070184755E+02  0.43400670947E+02  0.00000000000E+00 0. -1.
         11    1    3    3    0    0 -0.84292254370E+01  0.18553965444E+01 -0.43523768208E+01  0.96663086054E+01  0.51100000000E-03 0. -1.
        -11    1    3    3    0    0  0.96507085721E+00 -0.20159222592E+00  0.29198346313E+00  0.10282294437E+01  0.51100000000E-03 0.  1.
        -12    1    3    3    0    0 -0.15958459441E+02 -0.14853118764E+02 -0.30009791398E+02  0.37092791004E+02  0.00000000000E+00 0.  1.
</event>
<event>
 7    1  0.7596051E-010  0.4778727E+02  0.7816164E-02  0.1312668E+00
        -11   -1    0    0    0    0  0.00000000000E+00  0.00000000000E+00  0.45593999997E+02  0.45594000000E+02  0.51100000000E-03 0. -1.
         11   -1    0    0    0    0 -0.00000000000E+00 -0.00000000000E+00 -0.45593999997E+02  0.45594000000E+02  0.51100000000E-03 0.  1.
    9900012    2    1    2    0    0 -0.89011374680E+01 -0.16468786578E+02  0.39155743808E+02  0.47787268984E+02  0.19999990604E+02 0.  0.
        -12    1    1    2    0    0  0.89011374680E+01  0.16468786578E+02 -0.39155743808E+02  0.43400731016E+02  0.00000000000E+00 0.  1.
         11    1    3    3    0    0 -0.43439613574E+01 -0.10900533314E+02  0.83467776878E+01  0.14400011279E+02  0.51100000000E-03 0. -1.
        -11    1    3    3    0    0 -0.68117849797E+01 -0.53877246935E+01  0.14349256531E+02  0.16772869619E+02  0.51100000000E-03 0.  1.
        -12    1    3    3    0    0  0.22546088692E+01 -0.18052857044E+00  0.16459709589E+02  0.16614388086E+02  0.00000000000E+00 0.  1.
</event>
<event>
 7    1  0.7596051E-010  0.4778728E+02  0.7816164E-02  0.1312668E+00
        -11   -1    0    0    0    0  0.00000000000E+00  0.00000000000E+00  0.45593999997E+02  0.45594000000E+02  0.51100000000E-03 0. -1.
         11   -1    0    0    0    0 -0.00000000000E+00 -0.00000000000E+00 -0.45593999997E+02  0.45594000000E+02  0.51100000000E-03 0.  1.
    9900012    2    1    2    0    0 -0.11988274640E+00  0.79599940349E+00  0.43393257473E+02  0.47787276722E+02  0.20000025887E+02 0.  0.
        -12    1    1    2    0    0  0.11988274640E+00 -0.79599940349E+00 -0.43393257473E+02  0.43400723278E+02  0.00000000000E+00 0.  1.
         11    1    3    3    0    0 -0.43716341169E+01 -0.50221684764E+01  0.18931459143E+02  0.20068221311E+02  0.51100000000E-03 0. -1.
        -11    1    3    3    0    0  0.18504176881E+01 -0.29825093437E+01  0.40358911998E+01  0.53486283890E+01  0.51100000000E-03 0.  1.
         12    1    3    3    0    0  0.24013336824E+01  0.88006772236E+01  0.20425907130E+02  0.22370427022E+02  0.00000000000E+00 0. -1.
</event>
<event>
 7    1  0.7596051E-010  0.4778727E+02  0.7816164E-02  0.1312668E+00
        -11   -1    0    0    0    0  0.00000000000E+00  0.00000000000E+00  0.45593999997E+02  0.45594000000E+02  0.51100000000E-03 0.  1.
         11   -1    0    0    0    0 -0.00000000000E+00 -0.00000000000E+00 -0.45593999997E+02  0.45594000000E+02  0.51100000000E-03 0. -1.
    9900012    2    1    2    0    0  0.10722707402E+02  0.39045409476E+02 -0.15623791920E+02  0.47787270408E+02  0.19999997097E+02 0.  0.
         12    1    1    2    0    0 -0.10722707402E+02 -0.39045409476E+02  0.15623791920E+02  0.43400729592E+02  0.00000000000E+00 0. -1.
         11    1    3    3    0    0  0.11068239397E+02  0.18838528573E+02 -0.13634341545E+02  0.25754443340E+02  0.51100000000E-03 0. -1.
        -11    1    3    3    0    0  0.34422550796E+01  0.69806958847E+01 -0.27477816201E+01  0.82540619795E+01  0.51100000000E-03 0.  1.
        -12    1    3    3    0    0 -0.37877870746E+01  0.13226185018E+02  0.75833124522E+00  0.13778765088E+02  0.00000000000E+00 0.  1.
</event>
<event>
 7    1  0.7596051E-010  0.4778727E+02  0.7816164E-02  0.1312668E+00
        -11   -1    0    0    0    0  0.00000000000E+00  0.00000000000E+00  0.45593999997E+02  0.45594000000E+02  0.51100000000E-03 0. -1.
         11   -1    0    0    0    0 -0.00000000000E+00 -0.00000000000E+00 -0.45593999997E+02  0.45594000000E+02  0.51100000000E-03 0.  1.
    9900012    2    1    2    0    0  0.40244420942E+02  0.89539848113E+01  0.13558620420E+02  0.47787269031E+02  0.19999990818E+02 0.  0.
        -12    1    1    2    0    0 -0.40244420942E+02 -0.89539848113E+01 -0.13558620420E+02  0.43400730969E+02  0.00000000000E+00 0.  1.
         11    1    3    3    0    0  0.12432645469E+02 -0.13458718151E+01  0.90317193602E+01  0.15425757653E+02  0.51100000000E-03 0. -1.
        -11    1    3    3    0    0  0.21135434921E+02  0.19098769955E+01  0.17984659467E+01  0.21297622390E+02  0.51100000000E-03 0.  1.
        -12    1    3    3    0    0  0.66763405528E+01  0.83899796308E+01  0.27284351127E+01  0.11063888988E+02  0.00000000000E+00 0.  1.
</event>
<event>
 7    1  0.7596051E-010  0.4778726E+02  0.7816164E-02  0.1312668E+00
        -11   -1    0    0    0    0  0.00000000000E+00  0.00000000000E+00  0.45593999997E+02  0.45594000000E+02  0.51100000000E-03 0. -1.
         11   -1    0    0    0    0 -0.00000000000E+00 -0.00000000000E+00 -0.45593999997E+02  0.45594000000E+02  0.51100000000E-03 0.  1.
    9900012    2    1    2    0    0 -0.17028053815E+02  0.18040996684E+02  0.35611682428E+02  0.47787261487E+02  0.19999956424E+02 0.  0.
        -12    1    1    2    0    0  0.17028053815E+02 -0.18040996684E+02 -0.35611682428E+02  0.43400738513E+02  0.00000000000E+00 0.  1.
         11    1    3    3    0    0 -0.17099494979E+02  0.13339095776E+02  0.27306773596E+02  0.34870963410E+02  0.51100000000E-03 0. -1.
        -11    1    3    3    0    0 -0.13153047144E+01  0.12047743911E-01  0.79002515451E+01  0.80090040815E+01  0.51100000000E-03 0.  1.
        -12    1    3    3    0    0  0.13867458785E+01  0.46898531647E+01  0.40465728703E+00  0.49072939955E+01  0.00000000000E+00 0.  1.
</event>
<event>
 7    1  0.7596051E-010  0.4778726E+02  0.7816164E-02  0.1312668E+00
        -11   -1    0    0    0    0  0.00000000000E+00  0.00000000000E+00  0.45593999997E+02  0.45594000000E+02  0.51100000000E-03 0. -1.
         11   -1    0    0    0    0 -0.00000000000E+00 -0.00000000000E+00 -0.45593999997E+02  0.45594000000E+02  0.51100000000E-03 0.  1.
    9900012    2    1    2    0    0 -0.18864723140E+02 -0.14455412606E+02 -0.36315108978E+02  0.47787264144E+02  0.19999968538E+02 0.  0.
         12    1    1    2    0    0  0.18864723140E+02  0.14455412606E+02  0.36315108978E+02  0.43400735856E+02  0.00000000000E+00 0. -1.
         11    1    3    3    0    0 -0.86720499226E+01 -0.84928344228E+01 -0.20800773425E+02  0.24083290094E+02  0.51100000000E-03 0. -1.
        -11    1    3    3    0    0 -0.12963907198E+02 -0.46255954800E+01 -0.15357497731E+02  0.20623088037E+02  0.51100000000E-03 0.  1.
         12    1    3    3    0    0  0.27712339801E+01 -0.13369827035E+01 -0.15683782155E+00  0.30808860129E+01  0.00000000000E+00 0. -1.
</event>
<event>
 7    1  0.7596051E-010  0.4778727E+02  0.7816164E-02  0.1312668E+00
        -11   -1    0    0    0    0  0.00000000000E+00  0.00000000000E+00  0.45593999997E+02  0.45594000000E+02  0.51100000000E-03 0. -1.
         11   -1    0    0    0    0 -0.00000000000E+00 -0.00000000000E+00 -0.45593999997E+02  0.45594000000E+02  0.51100000000E-03 0.  1.
    9900012    2    1    2    0    0  0.17615920544E+02  0.26327917068E+02  0.29667210660E+02  0.47787271180E+02  0.20000000619E+02 0.  0.
        -12    1    1    2    0    0 -0.17615920544E+02 -0.26327917068E+02 -0.29667210660E+02  0.43400728820E+02  0.00000000000E+00 0.  1.
         11    1    3    3    0    0  0.60526484412E+01  0.44470054614E+01  0.78110640335E+01  0.10836195473E+02  0.51100000000E-03 0. -1.
        -11    1    3    3    0    0  0.11162853478E+02  0.42658665742E+01  0.66425352507E+01  0.13672241594E+02  0.51100000000E-03 0.  1.
        -12    1    3    3    0    0  0.40041862482E+00  0.17615045033E+02  0.15213611376E+02  0.23278834113E+02  0.00000000000E+00 0.  1.
</event>
<event>
 7    1  0.7596051E-010  0.4778727E+02  0.7816164E-02  0.1312668E+00
        -11   -1    0    0    0    0  0.00000000000E+00  0.00000000000E+00  0.45593999997E+02  0.45594000000E+02  0.51100000000E-03 0. -1.
         11   -1    0    0    0    0 -0.00000000000E+00 -0.00000000000E+00 -0.45593999997E+02  0.45594000000E+02  0.51100000000E-03 0.  1.
    9900012    2    1    2    0    0 -0.25069289151E+02 -0.20287234667E+02 -0.29044486123E+02  0.47787270477E+02  0.19999997413E+02 0.  0.
         12    1    1    2    0    0  0.25069289151E+02  0.20287234667E+02  0.29044486123E+02  0.43400729523E+02  0.00000000000E+00 0. -1.
         11    1    3    3    0    0 -0.12601472774E+02 -0.98097036574E+01 -0.90790875485E+01  0.18370009061E+02  0.51100000000E-03 0.  1.
        -11    1    3    3    0    0 -0.26239622131E+01 -0.97808520690E+01 -0.45229059044E+01  0.11090848614E+02  0.51100000000E-03 0. -1.
        -12    1    3    3    0    0 -0.98438541640E+01 -0.69667894079E+00 -0.15442492670E+02  0.18326412803E+02  0.00000000000E+00 0.  1.
</event>
<event>
 7    1  0.7596051E-010  0.4778727E+02  0.7816164E-02  0.1312668E+00
        -11   -1    0    0    0    0  0.00000000000E+00  0.00000000000E+00  0.45593999997E+02  0.45594000000E+02  0.51100000000E-03 0. -1.
         11   -1    0    0    0    0 -0.00000000000E+00 -0.00000000000E+00 -0.45593999997E+02  0.45594000000E+02  0.51100000000E-03 0.  1.
    9900012    2    1    2    0    0 -0.99435990767E+01  0.11908502127E+02 -0.40533145926E+02  0.47787268392E+02  0.19999987905E+02 0.  0.
         12    1    1    2    0    0  0.99435990767E+01 -0.11908502127E+02  0.40533145926E+02  0.43400731608E+02  0.00000000000E+00 0. -1.
         11    1    3    3    0    0 -0.62272589697E+01  0.66307925402E+01 -0.80574463595E+01  0.12151897222E+02  0.51100000000E-03 0. -1.
        -11    1    3    3    0    0 -0.77884721904E+01  0.50239045405E+01 -0.14549596971E+02  0.17250817029E+02  0.51100000000E-03 0.  1.
        -12    1    3    3    0    0  0.40721320833E+01  0.25380504682E+00 -0.17926102595E+02  0.18384554141E+02  0.00000000000E+00 0.  1.
</event>
<event>
 7    1  0.7596051E-010  0.4778727E+02  0.7816164E-02  0.1312668E+00
        -11   -1    0    0    0    0  0.00000000000E+00  0.00000000000E+00  0.45593999997E+02  0.45594000000E+02  0.51100000000E-03 0.  1.
         11   -1    0    0    0    0 -0.00000000000E+00 -0.00000000000E+00 -0.45593999997E+02  0.45594000000E+02  0.51100000000E-03 0. -1.
    9900012    2    1    2    0    0  0.28500011749E+02  0.30779101147E+02 -0.11136395759E+02  0.47787273652E+02  0.20000011887E+02 0.  0.
         12    1    1    2    0    0 -0.28500011749E+02 -0.30779101147E+02  0.11136395759E+02  0.43400726348E+02  0.00000000000E+00 0. -1.
         11    1    3    3    0    0  0.15787333977E+02  0.25693991299E+02 -0.78075249227E+01  0.31150899644E+02  0.51100000000E-03 0. -1.
        -11    1    3    3    0    0  0.10529299889E+02  0.71906534516E+01 -0.95761500705E+00  0.12786269197E+02  0.51100000000E-03 0.  1.
         12    1    3    3    0    0  0.21833778830E+01 -0.21055436036E+01 -0.23712558288E+01  0.38501048106E+01  0.00000000000E+00 0. -1.
</event>
<event>
 7    1  0.7596051E-010  0.4778727E+02  0.7816164E-02  0.1312668E+00
        -11   -1    0    0    0    0  0.00000000000E+00  0.00000000000E+00  0.45593999997E+02  0.45594000000E+02  0.51100000000E-03 0.  1.
         11   -1    0    0    0    0 -0.00000000000E+00 -0.00000000000E+00 -0.45593999997E+02  0.45594000000E+02  0.51100000000E-03 0. -1.
    9900012    2    1    2    0    0 -0.42418191247E+02  0.41512374243E+01  0.81907236367E+01  0.47787266429E+02  0.19999978954E+02 0.  0.
        -12    1    1    2    0    0  0.42418191247E+02 -0.41512374243E+01 -0.81907236367E+01  0.43400733571E+02  0.00000000000E+00 0.  1.
         11    1    3    3    0    0 -0.24022550640E+02 -0.29346627253E+01  0.23492347048E+01  0.24314894376E+02  0.51100000000E-03 0. -1.
        -11    1    3    3    0    0 -0.90905366692E+01 -0.20913914436E+00 -0.19664733417E+01  0.93031507448E+01  0.51100000000E-03 0.  1.
         12    1    3    3    0    0 -0.93051039384E+01  0.72950392939E+01  0.78079622736E+01  0.14169221308E+02  0.00000000000E+00 0. -1.
</event>
<event>
 7    1  0.7596051E-010  0.4778727E+02  0.7816164E-02  0.1312668E+00
        -11   -1    0    0    0    0  0.00000000000E+00  0.00000000000E+00  0.45593999997E+02  0.45594000000E+02  0.51100000000E-03 0. -1.
         11   -1    0    0    0    0 -0.00000000000E+00 -0.00000000000E+00 -0.45593999997E+02  0.45594000000E+02  0.51100000000E-03 0.  1.
    9900012    2    1    2    0    0  0.40899284370E+02  0.11561807281E+02 -0.87861357027E+01  0.47787273852E+02  0.20000012803E+02 0.  0.
         12    1    1    2    0    0 -0.40899284370E+02 -0.11561807281E+02  0.87861357027E+01  0.43400726148E+02  0.00000000000E+00 0. -1.
         11    1    3    3    0    0  0.54373798048E+01 -0.39850957619E+01 -0.29621583374E+01  0.73634550076E+01  0.51100000000E-03 0. -1.
        -11    1    3    3    0    0  0.16050945454E+02  0.10370094091E+02 -0.68708371215E+01  0.20307144172E+02  0.51100000000E-03 0.  1.
        -12    1    3    3    0    0  0.19410959111E+02  0.51768089513E+01  0.10468597561E+01  0.20116674673E+02  0.00000000000E+00 0.  1.
</event>
<event>
 7    1  0.7596051E-010  0.4778727E+02  0.7816164E-02  0.1312668E+00
        -11   -1    0    0    0    0  0.00000000000E+00  0.00000000000E+00  0.45593999997E+02  0.45594000000E+02  0.51100000000E-03 0. -1.
         11   -1    0    0    0    0 -0.00000000000E+00 -0.00000000000E+00 -0.45593999997E+02  0.45594000000E+02  0.51100000000E-03 0.  1.
    9900012    2    1    2    0    0  0.33783639284E+02  0.10616017580E+02 -0.25091618748E+02  0.47787269085E+02  0.19999991068E+02 0.  0.
         12    1    1    2    0    0 -0.33783639284E+02 -0.10616017580E+02  0.25091618748E+02  0.43400730915E+02  0.00000000000E+00 0. -1.
         11    1    3    3    0    0  0.97296405497E+01  0.75286410901E+01 -0.14577781980E+01  0.12388359836E+02  0.51100000000E-03 0. -1.
        -11    1    3    3    0    0  0.42665894400E+01 -0.96965874669E+00 -0.88082149801E-01  0.43762749298E+01  0.51100000000E-03 0.  1.
        -12    1    3    3    0    0  0.19787409294E+02  0.40570352366E+01 -0.23545758401E+02  0.31022634320E+02  0.00000000000E+00 0.  1.
</event>
<event>
 7    1  0.7596051E-010  0.4778727E+02  0.7816164E-02  0.1312668E+00
        -11   -1    0    0    0    0  0.00000000000E+00  0.00000000000E+00  0.45593999997E+02  0.45594000000E+02  0.51100000000E-03 0. -1.
         11   -1    0    0    0    0 -0.00000000000E+00 -0.00000000000E+00 -0.45593999997E+02  0.45594000000E+02  0.51100000000E-03 0.  1.
    9900012    2    1    2    0    0  0.12777430284E+02 -0.21513233715E+01 -0.41421398540E+02  0.47787272196E+02  0.20000005249E+02 0.  0.
         12    1    1    2    0    0 -0.12777430284E+02  0.21513233715E+01  0.41421398540E+02  0.43400727804E+02  0.00000000000E+00 0. -1.
         11    1    3    3    0    0  0.37627580490E+01 -0.62572066515E+01 -0.14753389662E+02  0.16461272430E+02  0.51100000000E-03 0. -1.
        -11    1    3    3    0    0  0.97765130206E+01 -0.77831928835E+00 -0.10276664686E+02  0.14205485739E+02  0.51100000000E-03 0.  1.
         12    1    3    3    0    0 -0.76184078606E+00  0.48842025684E+01 -0.16391344192E+02  0.17120514027E+02  0.00000000000E+00 0. -1.
</event>
<event>
 7    1  0.7596051E-010  0.4778727E+02  0.7816164E-02  0.1312668E+00
        -11   -1    0    0    0    0  0.00000000000E+00  0.00000000000E+00  0.45593999997E+02  0.45594000000E+02  0.51100000000E-03 0. -1.
         11   -1    0    0    0    0 -0.00000000000E+00 -0.00000000000E+00 -0.45593999997E+02  0.45594000000E+02  0.51100000000E-03 0.  1.
    9900012    2    1    2    0    0  0.33420244282E+02  0.27083004692E+02  0.57637996461E+01  0.47787271234E+02  0.20000000865E+02 0.  0.
        -12    1    1    2    0    0 -0.33420244282E+02 -0.27083004692E+02 -0.57637996461E+01  0.43400728766E+02  0.00000000000E+00 0.  1.
         11    1    3    3    0    0  0.39903513022E+01  0.16562226079E+01  0.47665081339E+01  0.64331622779E+01  0.51100000000E-03 0. -1.
        -11    1    3    3    0    0  0.34730969550E+01  0.99970229303E+01 -0.27267489676E+01  0.10928770751E+02  0.51100000000E-03 0.  1.
         12    1    3    3    0    0  0.25956796025E+02  0.15429759154E+02  0.37240404798E+01  0.30425338206E+02  0.00000000000E+00 0. -1.
</event>
<event>
 7    1  0.7596051E-010  0.4778727E+02  0.7816164E-02  0.1312668E+00
        -11   -1    0    0    0    0  0.00000000000E+00  0.00000000000E+00  0.45593999997E+02  0.45594000000E+02  0.51100000000E-03 0. -1.
         11   -1    0    0    0    0 -0.00000000000E+00 -0.00000000000E+00 -0.45593999997E+02  0.45594000000E+02  0.51100000000E-03 0.  1.
    9900012    2    1    2    0    0  0.23736001297E+02 -0.92464563021E+01  0.35138703142E+02  0.47787272239E+02  0.20000005445E+02 0.  0.
        -12    1    1    2    0    0 -0.23736001297E+02  0.92464563021E+01 -0.35138703142E+02  0.43400727761E+02  0.00000000000E+00 0.  1.
         11    1    3    3    0    0  0.15005402487E+02 -0.11153661343E+02  0.19092544252E+02  0.26722490741E+02  0.51100000000E-03 0. -1.
        -11    1    3    3    0    0  0.97214065373E+01  0.35998475488E+00  0.73924066413E+01  0.12218142670E+02  0.51100000000E-03 0.  1.
         12    1    3    3    0    0 -0.99080772760E+00  0.15472202857E+01  0.86537522488E+01  0.88466388278E+01  0.00000000000E+00 0. -1.
</event>
<event>
 7    1  0.7596051E-010  0.4778727E+02  0.7816164E-02  0.1312668E+00
        -11   -1    0    0    0    0  0.00000000000E+00  0.00000000000E+00  0.45593999997E+02  0.45594000000E+02  0.51100000000E-03 0. -1.
         11   -1    0    0    0    0 -0.00000000000E+00 -0.00000000000E+00 -0.45593999997E+02  0.45594000000E+02  0.51100000000E-03 0.  1.
    9900012    2    1    2    0    0  0.15469450146E+02 -0.38825154211E+01 -0.40363913227E+02  0.47787270688E+02  0.19999998375E+02 0.  0.
         12    1    1    2    0    0 -0.15469450146E+02  0.38825154211E+01  0.40363913227E+02  0.43400729312E+02  0.00000000000E+00 0. -1.
         11    1    3    3    0    0  0.28089283603E+01  0.14372293877E+01 -0.68903505367E+01  0.75784323989E+01  0.51100000000E-03 0. -1.
        -11    1    3    3    0    0  0.15656480612E+02 -0.55719023362E+01 -0.18214621008E+02  0.24656518399E+02  0.51100000000E-03 0.  1.
        -12    1    3    3    0    0 -0.29959588267E+01  0.25215752744E+00 -0.15258941682E+02  0.15552319890E+02  0.00000000000E+00 0.  1.
</event>
<event>
 7    1  0.7596051E-010  0.4778727E+02  0.7816164E-02  0.1312668E+00
        -11   -1    0    0    0    0  0.00000000000E+00  0.00000000000E+00  0.45593999997E+02  0.45594000000E+02  0.51100000000E-03 0. -1.
         11   -1    0    0    0    0 -0.00000000000E+00 -0.00000000000E+00 -0.45593999997E+02  0.45594000000E+02  0.51100000000E-03 0.  1.
    9900012    2    1    2    0    0  0.14079800625E+02 -0.38100261419E+02  0.15288960933E+02  0.47787273828E+02  0.20000012691E+02 0.  0.
        -12    1    1    2    0    0 -0.14079800625E+02  0.38100261419E+02 -0.15288960933E+02  0.43400726172E+02  0.00000000000E+00 0.  1.
         11    1    3    3    0    0  0.84546879009E+01 -0.12353279543E+02  0.76010898327E+01  0.16788741164E+02  0.51100000000E-03 0. -1.
        -11    1    3    3    0    0  0.38088340805E+01 -0.92561213959E+01  0.10116445116E+02  0.14231144100E+02  0.51100000000E-03 0.  1.
        -12    1    3    3    0    0  0.18162786440E+01 -0.16490860480E+02 -0.24285740160E+01  0.16767388563E+02  0.00000000000E+00 0.  1.
</event>
<event>
 7    1  0.7596051E-010  0.4778727E+02  0.7816164E-02  0.1312668E+00
        -11   -1    0    0    0    0  0.00000000000E+00  0.00000000000E+00  0.45593999997E+02  0.45594000000E+02  0.51100000000E-03 0. -1.
         11   -1    0    0    0    0 -0.00000000000E+00 -0.00000000000E+00 -0.45593999997E+02  0.45594000000E+02  0.51100000000E-03 0.  1.
    9900012    2    1    2    0    0 -0.42852471785E+02 -0.52638149687E+01  0.44250513721E+01  0.47787272290E+02  0.20000005678E+02 0.  0.
         12    1    1    2    0    0  0.42852471785E+02  0.52638149687E+01 -0.44250513721E+01  0.43400727710E+02  0.00000000000E+00 0. -1.
         11    1    3    3    0    0 -0.99182850271E+01 -0.53305110564E+00 -0.34169191981E+01  0.10503897297E+02  0.51100000000E-03 0. -1.
        -11    1    3    3    0    0 -0.97627016453E+01  0.53997706296E+01  0.21601375117E+01  0.11363716848E+02  0.51100000000E-03 0.  1.
         12    1    3    3    0    0 -0.23171485113E+02 -0.10130534493E+02  0.56818330585E+01  0.25919658145E+02  0.00000000000E+00 0. -1.
</event>
<event>
 7    1  0.7596051E-010  0.4778731E+02  0.7816164E-02  0.1312668E+00
        -11   -1    0    0    0    0  0.00000000000E+00  0.00000000000E+00  0.45593999997E+02  0.45594000000E+02  0.51100000000E-03 0. -1.
         11   -1    0    0    0    0 -0.00000000000E+00 -0.00000000000E+00 -0.45593999997E+02  0.45594000000E+02  0.51100000000E-03 0.  1.
    9900012    2    1    2    0    0 -0.26585984007E+02 -0.17516039911E+02 -0.29495654025E+02  0.47787310995E+02  0.20000182150E+02 0.  0.
         12    1    1    2    0    0  0.26585984007E+02  0.17516039911E+02  0.29495654025E+02  0.43400689005E+02  0.00000000000E+00 0. -1.
         11    1    3    3    0    0 -0.12359175507E+01 -0.33529826010E+01 -0.13794373908E+01  0.38305133195E+01  0.51100000000E-03 0. -1.
        -11    1    3    3    0    0 -0.14421045184E+02  0.78403100533E+00 -0.75986639605E+01  0.16319342605E+02  0.51100000000E-03 0.  1.
        -12    1    3    3    0    0 -0.10929021272E+02 -0.14947088315E+02 -0.20517552673E+02  0.27637455070E+02  0.00000000000E+00 0.  1.
</event>
<event>
 7    1  0.7596051E-010  0.4778727E+02  0.7816164E-02  0.1312668E+00
        -11   -1    0    0    0    0  0.00000000000E+00  0.00000000000E+00  0.45593999997E+02  0.45594000000E+02  0.51100000000E-03 0. -1.
         11   -1    0    0    0    0 -0.00000000000E+00 -0.00000000000E+00 -0.45593999997E+02  0.45594000000E+02  0.51100000000E-03 0.  1.
    9900012    2    1    2    0    0 -0.62787130980E+01 -0.30284710154E+02 -0.30447289480E+02  0.47787270237E+02  0.19999996319E+02 0.  0.
         12    1    1    2    0    0  0.62787130980E+01  0.30284710154E+02  0.30447289480E+02  0.43400729763E+02  0.00000000000E+00 0. -1.
         11    1    3    3    0    0 -0.22344649339E+01  0.77198629724E-01 -0.10322394525E+01  0.24625823271E+01  0.51100000000E-03 0. -1.
        -11    1    3    3    0    0 -0.28495782616E+01 -0.15885451213E+02 -0.49653272212E+01  0.16885559842E+02  0.51100000000E-03 0.  1.
         12    1    3    3    0    0 -0.11946699025E+01 -0.14476457571E+02 -0.24449722806E+02  0.28439128068E+02  0.00000000000E+00 0. -1.
</event>
<event>
 7    1  0.7596051E-010  0.4778727E+02  0.7816164E-02  0.1312668E+00
        -11   -1    0    0    0    0  0.00000000000E+00  0.00000000000E+00  0.45593999997E+02  0.45594000000E+02  0.51100000000E-03 0. -1.
         11   -1    0    0    0    0 -0.00000000000E+00 -0.00000000000E+00 -0.45593999997E+02  0.45594000000E+02  0.51100000000E-03 0.  1.
    9900012    2    1    2    0    0 -0.27678080928E+02  0.24763708469E+02  0.22456756805E+02  0.47787270200E+02  0.19999996149E+02 0.  0.
        -12    1    1    2    0    0  0.27678080928E+02 -0.24763708469E+02 -0.22456756805E+02  0.43400729800E+02  0.00000000000E+00 0.  1.
         11    1    3    3    0    0 -0.22496140110E+02  0.18620040267E+02  0.17613905015E+02  0.34103253064E+02  0.51100000000E-03 0. -1.
        -11    1    3    3    0    0 -0.72858661801E+01  0.54393566296E+01  0.62712262968E+01  0.11045303349E+02  0.51100000000E-03 0.  1.
        -12    1    3    3    0    0  0.21039253619E+01  0.70431157273E+00 -0.14283745072E+01  0.26387137876E+01  0.00000000000E+00 0.  1.
</event>
<event>
 7    1  0.7596051E-010  0.4778725E+02  0.7816164E-02  0.1312668E+00
        -11   -1    0    0    0    0  0.00000000000E+00  0.00000000000E+00  0.45593999997E+02  0.45594000000E+02  0.51100000000E-03 0.  1.
         11   -1    0    0    0    0 -0.00000000000E+00 -0.00000000000E+00 -0.45593999997E+02  0.45594000000E+02  0.51100000000E-03 0. -1.
    9900012    2    1    2    0    0  0.22324428328E+02 -0.33370348441E+02  0.16482269664E+02  0.47787245761E+02  0.19999884723E+02 0.  0.
        -12    1    1    2    0    0 -0.22324428328E+02  0.33370348441E+02 -0.16482269664E+02  0.43400754239E+02  0.00000000000E+00 0.  1.
         11    1    3    3    0    0  0.16542387610E+02 -0.24880290264E+02  0.15140286730E+02  0.33494890864E+02  0.51100000000E-03 0. -1.
        -11    1    3    3    0    0  0.60307329632E+01 -0.46554351545E+01  0.48976247119E+01  0.90570163206E+01  0.51100000000E-03 0.  1.
        -12    1    3    3    0    0 -0.24869224546E+00 -0.38346230220E+01 -0.35556417780E+01  0.52353385762E+01  0.00000000000E+00 0.  1.
</event>
<event>
 7    1  0.1088208E-009  0.4778727E+02  0.7816164E-02  0.1312668E+00
        -11   -1    0    0    0    0  0.00000000000E+00  0.00000000000E+00  0.45593999997E+02  0.45594000000E+02  0.51100000000E-03 0. -1.
         11   -1    0    0    0    0 -0.00000000000E+00 -0.00000000000E+00 -0.45593999997E+02  0.45594000000E+02  0.51100000000E-03 0.  1.
    9900012    2    1    2    0    0 -0.24203165318E+02 -0.11162763685E+02  0.34252338562E+02  0.47787271878E+02  0.20000003803E+02 0.  0.
        -12    1    1    2    0    0  0.24203165318E+02  0.11162763685E+02 -0.34252338562E+02  0.43400728122E+02  0.00000000000E+00 0.  1.
         11    1    3    3    0    0 -0.48899068216E+01  0.31101274888E+01  0.16250409409E+02  0.17252822608E+02  0.51100000000E-03 0. -1.
        -11    1    3    3    0    0 -0.19917562619E+01 -0.30023804777E+01  0.90855803903E+00  0.37157582686E+01  0.51100000000E-03 0.  1.
         12    1    3    3    0    0 -0.17321502235E+02 -0.11270510696E+02  0.17093371114E+02  0.26818691002E+02  0.00000000000E+00 0. -1.
</event>
<event>
 7    1  0.7596051E-010  0.4778727E+02  0.7816164E-02  0.1312668E+00
        -11   -1    0    0    0    0  0.00000000000E+00  0.00000000000E+00  0.45593999997E+02  0.45594000000E+02  0.51100000000E-03 0. -1.
         11   -1    0    0    0    0 -0.00000000000E+00 -0.00000000000E+00 -0.45593999997E+02  0.45594000000E+02  0.51100000000E-03 0.  1.
    9900012    2    1    2    0    0  0.85454194372E+01 -0.30575465663E+02  0.29592905158E+02  0.47787270403E+02  0.19999997077E+02 0.  0.
        -12    1    1    2    0    0 -0.85454194372E+01  0.30575465663E+02 -0.29592905158E+02  0.43400729597E+02  0.00000000000E+00 0.  1.
         11    1    3    3    0    0  0.42758611582E+01 -0.86984028587E+01  0.50820740462E-01  0.96926665034E+01  0.51100000000E-03 0. -1.
        -11    1    3    3    0    0  0.17421512381E+01 -0.24282065673E+01  0.98849700660E+01  0.10326853903E+02  0.51100000000E-03 0.  1.
        -12    1    3    3    0    0  0.25274070409E+01 -0.19448856237E+02  0.19657114351E+02  0.27767749997E+02  0.00000000000E+00 0.  1.
</event>
<event>
 7    1  0.7596051E-010  0.4778727E+02  0.7816164E-02  0.1312668E+00
        -11   -1    0    0    0    0  0.00000000000E+00  0.00000000000E+00  0.45593999997E+02  0.45594000000E+02  0.51100000000E-03 0. -1.
         11   -1    0    0    0    0 -0.00000000000E+00 -0.00000000000E+00 -0.45593999997E+02  0.45594000000E+02  0.51100000000E-03 0.  1.
    9900012    2    1    2    0    0 -0.68317638140E+01 -0.70965929067E+01  0.42268059913E+02  0.47787268250E+02  0.19999987257E+02 0.  0.
        -12    1    1    2    0    0  0.68317638140E+01  0.70965929067E+01 -0.42268059913E+02  0.43400731750E+02  0.00000000000E+00 0.  1.
         11    1    3    3    0    0  0.29482377755E+01 -0.56988544114E+00  0.24628015344E+02  0.24810401356E+02  0.51100000000E-03 0. -1.
        -11    1    3    3    0    0 -0.33232464398E+01 -0.40438713491E+01  0.14431378407E+02  0.15351271784E+02  0.51100000000E-03 0.  1.
        -12    1    3    3    0    0 -0.64567551497E+01 -0.24828361165E+01  0.32086661615E+01  0.76255951099E+01  0.00000000000E+00 0.  1.
</event>
<event>
 7    1  0.7596051E-010  0.4778727E+02  0.7816164E-02  0.1312668E+00
        -11   -1    0    0    0    0  0.00000000000E+00  0.00000000000E+00  0.45593999997E+02  0.45594000000E+02  0.51100000000E-03 0. -1.
         11   -1    0    0    0    0 -0.00000000000E+00 -0.00000000000E+00 -0.45593999997E+02  0.45594000000E+02  0.51100000000E-03 0.  1.
    9900012    2    1    2    0    0 -0.34054361150E+02  0.22266861374E+01 -0.26813528916E+02  0.47787274460E+02  0.20000015574E+02 0.  0.
         12    1    1    2    0    0  0.34054361150E+02 -0.22266861374E+01  0.26813528916E+02  0.43400725540E+02  0.00000000000E+00 0. -1.
         11    1    3    3    0    0  0.30381853014E+00  0.28125231242E+01 -0.34695257005E+01  0.44766282927E+01  0.51100000000E-03 0. -1.
        -11    1    3    3    0    0  0.36286689744E+00  0.12242992439E+00  0.88591275212E+00  0.96514410174E+00  0.51100000000E-03 0.  1.
        -12    1    3    3    0    0 -0.34721046577E+02 -0.70826691113E+00 -0.24229915967E+02  0.42345502066E+02  0.00000000000E+00 0.  1.
</event>
<event>
 7    1  0.7596051E-010  0.4778727E+02  0.7816164E-02  0.1312668E+00
        -11   -1    0    0    0    0  0.00000000000E+00  0.00000000000E+00  0.45593999997E+02  0.45594000000E+02  0.51100000000E-03 0. -1.
         11   -1    0    0    0    0 -0.00000000000E+00 -0.00000000000E+00 -0.45593999997E+02  0.45594000000E+02  0.51100000000E-03 0.  1.
    9900012    2    1    2    0    0  0.91072516066E+01 -0.52300589938E+01 -0.42110896857E+02  0.47787272092E+02  0.20000004774E+02 0.  0.
         12    1    1    2    0    0 -0.91072516066E+01  0.52300589938E+01  0.42110896857E+02  0.43400727908E+02  0.00000000000E+00 0. -1.
         11    1    3    3    0    0  0.10754347347E+01 -0.20803445991E+01 -0.20153209994E+02  0.20288821228E+02  0.51100000000E-03 0. -1.
        -11    1    3    3    0    0 -0.38810739663E+01 -0.23518576928E+00 -0.81536225984E+01  0.90332502022E+01  0.51100000000E-03 0.  1.
         12    1    3    3    0    0  0.11912890838E+02 -0.29145286254E+01 -0.13804064264E+02  0.18465200661E+02  0.00000000000E+00 0. -1.
</event>
<event>
 7    1  0.7596051E-010  0.4778727E+02  0.7816164E-02  0.1312668E+00
        -11   -1    0    0    0    0  0.00000000000E+00  0.00000000000E+00  0.45593999997E+02  0.45594000000E+02  0.51100000000E-03 0. -1.
         11   -1    0    0    0    0 -0.00000000000E+00 -0.00000000000E+00 -0.45593999997E+02  0.45594000000E+02  0.51100000000E-03 0.  1.
    9900012    2    1    2    0    0 -0.92985840772E+01 -0.59818068888E+01  0.41968770320E+02  0.47787270033E+02  0.19999995387E+02 0.  0.
        -12    1    1    2    0    0  0.92985840772E+01  0.59818068888E+01 -0.41968770320E+02  0.43400729967E+02  0.00000000000E+00 0.  1.
         11    1    3    3    0    0  0.15743128778E+00 -0.36600144129E+01  0.78518238269E+01  0.86643884829E+01  0.51100000000E-03 0. -1.
        -11    1    3    3    0    0 -0.12540925328E+02 -0.26261880102E+01  0.33625896270E+02  0.35984337867E+02  0.51100000000E-03 0.  1.
        -12    1    3    3    0    0  0.30849099634E+01  0.30439553432E+00  0.49105022380E+00  0.31385436823E+01  0.00000000000E+00 0.  1.
</event>
<event>
 7    1  0.7596051E-010  0.4778727E+02  0.7816164E-02  0.1312668E+00
        -11   -1    0    0    0    0  0.00000000000E+00  0.00000000000E+00  0.45593999997E+02  0.45594000000E+02  0.51100000000E-03 0. -1.
         11   -1    0    0    0    0 -0.00000000000E+00 -0.00000000000E+00 -0.45593999997E+02  0.45594000000E+02  0.51100000000E-03 0.  1.
    9900012    2    1    2    0    0  0.45494560959E+01 -0.23497381808E+02  0.36204956496E+02  0.47787269851E+02  0.19999994559E+02 0.  0.
        -12    1    1    2    0    0 -0.45494560959E+01  0.23497381808E+02 -0.36204956496E+02  0.43400730149E+02  0.00000000000E+00 0.  1.
         11    1    3    3    0    0 -0.53419037378E+00 -0.89369991046E+01  0.18665841541E+02  0.20701906990E+02  0.51100000000E-03 0. -1.
        -11    1    3    3    0    0  0.69525057822E+00  0.39050746190E-01  0.10097190653E+02  0.10121173730E+02  0.51100000000E-03 0.  1.
         12    1    3    3    0    0  0.43883958915E+01 -0.14599433449E+02  0.74419243023E+01  0.16964189131E+02  0.00000000000E+00 0. -1.
</event>
<event>
 7    1  0.7596051E-010  0.4778727E+02  0.7816164E-02  0.1312668E+00
        -11   -1    0    0    0    0  0.00000000000E+00  0.00000000000E+00  0.45593999997E+02  0.45594000000E+02  0.51100000000E-03 0. -1.
         11   -1    0    0    0    0 -0.00000000000E+00 -0.00000000000E+00 -0.45593999997E+02  0.45594000000E+02  0.51100000000E-03 0.  1.
    9900012    2    1    2    0    0  0.32589764091E+01 -0.31054542848E+02  0.30143285192E+02  0.47787271885E+02  0.20000003834E+02 0.  0.
        -12    1    1    2    0    0 -0.32589764091E+01  0.31054542848E+02 -0.30143285192E+02  0.43400728115E+02  0.00000000000E+00 0.  1.
         11    1    3    3    0    0 -0.11641887475E+01 -0.10486306610E+02  0.70568926846E+01  0.12693214580E+02  0.51100000000E-03 0. -1.
        -11    1    3    3    0    0  0.43289766711E+00 -0.21521937823E+02  0.15695248159E+02  0.26640608534E+02  0.51100000000E-03 0.  1.
        -12    1    3    3    0    0  0.39902674894E+01  0.95370158449E+00  0.73911443482E+01  0.84534487711E+01  0.00000000000E+00 0.  1.
</event>
<event>
 7    1  0.7596051E-010  0.4778727E+02  0.7816164E-02  0.1312668E+00
        -11   -1    0    0    0    0  0.00000000000E+00  0.00000000000E+00  0.45593999997E+02  0.45594000000E+02  0.51100000000E-03 0. -1.
         11   -1    0    0    0    0 -0.00000000000E+00 -0.00000000000E+00 -0.45593999997E+02  0.45594000000E+02  0.51100000000E-03 0.  1.
    9900012    2    1    2    0    0 -0.33981193201E+02  0.93866505555E+01  0.25313883425E+02  0.47787269660E+02  0.19999993689E+02 0.  0.
        -12    1    1    2    0    0  0.33981193201E+02 -0.93866505555E+01 -0.25313883425E+02  0.43400730340E+02  0.00000000000E+00 0.  1.
         11    1    3    3    0    0 -0.14913014872E+02 -0.96317264202E+00  0.85407503185E+01  0.17212499249E+02  0.51100000000E-03 0. -1.
        -11    1    3    3    0    0 -0.53412760466E+01 -0.18450824710E+01  0.90190379112E+01  0.10643148230E+02  0.51100000000E-03 0.  1.
         12    1    3    3    0    0 -0.13726902282E+02  0.12194905669E+02  0.77540951950E+01  0.19931622182E+02  0.00000000000E+00 0. -1.
</event>
<event>
 7    1  0.7596051E-010  0.4778729E+02  0.7816164E-02  0.1312668E+00
        -11   -1    0    0    0    0  0.00000000000E+00  0.00000000000E+00  0.45593999997E+02  0.45594000000E+02  0.51100000000E-03 0.  1.
         11   -1    0    0    0    0 -0.00000000000E+00 -0.00000000000E+00 -0.45593999997E+02  0.45594000000E+02  0.51100000000E-03 0. -1.
    9900012    2    1    2    0    0 -0.19329354095E+02 -0.38596135996E+02  0.45095629436E+01  0.47787288007E+02  0.20000077340E+02 0.  0.
        -12    1    1    2    0    0  0.19329354095E+02  0.38596135996E+02 -0.45095629436E+01  0.43400711993E+02  0.00000000000E+00 0.  1.
         11    1    3    3    0    0 -0.21649365762E+01 -0.93804048524E+00 -0.25099784523E+01  0.34448312619E+01  0.51100000000E-03 0. -1.
        -11    1    3    3    0    0 -0.12555799948E+01 -0.22876606883E+01  0.48389047766E+01  0.54977151842E+01  0.51100000000E-03 0.  1.
         12    1    3    3    0    0 -0.15908837524E+02 -0.35370434822E+02  0.21806366192E+01  0.38844741561E+02  0.00000000000E+00 0. -1.
</event>
<event>
 7    1  0.7596051E-010  0.4778727E+02  0.7816164E-02  0.1312668E+00
        -11   -1    0    0    0    0  0.00000000000E+00  0.00000000000E+00  0.45593999997E+02  0.45594000000E+02  0.51100000000E-03 0.  1.
         11   -1    0    0    0    0 -0.00000000000E+00 -0.00000000000E+00 -0.45593999997E+02  0.45594000000E+02  0.51100000000E-03 0. -1.
    9900012    2    1    2    0    0 -0.42234247577E+01 -0.42779402259E+02 -0.59756827304E+01  0.47787270071E+02  0.19999995560E+02 0.  0.
         12    1    1    2    0    0  0.42234247577E+01  0.42779402259E+02  0.59756827304E+01  0.43400729929E+02  0.00000000000E+00 0. -1.
         11    1    3    3    0    0  0.99927597991E+00 -0.28247154878E+00  0.93608681673E+00  0.13980706168E+01  0.51100000000E-03 0. -1.
        -11    1    3    3    0    0  0.38257657996E+01 -0.29852919801E+02 -0.67281957081E+01  0.30839940375E+02  0.51100000000E-03 0.  1.
         12    1    3    3    0    0 -0.90484665372E+01 -0.12644010909E+02 -0.18357383907E+00  0.15549259078E+02  0.00000000000E+00 0. -1.
</event>
<event>
 7    1  0.7596051E-010  0.4778727E+02  0.7816164E-02  0.1312668E+00
        -11   -1    0    0    0    0  0.00000000000E+00  0.00000000000E+00  0.45593999997E+02  0.45594000000E+02  0.51100000000E-03 0. -1.
         11   -1    0    0    0    0 -0.00000000000E+00 -0.00000000000E+00 -0.45593999997E+02  0.45594000000E+02  0.51100000000E-03 0.  1.
    9900012    2    1    2    0    0 -0.32187027900E+02 -0.10897383325E+02 -0.26997507006E+02  0.47787272899E+02  0.20000008457E+02 0.  0.
         12    1    1    2    0    0  0.32187027900E+02  0.10897383325E+02  0.26997507006E+02  0.43400727101E+02  0.00000000000E+00 0. -1.
         11    1    3    3    0    0 -0.98649009903E+01 -0.62261671752E+01 -0.74576379407E+01  0.13845497216E+02  0.51100000000E-03 0.  1.
        -11    1    3    3    0    0 -0.17447664732E+02 -0.67420352811E+01 -0.21312743870E+02  0.28356817450E+02  0.51100000000E-03 0. -1.
         12    1    3    3    0    0 -0.48744621773E+01  0.20708191316E+01  0.17728748051E+01  0.55849582334E+01  0.00000000000E+00 0. -1.
</event>
<event>
 7    1  0.7596051E-010  0.4778726E+02  0.7816164E-02  0.1312668E+00
        -11   -1    0    0    0    0  0.00000000000E+00  0.00000000000E+00  0.45593999997E+02  0.45594000000E+02  0.51100000000E-03 0.  1.
         11   -1    0    0    0    0 -0.00000000000E+00 -0.00000000000E+00 -0.45593999997E+02  0.45594000000E+02  0.51100000000E-03 0. -1.
    9900012    2    1    2    0    0  0.29467014038E+02  0.31386800190E+02  0.54943864575E+01  0.47787257782E+02  0.19999939533E+02 0.  0.
         12    1    1    2    0    0 -0.29467014038E+02 -0.31386800190E+02 -0.54943864575E+01  0.43400742218E+02  0.00000000000E+00 0. -1.
         11    1    3    3    0    0  0.43569253490E+01  0.26479956582E+01 -0.20016475341E+01  0.54773417471E+01  0.51100000000E-03 0. -1.
        -11    1    3    3    0    0  0.27076417184E+02  0.28827433028E+02  0.78200806653E+01  0.40315095490E+02  0.51100000000E-03 0.  1.
        -12    1    3    3    0    0 -0.19663284949E+01 -0.88628496213E-01 -0.32404667371E+00  0.19948205450E+01  0.00000000000E+00 0.  1.
</event>
<event>
 7    1  0.7596051E-010  0.4778727E+02  0.7816164E-02  0.1312668E+00
        -11   -1    0    0    0    0  0.00000000000E+00  0.00000000000E+00  0.45593999997E+02  0.45594000000E+02  0.51100000000E-03 0. -1.
         11   -1    0    0    0    0 -0.00000000000E+00 -0.00000000000E+00 -0.45593999997E+02  0.45594000000E+02  0.51100000000E-03 0.  1.
    9900012    2    1    2    0    0 -0.24360821511E+02  0.18355635837E+01  0.35872062306E+02  0.47787265300E+02  0.19999973811E+02 0.  0.
        -12    1    1    2    0    0  0.24360821511E+02 -0.18355635837E+01 -0.35872062306E+02  0.43400734700E+02  0.00000000000E+00 0.  1.
         11    1    3    3    0    0 -0.80652865684E+01  0.22499153328E+01  0.11439644294E+02  0.14176615544E+02  0.51100000000E-03 0. -1.
        -11    1    3    3    0    0 -0.60548366626E+01  0.21939380329E+01 -0.57141168728E+00  0.64653633062E+01  0.51100000000E-03 0.  1.
         12    1    3    3    0    0 -0.10240698280E+02 -0.26082897820E+01  0.25003829699E+02  0.27145286450E+02  0.00000000000E+00 0. -1.
</event>
<event>
 7    1  0.8697013E-010  0.4778727E+02  0.7816164E-02  0.1312668E+00
        -11   -1    0    0    0    0  0.00000000000E+00  0.00000000000E+00  0.45593999997E+02  0.45594000000E+02  0.51100000000E-03 0. -1.
         11   -1    0    0    0    0 -0.00000000000E+00 -0.00000000000E+00 -0.45593999997E+02  0.45594000000E+02  0.51100000000E-03 0.  1.
    9900012    2    1    2    0    0 -0.28784644462E+02 -0.21809523547E+02  0.24070978499E+02  0.47787273278E+02  0.20000010182E+02 0.  0.
        -12    1    1    2    0    0  0.28784644462E+02  0.21809523547E+02 -0.24070978499E+02  0.43400726722E+02  0.00000000000E+00 0.  1.
         11    1    3    3    0    0 -0.38609921219E-01 -0.63674398418E+01  0.89491179217E+00  0.64301359427E+01  0.51100000000E-03 0. -1.
        -11    1    3    3    0    0 -0.68935291722E+01 -0.40155483350E+00  0.14225700226E+01  0.70502266958E+01  0.51100000000E-03 0.  1.
         12    1    3    3    0    0 -0.21852505368E+02 -0.15040528872E+02  0.21753496684E+02  0.34306910639E+02  0.00000000000E+00 0. -1.
</event>
<event>
 7    1  0.7596051E-010  0.4778726E+02  0.7816164E-02  0.1312668E+00
        -11   -1    0    0    0    0  0.00000000000E+00  0.00000000000E+00  0.45593999997E+02  0.45594000000E+02  0.51100000000E-03 0.  1.
         11   -1    0    0    0    0 -0.00000000000E+00 -0.00000000000E+00 -0.45593999997E+02  0.45594000000E+02  0.51100000000E-03 0. -1.
    9900012    2    1    2    0    0 -0.38515276855E+02  0.12547325222E+02  0.15580841941E+02  0.47787256262E+02  0.19999932599E+02 0.  0.
        -12    1    1    2    0    0  0.38515276855E+02 -0.12547325222E+02 -0.15580841941E+02  0.43400743738E+02  0.00000000000E+00 0.  1.
         11    1    3    3    0    0 -0.19033713146E+02 -0.15996839144E+01  0.41999810087E+01  0.19557123139E+02  0.51100000000E-03 0. -1.
        -11    1    3    3    0    0 -0.61219417007E+01  0.64558453070E-01  0.46395434762E+01  0.76816470831E+01  0.51100000000E-03 0.  1.
        -12    1    3    3    0    0 -0.13359622008E+02  0.14082450684E+02  0.67413174560E+01  0.20548486039E+02  0.00000000000E+00 0.  1.
</event>
<event>
 7    1  0.7596051E-010  0.4778726E+02  0.7816164E-02  0.1312668E+00
        -11   -1    0    0    0    0  0.00000000000E+00  0.00000000000E+00  0.45593999997E+02  0.45594000000E+02  0.51100000000E-03 0. -1.
         11   -1    0    0    0    0 -0.00000000000E+00 -0.00000000000E+00 -0.45593999997E+02  0.45594000000E+02  0.51100000000E-03 0.  1.
    9900012    2    1    2    0    0 -0.23095127057E+02 -0.18826847907E+01 -0.36697336687E+02  0.47787263650E+02  0.19999966285E+02 0.  0.
         12    1    1    2    0    0  0.23095127057E+02  0.18826847907E+01  0.36697336687E+02  0.43400736350E+02  0.00000000000E+00 0. -1.
         11    1    3    3    0    0 -0.22210782059E+00 -0.21178439868E+01 -0.63405244960E+01  0.66885608453E+01  0.51100000000E-03 0. -1.
        -11    1    3    3    0    0 -0.20308128767E+02 -0.51274401942E+01 -0.27315022623E+02  0.34421231792E+02  0.51100000000E-03 0.  1.
         12    1    3    3    0    0 -0.25648904688E+01  0.53625993903E+01 -0.30417895687E+01  0.66774710121E+01  0.00000000000E+00 0. -1.
</event>
<event>
 7    1  0.7596051E-010  0.4778727E+02  0.7816164E-02  0.1312668E+00
        -11   -1    0    0    0    0  0.00000000000E+00  0.00000000000E+00  0.45593999997E+02  0.45594000000E+02  0.51100000000E-03 0. -1.
         11   -1    0    0    0    0 -0.00000000000E+00 -0.00000000000E+00 -0.45593999997E+02  0.45594000000E+02  0.51100000000E-03 0.  1.
    9900012    2    1    2    0    0 -0.74753002819E+01  0.12225008965E+02  0.40966968795E+02  0.47787268546E+02  0.19999988608E+02 0.  0.
        -12    1    1    2    0    0  0.74753002819E+01 -0.12225008965E+02 -0.40966968795E+02  0.43400731454E+02  0.00000000000E+00 0.  1.
         11    1    3    3    0    0 -0.11911342806E+02  0.48889590185E+01  0.34142254587E+02  0.36489389639E+02  0.51100000000E-03 0. -1.
        -11    1    3    3    0    0  0.98421776558E+00  0.16677183744E+00  0.41802978717E+00  0.10822414795E+01  0.51100000000E-03 0.  1.
         12    1    3    3    0    0  0.34518247588E+01  0.71692781087E+01  0.64066844214E+01  0.10215637427E+02  0.00000000000E+00 0. -1.
</event>
<event>
 7    1  0.7596051E-010  0.4778727E+02  0.7816164E-02  0.1312668E+00
        -11   -1    0    0    0    0  0.00000000000E+00  0.00000000000E+00  0.45593999997E+02  0.45594000000E+02  0.51100000000E-03 0. -1.
         11   -1    0    0    0    0 -0.00000000000E+00 -0.00000000000E+00 -0.45593999997E+02  0.45594000000E+02  0.51100000000E-03 0.  1.
    9900012    2    1    2    0    0 -0.46950124558E+01 -0.17838192785E+02 -0.39285859147E+02  0.47787274284E+02  0.20000014770E+02 0.  0.
         12    1    1    2    0    0  0.46950124558E+01  0.17838192785E+02  0.39285859147E+02  0.43400725716E+02  0.00000000000E+00 0. -1.
         11    1    3    3    0    0  0.80851945967E+00 -0.43868588294E+01 -0.74154900190E+01  0.86537695017E+01  0.51100000000E-03 0. -1.
        -11    1    3    3    0    0  0.30967651110E+00  0.89460800971E+00 -0.18942035091E+02  0.18965677333E+02  0.51100000000E-03 0.  1.
        -12    1    3    3    0    0 -0.58132084266E+01 -0.14345941965E+02 -0.12928334037E+02  0.20167827450E+02  0.00000000000E+00 0.  1.
</event>
<event>
 7    1  0.7596051E-010  0.4778727E+02  0.7816164E-02  0.1312668E+00
        -11   -1    0    0    0    0  0.00000000000E+00  0.00000000000E+00  0.45593999997E+02  0.45594000000E+02  0.51100000000E-03 0. -1.
         11   -1    0    0    0    0 -0.00000000000E+00 -0.00000000000E+00 -0.45593999997E+02  0.45594000000E+02  0.51100000000E-03 0.  1.
    9900012    2    1    2    0    0  0.11113996264E+02  0.25060105319E+02 -0.33646595663E+02  0.47787271996E+02  0.20000004341E+02 0.  0.
         12    1    1    2    0    0 -0.11113996264E+02 -0.25060105319E+02  0.33646595663E+02  0.43400728004E+02  0.00000000000E+00 0. -1.
         11    1    3    3    0    0  0.33483434365E+01  0.79028402171E+01 -0.18367864062E+02  0.20274237784E+02  0.51100000000E-03 0. -1.
        -11    1    3    3    0    0  0.71269287587E+01  0.18362061014E+02 -0.16490778624E+02  0.25688600159E+02  0.51100000000E-03 0.  1.
         12    1    3    3    0    0  0.63872406884E+00 -0.12047959126E+01  0.12120470238E+01  0.18244340533E+01  0.00000000000E+00 0. -1.
</event>
<event>
 7    1  0.7596051E-010  0.4778728E+02  0.7816164E-02  0.1312668E+00
        -11   -1    0    0    0    0  0.00000000000E+00  0.00000000000E+00  0.45593999997E+02  0.45594000000E+02  0.51100000000E-03 0. -1.
         11   -1    0    0    0    0 -0.00000000000E+00 -0.00000000000E+00 -0.45593999997E+02  0.45594000000E+02  0.51100000000E-03 0.  1.
    9900012    2    1    2    0    0 -0.68745040063E+01  0.76418762218E+01 -0.42165927044E+02  0.47787280179E+02  0.20000041648E+02 0.  0.
         12    1    1    2    0    0  0.68745040063E+01 -0.76418762218E+01  0.42165927044E+02  0.43400719821E+02  0.00000000000E+00 0. -1.
         11    1    3    3    0    0 -0.51308526988E+01  0.26710979707E+01 -0.25395608829E+02  0.26046062310E+02  0.51100000000E-03 0. -1.
        -11    1    3    3    0    0  0.45299775904E+01  0.13470946902E+01 -0.12424067623E+02  0.13292585063E+02  0.51100000000E-03 0.  1.
         12    1    3    3    0    0 -0.62736288980E+01  0.36236835609E+01 -0.43462505915E+01  0.84486328067E+01  0.00000000000E+00 0. -1.
</event>
<event>
 7    1  0.7596051E-010  0.4778729E+02  0.7816164E-02  0.1312668E+00
        -11   -1    0    0    0    0  0.00000000000E+00  0.00000000000E+00  0.45593999997E+02  0.45594000000E+02  0.51100000000E-03 0. -1.
         11   -1    0    0    0    0 -0.00000000000E+00 -0.00000000000E+00 -0.45593999997E+02  0.45594000000E+02  0.51100000000E-03 0.  1.
    9900012    2    1    2    0    0  0.29996217757E+01  0.10376031794E+01  0.43284491857E+02  0.47787290484E+02  0.20000088634E+02 0.  0.
        -12    1    1    2    0    0 -0.29996217757E+01 -0.10376031794E+01 -0.43284491857E+02  0.43400709516E+02  0.00000000000E+00 0.  1.
         11    1    3    3    0    0 -0.38024682809E+00  0.18537483011E+01  0.40839162394E+01  0.45010379387E+01  0.51100000000E-03 0. -1.
        -11    1    3    3    0    0 -0.51593678152E+01  0.56401324193E+01  0.15674367992E+02  0.17438921474E+02  0.51100000000E-03 0.  1.
         12    1    3    3    0    0  0.85392364190E+01 -0.64562775409E+01  0.23526207625E+02  0.25847331072E+02  0.00000000000E+00 0. -1.
</event>
<event>
 7    1  0.7596051E-010  0.4778727E+02  0.7816164E-02  0.1312668E+00
        -11   -1    0    0    0    0  0.00000000000E+00  0.00000000000E+00  0.45593999997E+02  0.45594000000E+02  0.51100000000E-03 0. -1.
         11   -1    0    0    0    0 -0.00000000000E+00 -0.00000000000E+00 -0.45593999997E+02  0.45594000000E+02  0.51100000000E-03 0.  1.
    9900012    2    1    2    0    0 -0.13950455202E+02 -0.29624726803E+02  0.28484798749E+02  0.47787269611E+02  0.19999993465E+02 0.  0.
        -12    1    1    2    0    0  0.13950455202E+02  0.29624726803E+02 -0.28484798749E+02  0.43400730389E+02  0.00000000000E+00 0.  1.
         11    1    3    3    0    0 -0.14312615098E+02 -0.27289705337E+02  0.19408966721E+02  0.36418222880E+02  0.51100000000E-03 0. -1.
        -11    1    3    3    0    0  0.11670562722E+01 -0.29582771673E+01  0.11555255345E+01  0.33835873955E+01  0.51100000000E-03 0.  1.
         12    1    3    3    0    0 -0.80489637634E+00  0.62325570089E+00  0.79203064933E+01  0.79854593351E+01  0.00000000000E+00 0. -1.
</event>
<event>
 7    1  0.7596051E-010  0.4778727E+02  0.7816164E-02  0.1312668E+00
        -11   -1    0    0    0    0  0.00000000000E+00  0.00000000000E+00  0.45593999997E+02  0.45594000000E+02  0.51100000000E-03 0.  1.
         11   -1    0    0    0    0 -0.00000000000E+00 -0.00000000000E+00 -0.45593999997E+02  0.45594000000E+02  0.51100000000E-03 0. -1.
    9900012    2    1    2    0    0  0.26763254175E+02  0.30141356929E+02 -0.16088811947E+02  0.47787273722E+02  0.20000012209E+02 0.  0.
         12    1    1    2    0    0 -0.26763254175E+02 -0.30141356929E+02  0.16088811947E+02  0.43400726278E+02  0.00000000000E+00 0. -1.
         11    1    3    3    0    0  0.10141838831E+02  0.19579078384E+02 -0.11411085546E+02  0.24827607191E+02  0.51100000000E-03 0. -1.
        -11    1    3    3    0    0  0.83494410186E+01  0.11220951885E+02 -0.14718175035E+01  0.14063753893E+02  0.51100000000E-03 0.  1.
         12    1    3    3    0    0  0.82719743249E+01 -0.65867334024E+00 -0.32059088980E+01  0.88959126380E+01  0.00000000000E+00 0. -1.
</event>
<event>
 7    1  0.7596051E-010  0.4778727E+02  0.7816164E-02  0.1312668E+00
        -11   -1    0    0    0    0  0.00000000000E+00  0.00000000000E+00  0.45593999997E+02  0.45594000000E+02  0.51100000000E-03 0. -1.
         11   -1    0    0    0    0 -0.00000000000E+00 -0.00000000000E+00 -0.45593999997E+02  0.45594000000E+02  0.51100000000E-03 0.  1.
    9900012    2    1    2    0    0  0.16490793080E+02  0.35202409197E+02 -0.19299405973E+02  0.47787274884E+02  0.20000017506E+02 0.  0.
         12    1    1    2    0    0 -0.16490793080E+02 -0.35202409197E+02  0.19299405973E+02  0.43400725116E+02  0.00000000000E+00 0. -1.
         11    1    3    3    0    0  0.67877831048E+01  0.52558548127E+01 -0.94388451749E+01  0.12758910917E+02  0.51100000000E-03 0. -1.
        -11    1    3    3    0    0 -0.93269212962E-01  0.80970004205E+01 -0.73783309768E+01  0.10954902246E+02  0.51100000000E-03 0.  1.
         12    1    3    3    0    0  0.97962791882E+01  0.21849553964E+02 -0.24822298214E+01  0.24073461721E+02  0.00000000000E+00 0. -1.
</event>
<event>
 7    1  0.7596051E-010  0.4778727E+02  0.7816164E-02  0.1312668E+00
        -11   -1    0    0    0    0  0.00000000000E+00  0.00000000000E+00  0.45593999997E+02  0.45594000000E+02  0.51100000000E-03 0.  1.
         11   -1    0    0    0    0 -0.00000000000E+00 -0.00000000000E+00 -0.45593999997E+02  0.45594000000E+02  0.51100000000E-03 0. -1.
    9900012    2    1    2    0    0  0.30019299819E+02 -0.30474415024E+02  0.73331502466E+01  0.47787269301E+02  0.19999992052E+02 0.  0.
        -12    1    1    2    0    0 -0.30019299819E+02  0.30474415024E+02 -0.73331502466E+01  0.43400730699E+02  0.00000000000E+00 0.  1.
         11    1    3    3    0    0 -0.12793795956E+00  0.36793996770E+00 -0.51768158770E+00  0.64787531879E+00  0.51100000000E-03 0. -1.
        -11    1    3    3    0    0  0.61231471245E+01  0.12110316823E+01  0.25109201951E+01  0.67278710549E+01  0.51100000000E-03 0.  1.
         12    1    3    3    0    0  0.24024090654E+02 -0.32053386674E+02  0.53399116392E+01  0.40411522927E+02  0.00000000000E+00 0. -1.
</event>
<event>
 7    1  0.7596051E-010  0.4778727E+02  0.7816164E-02  0.1312668E+00
        -11   -1    0    0    0    0  0.00000000000E+00  0.00000000000E+00  0.45593999997E+02  0.45594000000E+02  0.51100000000E-03 0. -1.
         11   -1    0    0    0    0 -0.00000000000E+00 -0.00000000000E+00 -0.45593999997E+02  0.45594000000E+02  0.51100000000E-03 0.  1.
    9900012    2    1    2    0    0  0.28103269818E+02 -0.19916511794E+02 -0.26403827936E+02  0.47787270212E+02  0.19999996203E+02 0.  0.
         12    1    1    2    0    0 -0.28103269818E+02  0.19916511794E+02  0.26403827936E+02  0.43400729788E+02  0.00000000000E+00 0. -1.
         11    1    3    3    0    0  0.90354147227E+01 -0.92894824101E+01 -0.27355642003E+01  0.13244489964E+02  0.51100000000E-03 0. -1.
        -11    1    3    3    0    0  0.15890851236E+02 -0.11123073592E+02 -0.12875822680E+02  0.23281510456E+02  0.51100000000E-03 0.  1.
        -12    1    3    3    0    0  0.31770038584E+01  0.49604420826E+00 -0.10792441056E+02  0.11261269792E+02  0.00000000000E+00 0.  1.
</event>
<event>
 7    1  0.7596051E-010  0.4778727E+02  0.7816164E-02  0.1312668E+00
        -11   -1    0    0    0    0  0.00000000000E+00  0.00000000000E+00  0.45593999997E+02  0.45594000000E+02  0.51100000000E-03 0. -1.
         11   -1    0    0    0    0 -0.00000000000E+00 -0.00000000000E+00 -0.45593999997E+02  0.45594000000E+02  0.51100000000E-03 0.  1.
    9900012    2    1    2    0    0 -0.38276693259E+02 -0.13837638251E+02  0.15067785635E+02  0.47787266791E+02  0.19999980605E+02 0.  0.
        -12    1    1    2    0    0  0.38276693259E+02  0.13837638251E+02 -0.15067785635E+02  0.43400733209E+02  0.00000000000E+00 0.  1.
         11    1    3    3    0    0 -0.33891590273E+02 -0.10263480922E+02  0.18286269964E+02  0.39854317223E+02  0.51100000000E-03 0. -1.
        -11    1    3    3    0    0 -0.41658634809E+01 -0.73407045158E+00 -0.10651362897E+01  0.43620859169E+01  0.51100000000E-03 0.  1.
         12    1    3    3    0    0 -0.21923950482E+00 -0.28400868772E+01 -0.21533480398E+01  0.35708636506E+01  0.00000000000E+00 0. -1.
</event>
<event>
 7    1  0.7596051E-010  0.4778727E+02  0.7816164E-02  0.1312668E+00
        -11   -1    0    0    0    0  0.00000000000E+00  0.00000000000E+00  0.45593999997E+02  0.45594000000E+02  0.51100000000E-03 0.  1.
         11   -1    0    0    0    0 -0.00000000000E+00 -0.00000000000E+00 -0.45593999997E+02  0.45594000000E+02  0.51100000000E-03 0. -1.
    9900012    2    1    2    0    0  0.16488445679E+02 -0.38497993427E+02 -0.11386793915E+02  0.47787269424E+02  0.19999992613E+02 0.  0.
        -12    1    1    2    0    0 -0.16488445679E+02  0.38497993427E+02  0.11386793915E+02  0.43400730576E+02  0.00000000000E+00 0.  1.
         11    1    3    3    0    0  0.83893272671E+01 -0.21586414611E+02 -0.89039291591E+01  0.24811974175E+02  0.51100000000E-03 0. -1.
        -11    1    3    3    0    0  0.21137118717E+00 -0.70187122268E+01 -0.66331699703E+01  0.96595001535E+01  0.51100000000E-03 0.  1.
         12    1    3    3    0    0  0.78877472252E+01 -0.98928665895E+01  0.41503052143E+01  0.13315795095E+02  0.00000000000E+00 0. -1.
</event>
<event>
 7    1  0.7596051E-010  0.4778727E+02  0.7816164E-02  0.1312668E+00
        -11   -1    0    0    0    0  0.00000000000E+00  0.00000000000E+00  0.45593999997E+02  0.45594000000E+02  0.51100000000E-03 0. -1.
         11   -1    0    0    0    0 -0.00000000000E+00 -0.00000000000E+00 -0.45593999997E+02  0.45594000000E+02  0.51100000000E-03 0.  1.
    9900012    2    1    2    0    0 -0.12410726519E+02  0.42715988221E+00  0.41586231952E+02  0.47787270902E+02  0.19999999350E+02 0.  0.
        -12    1    1    2    0    0  0.12410726519E+02 -0.42715988221E+00 -0.41586231952E+02  0.43400729098E+02  0.00000000000E+00 0.  1.
         11    1    3    3    0    0 -0.97869307607E+01 -0.18368906408E+01  0.16007682076E+02  0.18852163447E+02  0.51100000000E-03 0. -1.
        -11    1    3    3    0    0 -0.35595974271E+01 -0.31091754963E+01  0.27586249463E+01  0.54724508189E+01  0.51100000000E-03 0.  1.
         12    1    3    3    0    0  0.93580166824E+00  0.53732260193E+01  0.22819924930E+02  0.23462656636E+02  0.00000000000E+00 0. -1.
</event>
<event>
 7    1  0.7596051E-010  0.4778725E+02  0.7816164E-02  0.1312668E+00
        -11   -1    0    0    0    0  0.00000000000E+00  0.00000000000E+00  0.45593999997E+02  0.45594000000E+02  0.51100000000E-03 0. -1.
         11   -1    0    0    0    0 -0.00000000000E+00 -0.00000000000E+00 -0.45593999997E+02  0.45594000000E+02  0.51100000000E-03 0.  1.
    9900012    2    1    2    0    0 -0.33339390633E+02  0.22046291589E+02  0.16913631554E+02  0.47787252623E+02  0.19999916007E+02 0.  0.
        -12    1    1    2    0    0  0.33339390633E+02 -0.22046291589E+02 -0.16913631554E+02  0.43400747377E+02  0.00000000000E+00 0.  1.
         11    1    3    3    0    0 -0.99763220742E+01  0.59505056974E+01  0.11150590938E+02  0.16101900469E+02  0.51100000000E-03 0. -1.
        -11    1    3    3    0    0 -0.85973908070E+01  0.13456996374E+02  0.47090371708E+01  0.16648751047E+02  0.51100000000E-03 0.  1.
        -12    1    3    3    0    0 -0.14765677751E+02  0.26387895176E+01  0.10540034453E+01  0.15036601106E+02  0.00000000000E+00 0.  1.
</event>
<event>
 7    1  0.7596051E-010  0.4778727E+02  0.7816164E-02  0.1312668E+00
        -11   -1    0    0    0    0  0.00000000000E+00  0.00000000000E+00  0.45593999997E+02  0.45594000000E+02  0.51100000000E-03 0. -1.
         11   -1    0    0    0    0 -0.00000000000E+00 -0.00000000000E+00 -0.45593999997E+02  0.45594000000E+02  0.51100000000E-03 0.  1.
    9900012    2    1    2    0    0  0.37223581925E+02  0.18125804746E+02  0.13018574998E+02  0.47787272541E+02  0.20000006821E+02 0.  0.
        -12    1    1    2    0    0 -0.37223581925E+02 -0.18125804746E+02 -0.13018574998E+02  0.43400727459E+02  0.00000000000E+00 0.  1.
         11    1    3    3    0    0  0.22328572045E+02  0.49334778573E+00  0.86249191333E+01  0.23941548653E+02  0.51100000000E-03 0.  1.
        -11    1    3    3    0    0  0.51006610431E+01  0.37612285808E+01  0.22751808678E+01  0.67335007059E+01  0.51100000000E-03 0. -1.
        -12    1    3    3    0    0  0.97943488374E+01  0.13871228379E+02  0.21184749966E+01  0.17112223181E+02  0.00000000000E+00 0.  1.
</event>
<event>
 7    1  0.7596051E-010  0.4778728E+02  0.7816164E-02  0.1312668E+00
        -11   -1    0    0    0    0  0.00000000000E+00  0.00000000000E+00  0.45593999997E+02  0.45594000000E+02  0.51100000000E-03 0. -1.
         11   -1    0    0    0    0 -0.00000000000E+00 -0.00000000000E+00 -0.45593999997E+02  0.45594000000E+02  0.51100000000E-03 0.  1.
    9900012    2    1    2    0    0  0.26738418463E+02  0.21881690620E+02 -0.26265390293E+02  0.47787284182E+02  0.20000059899E+02 0.  0.
         12    1    1    2    0    0 -0.26738418463E+02 -0.21881690620E+02  0.26265390293E+02  0.43400715818E+02  0.00000000000E+00 0. -1.
         11    1    3    3    0    0  0.11599243662E+01 -0.28273361846E+01 -0.70306911113E+00  0.31358509008E+01  0.51100000000E-03 0. -1.
        -11    1    3    3    0    0  0.20744611255E+01  0.48101308151E+00  0.26872214042E+00  0.21463863575E+01  0.51100000000E-03 0.  1.
        -12    1    3    3    0    0  0.23504032971E+02  0.24228013723E+02 -0.25831043322E+02  0.42505046924E+02  0.00000000000E+00 0.  1.
</event>
<event>
 7    1  0.7596051E-010  0.4778726E+02  0.7816164E-02  0.1312668E+00
        -11   -1    0    0    0    0  0.00000000000E+00  0.00000000000E+00  0.45593999997E+02  0.45594000000E+02  0.51100000000E-03 0. -1.
         11   -1    0    0    0    0 -0.00000000000E+00 -0.00000000000E+00 -0.45593999997E+02  0.45594000000E+02  0.51100000000E-03 0.  1.
    9900012    2    1    2    0    0 -0.69445899866E+01 -0.40455255023E+02 -0.14098556704E+02  0.47787259336E+02  0.19999946615E+02 0.  0.
         12    1    1    2    0    0  0.69445899866E+01  0.40455255023E+02  0.14098556704E+02  0.43400740664E+02  0.00000000000E+00 0. -1.
         11    1    3    3    0    0  0.13188449075E+01 -0.27776907400E+01 -0.47934186724E+01  0.56948907424E+01  0.51100000000E-03 0. -1.
        -11    1    3    3    0    0 -0.21052917583E+01 -0.62986999461E+01  0.36641806484E+01  0.75849913964E+01  0.51100000000E-03 0.  1.
        -12    1    3    3    0    0 -0.61581431358E+01 -0.31378864337E+02 -0.12969318680E+02  0.34507377197E+02  0.00000000000E+00 0.  1.
</event>
<event>
 7    1  0.7596051E-010  0.4778725E+02  0.7816164E-02  0.1312668E+00
        -11   -1    0    0    0    0  0.00000000000E+00  0.00000000000E+00  0.45593999997E+02  0.45594000000E+02  0.51100000000E-03 0. -1.
         11   -1    0    0    0    0 -0.00000000000E+00 -0.00000000000E+00 -0.45593999997E+02  0.45594000000E+02  0.51100000000E-03 0.  1.
    9900012    2    1    2    0    0  0.96807417957E+01  0.95366336076E+01 -0.41218453903E+02  0.47787250186E+02  0.19999904898E+02 0.  0.
         12    1    1    2    0    0 -0.96807417957E+01 -0.95366336076E+01  0.41218453903E+02  0.43400749814E+02  0.00000000000E+00 0. -1.
         11    1    3    3    0    0  0.82003257031E+00  0.36487044061E+01 -0.13796418277E+02  0.14294287489E+02  0.51100000000E-03 0. -1.
        -11    1    3    3    0    0  0.62437969368E+01  0.99736652052E+01 -0.25834266937E+02  0.28387820386E+02  0.51100000000E-03 0.  1.
         12    1    3    3    0    0  0.26169122886E+01 -0.40857360037E+01 -0.15877686883E+01  0.51051423120E+01  0.00000000000E+00 0. -1.
</event>
<event>
 7    1  0.7596051E-010  0.4778727E+02  0.7816164E-02  0.1312668E+00
        -11   -1    0    0    0    0  0.00000000000E+00  0.00000000000E+00  0.45593999997E+02  0.45594000000E+02  0.51100000000E-03 0. -1.
         11   -1    0    0    0    0 -0.00000000000E+00 -0.00000000000E+00 -0.45593999997E+02  0.45594000000E+02  0.51100000000E-03 0.  1.
    9900012    2    1    2    0    0 -0.14413030928E+02  0.10952015012E+02 -0.39445420134E+02  0.47787271171E+02  0.20000000575E+02 0.  0.
         12    1    1    2    0    0  0.14413030928E+02 -0.10952015012E+02  0.39445420134E+02  0.43400728829E+02  0.00000000000E+00 0. -1.
         11    1    3    3    0    0 -0.43613717725E+01  0.45393519821E+01 -0.81623589887E+01  0.10307831231E+02  0.51100000000E-03 0.  1.
        -11    1    3    3    0    0 -0.78197963682E+01 -0.48099818315E+01 -0.13139589319E+02  0.16029159311E+02  0.51100000000E-03 0. -1.
         12    1    3    3    0    0 -0.22318627871E+01  0.11222644861E+02 -0.18143471826E+02  0.21450280630E+02  0.00000000000E+00 0. -1.
</event>
<event>
 7    1  0.7596051E-010  0.4778728E+02  0.7816164E-02  0.1312668E+00
        -11   -1    0    0    0    0  0.00000000000E+00  0.00000000000E+00  0.45593999997E+02  0.45594000000E+02  0.51100000000E-03 0. -1.
         11   -1    0    0    0    0 -0.00000000000E+00 -0.00000000000E+00 -0.45593999997E+02  0.45594000000E+02  0.51100000000E-03 0.  1.
    9900012    2    1    2    0    0 -0.17466899561E+02 -0.33839046730E+02 -0.20819440541E+02  0.47787276869E+02  0.20000026557E+02 0.  0.
         12    1    1    2    0    0  0.17466899561E+02  0.33839046730E+02  0.20819440541E+02  0.43400723131E+02  0.00000000000E+00 0. -1.
         11    1    3    3    0    0  0.56328654569E+00 -0.69053610116E+01 -0.10220246783E+02  0.12347256659E+02  0.51100000000E-03 0. -1.
        -11    1    3    3    0    0 -0.25855259060E+01 -0.12198977383E+02 -0.40957216333E+01  0.13125354447E+02  0.51100000000E-03 0.  1.
         12    1    3    3    0    0 -0.15444660200E+02 -0.14734708335E+02 -0.65034721238E+01  0.22314665763E+02  0.00000000000E+00 0. -1.
</event>
<event>
 7    1  0.7596051E-010  0.4778725E+02  0.7816164E-02  0.1312668E+00
        -11   -1    0    0    0    0  0.00000000000E+00  0.00000000000E+00  0.45593999997E+02  0.45594000000E+02  0.51100000000E-03 0. -1.
         11   -1    0    0    0    0 -0.00000000000E+00 -0.00000000000E+00 -0.45593999997E+02  0.45594000000E+02  0.51100000000E-03 0.  1.
    9900012    2    1    2    0    0  0.16716725935E+02  0.72753413192E+01 -0.39385856994E+02  0.47787248297E+02  0.19999896284E+02 0.  0.
         12    1    1    2    0    0 -0.16716725935E+02 -0.72753413192E+01  0.39385856994E+02  0.43400751703E+02  0.00000000000E+00 0. -1.
         11    1    3    3    0    0 -0.88550823447E+00  0.12128409388E+01 -0.78947646819E+00  0.16965793029E+01  0.51100000000E-03 0. -1.
        -11    1    3    3    0    0  0.28682248107E+01  0.91263306859E+01 -0.19980968427E+02  0.22153007130E+02  0.51100000000E-03 0.  1.
         12    1    3    3    0    0  0.14734009358E+02 -0.30638303055E+01 -0.18615412099E+02  0.23937661864E+02  0.00000000000E+00 0. -1.
</event>
<event>
 7    1  0.7596051E-010  0.4778727E+02  0.7816164E-02  0.1312668E+00
        -11   -1    0    0    0    0  0.00000000000E+00  0.00000000000E+00  0.45593999997E+02  0.45594000000E+02  0.51100000000E-03 0. -1.
         11   -1    0    0    0    0 -0.00000000000E+00 -0.00000000000E+00 -0.45593999997E+02  0.45594000000E+02  0.51100000000E-03 0.  1.
    9900012    2    1    2    0    0  0.10562043186E+02 -0.70874535507E+01  0.41494991888E+02  0.47787272980E+02  0.20000008826E+02 0.  0.
        -12    1    1    2    0    0 -0.10562043186E+02  0.70874535507E+01 -0.41494991888E+02  0.43400727020E+02  0.00000000000E+00 0.  1.
         11    1    3    3    0    0  0.20789982082E+01 -0.60364654480E+01  0.21153379446E+02  0.22095850536E+02  0.51100000000E-03 0. -1.
        -11    1    3    3    0    0  0.85252277221E+01 -0.56151374537E+01  0.17658515828E+02  0.20396873727E+02  0.51100000000E-03 0.  1.
         12    1    3    3    0    0 -0.42182744634E-01  0.45641493510E+01  0.26830966139E+01  0.52945487175E+01  0.00000000000E+00 0. -1.
</event>
<event>
 7    1  0.7596051E-010  0.4778727E+02  0.7816164E-02  0.1312668E+00
        -11   -1    0    0    0    0  0.00000000000E+00  0.00000000000E+00  0.45593999997E+02  0.45594000000E+02  0.51100000000E-03 0. -1.
         11   -1    0    0    0    0 -0.00000000000E+00 -0.00000000000E+00 -0.45593999997E+02  0.45594000000E+02  0.51100000000E-03 0.  1.
    9900012    2    1    2    0    0 -0.19237855946E+02  0.13847458109E+02  0.36356239320E+02  0.47787270341E+02  0.19999996791E+02 0.  0.
        -12    1    1    2    0    0  0.19237855946E+02 -0.13847458109E+02 -0.36356239320E+02  0.43400729659E+02  0.00000000000E+00 0.  1.
         11    1    3    3    0    0 -0.72705841933E+01  0.33215953441E+01  0.13118699396E+02  0.15362117831E+02  0.51100000000E-03 0. -1.
        -11    1    3    3    0    0 -0.88666634605E+01  0.11093764307E+02  0.69053566949E+01  0.15791557199E+02  0.51100000000E-03 0.  1.
         12    1    3    3    0    0 -0.31006082919E+01 -0.56790154203E+00  0.16332183229E+02  0.16633595311E+02  0.00000000000E+00 0. -1.
</event>
<event>
 7    1  0.7596051E-010  0.4778727E+02  0.7816164E-02  0.1312668E+00
        -11   -1    0    0    0    0  0.00000000000E+00  0.00000000000E+00  0.45593999997E+02  0.45594000000E+02  0.51100000000E-03 0. -1.
         11   -1    0    0    0    0 -0.00000000000E+00 -0.00000000000E+00 -0.45593999997E+02  0.45594000000E+02  0.51100000000E-03 0.  1.
    9900012    2    1    2    0    0  0.15147026381E+02  0.11767321179E+02 -0.38932263072E+02  0.47787270009E+02  0.19999995277E+02 0.  0.
         12    1    1    2    0    0 -0.15147026381E+02 -0.11767321179E+02  0.38932263072E+02  0.43400729991E+02  0.00000000000E+00 0. -1.
         11    1    3    3    0    0 -0.12999518073E+01 -0.12889503095E+01  0.42308830241E+00  0.18789016937E+01  0.51100000000E-03 0. -1.
        -11    1    3    3    0    0  0.96619415028E+01  0.37425820289E+01 -0.27446758275E+02  0.29337426163E+02  0.51100000000E-03 0.  1.
         12    1    3    3    0    0  0.67850366853E+01  0.93136894599E+01 -0.11908593099E+02  0.16570942151E+02  0.00000000000E+00 0. -1.
</event>
<event>
 7    1  0.7596051E-010  0.4778727E+02  0.7816164E-02  0.1312668E+00
        -11   -1    0    0    0    0  0.00000000000E+00  0.00000000000E+00  0.45593999997E+02  0.45594000000E+02  0.51100000000E-03 0. -1.
         11   -1    0    0    0    0 -0.00000000000E+00 -0.00000000000E+00 -0.45593999997E+02  0.45594000000E+02  0.51100000000E-03 0.  1.
    9900012    2    1    2    0    0 -0.54807234024E+01 -0.31183819948E+02 -0.29684243330E+02  0.47787271232E+02  0.20000000853E+02 0.  0.
         12    1    1    2    0    0  0.54807234024E+01  0.31183819948E+02  0.29684243330E+02  0.43400728768E+02  0.00000000000E+00 0. -1.
         11    1    3    3    0    0  0.11043210506E+01 -0.10504788743E+02 -0.13067969052E+02  0.16803033265E+02  0.51100000000E-03 0. -1.
        -11    1    3    3    0    0 -0.19124217199E+01 -0.19493257540E+02 -0.80947071292E+01  0.21193601160E+02  0.51100000000E-03 0.  1.
         12    1    3    3    0    0 -0.46726227331E+01 -0.11857736645E+01 -0.85215671494E+01  0.97906368062E+01  0.00000000000E+00 0. -1.
</event>
<event>
 7    1  0.7596051E-010  0.4778727E+02  0.7816164E-02  0.1312668E+00
        -11   -1    0    0    0    0  0.00000000000E+00  0.00000000000E+00  0.45593999997E+02  0.45594000000E+02  0.51100000000E-03 0. -1.
         11   -1    0    0    0    0 -0.00000000000E+00 -0.00000000000E+00 -0.45593999997E+02  0.45594000000E+02  0.51100000000E-03 0.  1.
    9900012    2    1    2    0    0 -0.42277945957E+01  0.32787179633E+02 -0.28120272226E+02  0.47787272984E+02  0.20000008844E+02 0.  0.
         12    1    1    2    0    0  0.42277945957E+01 -0.32787179633E+02  0.28120272226E+02  0.43400727016E+02  0.00000000000E+00 0. -1.
         11    1    3    3    0    0  0.45481734691E+00  0.50712467528E+01 -0.93042336446E+00  0.51759144453E+01  0.51100000000E-03 0. -1.
        -11    1    3    3    0    0  0.49079664606E+01  0.99266976724E+01 -0.16152678316E+02  0.19584087380E+02  0.51100000000E-03 0.  1.
        -12    1    3    3    0    0 -0.95905784032E+01  0.17789235208E+02 -0.11037170546E+02  0.23027271159E+02  0.00000000000E+00 0.  1.
</event>
<event>
 7    1  0.7596051E-010  0.4778728E+02  0.7816164E-02  0.1312668E+00
        -11   -1    0    0    0    0  0.00000000000E+00  0.00000000000E+00  0.45593999997E+02  0.45594000000E+02  0.51100000000E-03 0. -1.
         11   -1    0    0    0    0 -0.00000000000E+00 -0.00000000000E+00 -0.45593999997E+02  0.45594000000E+02  0.51100000000E-03 0.  1.
    9900012    2    1    2    0    0 -0.34267633042E+02  0.19172944350E+02  0.18486491919E+02  0.47787275895E+02  0.20000022116E+02 0.  0.
        -12    1    1    2    0    0  0.34267633042E+02 -0.19172944350E+02 -0.18486491919E+02  0.43400724105E+02  0.00000000000E+00 0.  1.
         11    1    3    3    0    0 -0.54826058022E+01 -0.75345579144E+00  0.11917415448E+01  0.56609990446E+01  0.51100000000E-03 0. -1.
        -11    1    3    3    0    0 -0.22686909639E+02  0.16844061478E+02  0.59395718129E+01  0.28873808021E+02  0.51100000000E-03 0.  1.
         12    1    3    3    0    0 -0.60981176007E+01  0.30823386631E+01  0.11355178561E+02  0.13252468829E+02  0.00000000000E+00 0. -1.
</event>
<event>
 7    1  0.7596051E-010  0.4778730E+02  0.7816164E-02  0.1312668E+00
        -11   -1    0    0    0    0  0.00000000000E+00  0.00000000000E+00  0.45593999997E+02  0.45594000000E+02  0.51100000000E-03 0. -1.
         11   -1    0    0    0    0 -0.00000000000E+00 -0.00000000000E+00 -0.45593999997E+02  0.45594000000E+02  0.51100000000E-03 0.  1.
    9900012    2    1    2    0    0 -0.21508863821E+02  0.16320229792E+02  0.33979984947E+02  0.47787302997E+02  0.20000145685E+02 0.  0.
        -12    1    1    2    0    0  0.21508863821E+02 -0.16320229792E+02 -0.33979984947E+02  0.43400697003E+02  0.00000000000E+00 0.  1.
         11    1    3    3    0    0  0.80714196061E-01  0.14265091381E+01  0.40278041302E+01  0.42737161201E+01  0.51100000000E-03 0. -1.
        -11    1    3    3    0    0  0.15605628943E+01 -0.19856026001E+01  0.46429561903E+01  0.52853587086E+01  0.51100000000E-03 0.  1.
         12    1    3    3    0    0 -0.23150140911E+02  0.16879323254E+02  0.25309224626E+02  0.38228228169E+02  0.00000000000E+00 0. -1.
</event>
<event>
 7    1  0.7596051E-010  0.4778732E+02  0.7816164E-02  0.1312668E+00
        -11   -1    0    0    0    0  0.00000000000E+00  0.00000000000E+00  0.45593999997E+02  0.45594000000E+02  0.51100000000E-03 0. -1.
         11   -1    0    0    0    0 -0.00000000000E+00 -0.00000000000E+00 -0.45593999997E+02  0.45594000000E+02  0.51100000000E-03 0.  1.
    9900012    2    1    2    0    0 -0.32711580859E+02 -0.21945086502E+02  0.18220448048E+02  0.47787319464E+02  0.20000220764E+02 0.  0.
        -12    1    1    2    0    0  0.32711580859E+02  0.21945086502E+02 -0.18220448048E+02  0.43400680536E+02  0.00000000000E+00 0.  1.
         11    1    3    3    0    0 -0.14239285519E+02 -0.19411169448E+01  0.45326160597E+01  0.15068835247E+02  0.51100000000E-03 0. -1.
        -11    1    3    3    0    0 -0.15845196973E+02 -0.13700238215E+02  0.47645938421E+01  0.21481809724E+02  0.51100000000E-03 0.  1.
         12    1    3    3    0    0 -0.26270983672E+01 -0.63037313420E+01  0.89232381467E+01  0.11236674494E+02  0.00000000000E+00 0. -1.
</event>
<event>
 7    1  0.7596051E-010  0.4778727E+02  0.7816164E-02  0.1312668E+00
        -11   -1    0    0    0    0  0.00000000000E+00  0.00000000000E+00  0.45593999997E+02  0.45594000000E+02  0.51100000000E-03 0. -1.
         11   -1    0    0    0    0 -0.00000000000E+00 -0.00000000000E+00 -0.45593999997E+02  0.45594000000E+02  0.51100000000E-03 0.  1.
    9900012    2    1    2    0    0 -0.10727251416E+02 -0.33876945219E+01  0.41917454241E+02  0.47787269970E+02  0.19999995099E+02 0.  0.
        -12    1    1    2    0    0  0.10727251416E+02  0.33876945219E+01 -0.41917454241E+02  0.43400730030E+02  0.00000000000E+00 0.  1.
         11    1    3    3    0    0 -0.60433339023E+00 -0.68010185328E+00  0.10052764229E+02  0.10093850915E+02  0.51100000000E-03 0. -1.
        -11    1    3    3    0    0 -0.11250170499E+02  0.49324713841E+01  0.21590461143E+02  0.24840362775E+02  0.51100000000E-03 0.  1.
         12    1    3    3    0    0  0.11272524726E+01 -0.76400640527E+01  0.10274228869E+02  0.12853056280E+02  0.00000000000E+00 0. -1.
</event>
<event>
 7    1  0.7596051E-010  0.4778727E+02  0.7816164E-02  0.1312668E+00
        -11   -1    0    0    0    0  0.00000000000E+00  0.00000000000E+00  0.45593999997E+02  0.45594000000E+02  0.51100000000E-03 0. -1.
         11   -1    0    0    0    0 -0.00000000000E+00 -0.00000000000E+00 -0.45593999997E+02  0.45594000000E+02  0.51100000000E-03 0.  1.
    9900012    2    1    2    0    0 -0.31207122957E+02  0.30381262075E+01  0.30008476768E+02  0.47787269452E+02  0.19999992741E+02 0.  0.
        -12    1    1    2    0    0  0.31207122957E+02 -0.30381262075E+01 -0.30008476768E+02  0.43400730548E+02  0.00000000000E+00 0.  1.
         11    1    3    3    0    0 -0.10223068396E+02 -0.48342088810E+01  0.39312800601E+01  0.11972287422E+02  0.51100000000E-03 0. -1.
        -11    1    3    3    0    0 -0.20956825780E+01 -0.94128675402E+00  0.76716189880E+01  0.80082235471E+01  0.51100000000E-03 0.  1.
        -12    1    3    3    0    0 -0.18888371983E+02  0.88136218425E+01  0.18405577720E+02  0.27806758483E+02  0.00000000000E+00 0.  1.
</event>
<event>
 7    1  0.7596051E-010  0.4778727E+02  0.7816164E-02  0.1312668E+00
        -11   -1    0    0    0    0  0.00000000000E+00  0.00000000000E+00  0.45593999997E+02  0.45594000000E+02  0.51100000000E-03 0. -1.
         11   -1    0    0    0    0 -0.00000000000E+00 -0.00000000000E+00 -0.45593999997E+02  0.45594000000E+02  0.51100000000E-03 0.  1.
    9900012    2    1    2    0    0 -0.58935453186E+00 -0.21924488989E+02 -0.37451203015E+02  0.47787272316E+02  0.20000005798E+02 0.  0.
         12    1    1    2    0    0  0.58935453186E+00  0.21924488989E+02  0.37451203015E+02  0.43400727684E+02  0.00000000000E+00 0. -1.
         11    1    3    3    0    0  0.66061118534E+01 -0.88572419566E+01 -0.57107209759E+01  0.12437997557E+02  0.51100000000E-03 0.  1.
        -11    1    3    3    0    0 -0.21488624441E+01 -0.25877435333E+01 -0.37456123303E+01  0.50342465561E+01  0.51100000000E-03 0. -1.
        -12    1    3    3    0    0 -0.50466039412E+01 -0.10479503499E+02 -0.27994869709E+02  0.30315028203E+02  0.00000000000E+00 0.  1.
</event>
<event>
 7    1  0.7596051E-010  0.4778725E+02  0.7816164E-02  0.1312668E+00
        -11   -1    0    0    0    0  0.00000000000E+00  0.00000000000E+00  0.45593999997E+02  0.45594000000E+02  0.51100000000E-03 0. -1.
         11   -1    0    0    0    0 -0.00000000000E+00 -0.00000000000E+00 -0.45593999997E+02  0.45594000000E+02  0.51100000000E-03 0.  1.
    9900012    2    1    2    0    0 -0.13253570243E+02  0.30964085059E+02  0.27371391247E+02  0.47787254078E+02  0.19999922645E+02 0.  0.
        -12    1    1    2    0    0  0.13253570243E+02 -0.30964085059E+02 -0.27371391247E+02  0.43400745922E+02  0.00000000000E+00 0.  1.
         11    1    3    3    0    0 -0.16394443313E+01  0.14639039725E+02  0.88503777453E+01  0.17184831925E+02  0.51100000000E-03 0. -1.
        -11    1    3    3    0    0 -0.11951885496E+02  0.15710846589E+02  0.10140268418E+02  0.22192415626E+02  0.51100000000E-03 0.  1.
        -12    1    3    3    0    0  0.33775958453E+00  0.61419874502E+00  0.83807450841E+01  0.84100065279E+01  0.00000000000E+00 0.  1.
</event>
<event>
 7    1  0.7596051E-010  0.4778722E+02  0.7816164E-02  0.1312668E+00
        -11   -1    0    0    0    0  0.00000000000E+00  0.00000000000E+00  0.45593999997E+02  0.45594000000E+02  0.51100000000E-03 0. -1.
         11   -1    0    0    0    0 -0.00000000000E+00 -0.00000000000E+00 -0.45593999997E+02  0.45594000000E+02  0.51100000000E-03 0.  1.
    9900012    2    1    2    0    0 -0.32720858243E+02  0.46931377585E+01 -0.28123794899E+02  0.47787217223E+02  0.19999754603E+02 0.  0.
         12    1    1    2    0    0  0.32720858243E+02 -0.46931377585E+01  0.28123794899E+02  0.43400782777E+02  0.00000000000E+00 0. -1.
         11    1    3    3    0    0 -0.90271995140E+00  0.15551226455E+01 -0.62180246164E+01  0.64728000235E+01  0.51100000000E-03 0. -1.
        -11    1    3    3    0    0 -0.20049147392E+00  0.21215680730E+01 -0.50249887833E+01  0.54581828893E+01  0.51100000000E-03 0.  1.
        -12    1    3    3    0    0 -0.31617646817E+02  0.10164470400E+01 -0.16880781500E+02  0.35856234310E+02  0.00000000000E+00 0.  1.
</event>
<event>
 7    1  0.7596051E-010  0.4778727E+02  0.7816164E-02  0.1312668E+00
        -11   -1    0    0    0    0  0.00000000000E+00  0.00000000000E+00  0.45593999997E+02  0.45594000000E+02  0.51100000000E-03 0.  1.
         11   -1    0    0    0    0 -0.00000000000E+00 -0.00000000000E+00 -0.45593999997E+02  0.45594000000E+02  0.51100000000E-03 0. -1.
    9900012    2    1    2    0    0 -0.34892732986E+02  0.14701507251E+02 -0.21212876954E+02  0.47787270981E+02  0.19999999711E+02 0.  0.
         12    1    1    2    0    0  0.34892732986E+02 -0.14701507251E+02  0.21212876954E+02  0.43400729019E+02  0.00000000000E+00 0. -1.
         11    1    3    3    0    0 -0.20867685696E+02  0.83295468732E+01 -0.16924663241E+02  0.28129804186E+02  0.51100000000E-03 0. -1.
        -11    1    3    3    0    0 -0.11820003863E+02  0.88534809942E+01 -0.59784075928E+01  0.15932293452E+02  0.51100000000E-03 0.  1.
         12    1    3    3    0    0 -0.22050434269E+01 -0.24815206166E+01  0.16901938799E+01  0.37251733432E+01  0.00000000000E+00 0. -1.
</event>
<event>
 7    1  0.7596051E-010  0.4778727E+02  0.7816164E-02  0.1312668E+00
        -11   -1    0    0    0    0  0.00000000000E+00  0.00000000000E+00  0.45593999997E+02  0.45594000000E+02  0.51100000000E-03 0. -1.
         11   -1    0    0    0    0 -0.00000000000E+00 -0.00000000000E+00 -0.45593999997E+02  0.45594000000E+02  0.51100000000E-03 0.  1.
    9900012    2    1    2    0    0 -0.17756055282E+02 -0.11783137987E+02 -0.37808777634E+02  0.47787268368E+02  0.19999987798E+02 0.  0.
         12    1    1    2    0    0  0.17756055282E+02  0.11783137987E+02  0.37808777634E+02  0.43400731632E+02  0.00000000000E+00 0. -1.
         11    1    3    3    0    0  0.14736084780E+01 -0.88153371736E+00 -0.13884011149E+01  0.22082304133E+01  0.51100000000E-03 0. -1.
        -11    1    3    3    0    0 -0.53045753248E+01 -0.79482915720E+01 -0.43658417323E+01  0.10505923690E+02  0.51100000000E-03 0.  1.
        -12    1    3    3    0    0 -0.13925088435E+02 -0.29533126972E+01 -0.32054534787E+02  0.35073114265E+02  0.00000000000E+00 0.  1.
</event>
<event>
 7    1  0.7596051E-010  0.4778727E+02  0.7816164E-02  0.1312668E+00
        -11   -1    0    0    0    0  0.00000000000E+00  0.00000000000E+00  0.45593999997E+02  0.45594000000E+02  0.51100000000E-03 0. -1.
         11   -1    0    0    0    0 -0.00000000000E+00 -0.00000000000E+00 -0.45593999997E+02  0.45594000000E+02  0.51100000000E-03 0.  1.
    9900012    2    1    2    0    0 -0.59796966426E+01  0.17572803632E+01  0.42950886051E+02  0.47787269375E+02  0.19999992389E+02 0.  0.
        -12    1    1    2    0    0  0.59796966426E+01 -0.17572803632E+01 -0.42950886051E+02  0.43400730625E+02  0.00000000000E+00 0.  1.
         11    1    3    3    0    0 -0.53670197256E+01  0.76384415163E+00  0.18223106284E+02  0.19012363386E+02  0.51100000000E-03 0. -1.
        -11    1    3    3    0    0 -0.37174009194E+01 -0.33939987141E+01  0.19938012593E+01  0.54141980560E+01  0.51100000000E-03 0.  1.
         12    1    3    3    0    0  0.31047240023E+01  0.43874349257E+01  0.22733978508E+02  0.23360707933E+02  0.00000000000E+00 0. -1.
</event>
<event>
 7    1  0.7596051E-010  0.4778727E+02  0.7816164E-02  0.1312668E+00
        -11   -1    0    0    0    0  0.00000000000E+00  0.00000000000E+00  0.45593999997E+02  0.45594000000E+02  0.51100000000E-03 0. -1.
         11   -1    0    0    0    0 -0.00000000000E+00 -0.00000000000E+00 -0.45593999997E+02  0.45594000000E+02  0.51100000000E-03 0.  1.
    9900012    2    1    2    0    0 -0.35688303956E+02  0.49265306329E+01 -0.24201187319E+02  0.47787271769E+02  0.20000003305E+02 0.  0.
         12    1    1    2    0    0  0.35688303956E+02 -0.49265306329E+01  0.24201187319E+02  0.43400728231E+02  0.00000000000E+00 0. -1.
         11    1    3    3    0    0 -0.14783809152E+02 -0.22391023123E+01 -0.36977326492E+01  0.15402851009E+02  0.51100000000E-03 0.  1.
        -11    1    3    3    0    0  0.23726151369E+00 -0.11116124855E+01 -0.44118098833E+01  0.45558799426E+01  0.51100000000E-03 0. -1.
         12    1    3    3    0    0 -0.21141756318E+02  0.82772454307E+01 -0.16091644786E+02  0.27828540818E+02  0.00000000000E+00 0. -1.
</event>
<event>
 7    1  0.7596051E-010  0.4778725E+02  0.7816164E-02  0.1312668E+00
        -11   -1    0    0    0    0  0.00000000000E+00  0.00000000000E+00  0.45593999997E+02  0.45594000000E+02  0.51100000000E-03 0. -1.
         11   -1    0    0    0    0 -0.00000000000E+00 -0.00000000000E+00 -0.45593999997E+02  0.45594000000E+02  0.51100000000E-03 0.  1.
    9900012    2    1    2    0    0 -0.65932553298E+01  0.23638908854E+01  0.42831833842E+02  0.47787251317E+02  0.19999910053E+02 0.  0.
        -12    1    1    2    0    0  0.65932553298E+01 -0.23638908854E+01 -0.42831833842E+02  0.43400748683E+02  0.00000000000E+00 0.  1.
         11    1    3    3    0    0 -0.12177881279E+02 -0.18171434727E-01  0.25671889817E+02  0.28413853130E+02  0.51100000000E-03 0. -1.
        -11    1    3    3    0    0 -0.25417736939E+00  0.25211416813E+01  0.23599137415E+01  0.34626513889E+01  0.51100000000E-03 0.  1.
         12    1    3    3    0    0  0.58388033187E+01 -0.13907936117E+00  0.14800030284E+02  0.15910746798E+02  0.00000000000E+00 0. -1.
</event>
<event>
 7    1  0.7596051E-010  0.4778726E+02  0.7816164E-02  0.1312668E+00
        -11   -1    0    0    0    0  0.00000000000E+00  0.00000000000E+00  0.45593999997E+02  0.45594000000E+02  0.51100000000E-03 0. -1.
         11   -1    0    0    0    0 -0.00000000000E+00 -0.00000000000E+00 -0.45593999997E+02  0.45594000000E+02  0.51100000000E-03 0.  1.
    9900012    2    1    2    0    0  0.68886852978E+01  0.20293333478E+02 -0.37740578274E+02  0.47787255568E+02  0.19999929438E+02 0.  0.
         12    1    1    2    0    0 -0.68886852978E+01 -0.20293333478E+02  0.37740578274E+02  0.43400744432E+02  0.00000000000E+00 0. -1.
         11    1    3    3    0    0  0.23852279653E+01 -0.10637370640E+01 -0.18105866359E+01  0.31779039027E+01  0.51100000000E-03 0. -1.
        -11    1    3    3    0    0 -0.31598826304E+01  0.42828089124E+01 -0.17700153919E+02  0.18483039778E+02  0.51100000000E-03 0.  1.
        -12    1    3    3    0    0  0.76633399630E+01  0.17074261630E+02 -0.18229837719E+02  0.26126311888E+02  0.00000000000E+00 0.  1.
</event>
<event>
 7    1  0.7596051E-010  0.4778728E+02  0.7816164E-02  0.1312668E+00
        -11   -1    0    0    0    0  0.00000000000E+00  0.00000000000E+00  0.45593999997E+02  0.45594000000E+02  0.51100000000E-03 0.  1.
         11   -1    0    0    0    0 -0.00000000000E+00 -0.00000000000E+00 -0.45593999997E+02  0.45594000000E+02  0.51100000000E-03 0. -1.
    9900012    2    1    2    0    0 -0.26284221263E+02 -0.33381601975E+02 -0.88561278506E+01  0.47787278366E+02  0.20000033384E+02 0.  0.
         12    1    1    2    0    0  0.26284221263E+02  0.33381601975E+02  0.88561278506E+01  0.43400721634E+02  0.00000000000E+00 0. -1.
         11    1    3    3    0    0 -0.13895650110E+02 -0.15985668148E+02 -0.80759051666E+01  0.22668280099E+02  0.51100000000E-03 0.  1.
        -11    1    3    3    0    0  0.83753749172E+00 -0.31751522089E+01  0.39439559386E+01  0.51320414365E+01  0.51100000000E-03 0. -1.
         12    1    3    3    0    0 -0.13226108644E+02 -0.14220781618E+02 -0.47241786226E+01  0.19986956831E+02  0.00000000000E+00 0. -1.
</event>
<event>
 7    1  0.7596051E-010  0.4778727E+02  0.7816164E-02  0.1312668E+00
        -11   -1    0    0    0    0  0.00000000000E+00  0.00000000000E+00  0.45593999997E+02  0.45594000000E+02  0.51100000000E-03 0. -1.
         11   -1    0    0    0    0 -0.00000000000E+00 -0.00000000000E+00 -0.45593999997E+02  0.45594000000E+02  0.51100000000E-03 0.  1.
    9900012    2    1    2    0    0  0.20810125279E+02 -0.34804790563E+02  0.15465720011E+02  0.47787271254E+02  0.20000000954E+02 0.  0.
        -12    1    1    2    0    0 -0.20810125279E+02  0.34804790563E+02 -0.15465720011E+02  0.43400728746E+02  0.00000000000E+00 0.  1.
         11    1    3    3    0    0  0.14818341507E+02 -0.22103032130E+02  0.12869863767E+02  0.29559442958E+02  0.51100000000E-03 0. -1.
        -11    1    3    3    0    0  0.54480993917E+01 -0.14354656364E+02  0.31236062533E+00  0.15356937055E+02  0.51100000000E-03 0.  1.
         12    1    3    3    0    0  0.54368438023E+00  0.16528979304E+01  0.22834956187E+01  0.28708912404E+01  0.00000000000E+00 0. -1.
</event>
<event>
 7    1  0.7596051E-010  0.4778728E+02  0.7816164E-02  0.1312668E+00
        -11   -1    0    0    0    0  0.00000000000E+00  0.00000000000E+00  0.45593999997E+02  0.45594000000E+02  0.51100000000E-03 0. -1.
         11   -1    0    0    0    0 -0.00000000000E+00 -0.00000000000E+00 -0.45593999997E+02  0.45594000000E+02  0.51100000000E-03 0.  1.
    9900012    2    1    2    0    0 -0.32792666611E+02  0.90643298374E+01 -0.26946276341E+02  0.47787275726E+02  0.20000021346E+02 0.  0.
         12    1    1    2    0    0  0.32792666611E+02 -0.90643298374E+01  0.26946276341E+02  0.43400724274E+02  0.00000000000E+00 0. -1.
         11    1    3    3    0    0 -0.88396611466E+01 -0.19322671575E+01 -0.87793944563E+01  0.12607578389E+02  0.51100000000E-03 0.  1.
        -11    1    3    3    0    0 -0.36665237642E+01  0.54179005228E+00 -0.10450822353E+02  0.11088580662E+02  0.51100000000E-03 0. -1.
        -12    1    3    3    0    0 -0.20286481700E+02  0.10454806943E+02 -0.77160595318E+01  0.24091116675E+02  0.00000000000E+00 0.  1.
</event>
<event>
 7    1  0.8461696E-010  0.4778727E+02  0.7816164E-02  0.1312668E+00
        -11   -1    0    0    0    0  0.00000000000E+00  0.00000000000E+00  0.45593999997E+02  0.45594000000E+02  0.51100000000E-03 0. -1.
         11   -1    0    0    0    0 -0.00000000000E+00 -0.00000000000E+00 -0.45593999997E+02  0.45594000000E+02  0.51100000000E-03 0.  1.
    9900012    2    1    2    0    0  0.21135334208E+02 -0.20230709914E+02  0.32056814461E+02  0.47787270408E+02  0.19999997100E+02 0.  0.
        -12    1    1    2    0    0 -0.21135334208E+02  0.20230709914E+02 -0.32056814461E+02  0.43400729592E+02  0.00000000000E+00 0.  1.
         11    1    3    3    0    0  0.95547861587E+01 -0.10000769119E+02  0.19837927257E+02  0.24183727580E+02  0.51100000000E-03 0. -1.
        -11    1    3    3    0    0  0.26733006452E+01  0.31230803047E+01  0.19633693860E+01  0.45557641002E+01  0.51100000000E-03 0.  1.
         12    1    3    3    0    0  0.89072474041E+01 -0.13353021099E+02  0.10255517817E+02  0.19047778729E+02  0.00000000000E+00 0. -1.
</event>
<event>
 7    1  0.7596051E-010  0.4778727E+02  0.7816164E-02  0.1312668E+00
        -11   -1    0    0    0    0  0.00000000000E+00  0.00000000000E+00  0.45593999997E+02  0.45594000000E+02  0.51100000000E-03 0. -1.
         11   -1    0    0    0    0 -0.00000000000E+00 -0.00000000000E+00 -0.45593999997E+02  0.45594000000E+02  0.51100000000E-03 0.  1.
    9900012    2    1    2    0    0 -0.27932161953E+02  0.89595537132E+01  0.31986629991E+02  0.47787265303E+02  0.19999973821E+02 0.  0.
        -12    1    1    2    0    0  0.27932161953E+02 -0.89595537132E+01 -0.31986629991E+02  0.43400734697E+02  0.00000000000E+00 0.  1.
         11    1    3    3    0    0 -0.10767611832E+02 -0.22188848118E+01  0.10269513036E+02  0.15044195314E+02  0.51100000000E-03 0. -1.
        -11    1    3    3    0    0 -0.17517753390E+02  0.65104480343E+01  0.20818629210E+02  0.27976292461E+02  0.51100000000E-03 0.  1.
        -12    1    3    3    0    0  0.35320326923E+00  0.46679904907E+01  0.89848774477E+00  0.47667775277E+01  0.00000000000E+00 0.  1.
</event>
<event>
 7    1  0.7596051E-010  0.4778727E+02  0.7816164E-02  0.1312668E+00
        -11   -1    0    0    0    0  0.00000000000E+00  0.00000000000E+00  0.45593999997E+02  0.45594000000E+02  0.51100000000E-03 0. -1.
         11   -1    0    0    0    0 -0.00000000000E+00 -0.00000000000E+00 -0.45593999997E+02  0.45594000000E+02  0.51100000000E-03 0.  1.
    9900012    2    1    2    0    0  0.27495862636E+01  0.29144431073E+02 -0.32041616463E+02  0.47787271057E+02  0.20000000059E+02 0.  0.
         12    1    1    2    0    0 -0.27495862636E+01 -0.29144431073E+02  0.32041616463E+02  0.43400728943E+02  0.00000000000E+00 0. -1.
         11    1    3    3    0    0  0.43921475058E+01  0.13693726559E+02 -0.17981977738E+02  0.23025217271E+02  0.51100000000E-03 0. -1.
        -11    1    3    3    0    0  0.11658318752E+00  0.15165748984E+02 -0.16055736628E+02  0.22086199601E+02  0.51100000000E-03 0.  1.
        -12    1    3    3    0    0 -0.17591444297E+01  0.28495553006E+00  0.19960979030E+01  0.26758541846E+01  0.00000000000E+00 0.  1.
</event>
<event>
 7    1  0.7596051E-010  0.4778727E+02  0.7816164E-02  0.1312668E+00
        -11   -1    0    0    0    0  0.00000000000E+00  0.00000000000E+00  0.45593999997E+02  0.45594000000E+02  0.51100000000E-03 0. -1.
         11   -1    0    0    0    0 -0.00000000000E+00 -0.00000000000E+00 -0.45593999997E+02  0.45594000000E+02  0.51100000000E-03 0.  1.
    9900012    2    1    2    0    0 -0.28004373274E+02 -0.24923463217E+02  0.21867771896E+02  0.47787269720E+02  0.19999993960E+02 0.  0.
        -12    1    1    2    0    0  0.28004373274E+02  0.24923463217E+02 -0.21867771896E+02  0.43400730280E+02  0.00000000000E+00 0.  1.
         11    1    3    3    0    0 -0.97483448041E+01 -0.35357669201E+01  0.11053369205E+02  0.15156148758E+02  0.51100000000E-03 0. -1.
        -11    1    3    3    0    0 -0.73768030296E+00 -0.95735597496E+01  0.24798104082E+01  0.99169893834E+01  0.51100000000E-03 0.  1.
         12    1    3    3    0    0 -0.17518348167E+02 -0.11814136547E+02  0.83345922830E+01  0.22714131579E+02  0.00000000000E+00 0. -1.
</event>
<event>
 7    1  0.7596051E-010  0.4778727E+02  0.7816164E-02  0.1312668E+00
        -11   -1    0    0    0    0  0.00000000000E+00  0.00000000000E+00  0.45593999997E+02  0.45594000000E+02  0.51100000000E-03 0.  1.
         11   -1    0    0    0    0 -0.00000000000E+00 -0.00000000000E+00 -0.45593999997E+02  0.45594000000E+02  0.51100000000E-03 0. -1.
    9900012    2    1    2    0    0  0.60829286151E+01 -0.42575099667E+02  0.58294233321E+01  0.47787270645E+02  0.19999998178E+02 0.  0.
         12    1    1    2    0    0 -0.60829286151E+01  0.42575099667E+02 -0.58294233321E+01  0.43400729355E+02  0.00000000000E+00 0. -1.
         11    1    3    3    0    0  0.88673471134E+01 -0.88910415423E+01  0.82390470846E-01  0.12557358519E+02  0.51100000000E-03 0. -1.
        -11    1    3    3    0    0  0.90820780482E+00 -0.16523999495E+02 -0.61312128857E+00  0.16560293436E+02  0.51100000000E-03 0.  1.
        -12    1    3    3    0    0 -0.36926263031E+01 -0.17160058630E+02  0.63601541498E+01  0.18669618689E+02  0.00000000000E+00 0.  1.
</event>
<event>
 7    1  0.7596051E-010  0.4778727E+02  0.7816164E-02  0.1312668E+00
        -11   -1    0    0    0    0  0.00000000000E+00  0.00000000000E+00  0.45593999997E+02  0.45594000000E+02  0.51100000000E-03 0.  1.
         11   -1    0    0    0    0 -0.00000000000E+00 -0.00000000000E+00 -0.45593999997E+02  0.45594000000E+02  0.51100000000E-03 0. -1.
    9900012    2    1    2    0    0 -0.30668013716E+02  0.27869912407E+02  0.12898227963E+02  0.47787269967E+02  0.19999995085E+02 0.  0.
         12    1    1    2    0    0  0.30668013716E+02 -0.27869912407E+02 -0.12898227963E+02  0.43400730033E+02  0.00000000000E+00 0. -1.
         11    1    3    3    0    0 -0.14743458191E+02  0.17406552312E+02  0.10597217439E+01  0.22835950457E+02  0.51100000000E-03 0. -1.
        -11    1    3    3    0    0 -0.38490932795E+01  0.45014879906E+01 -0.13795599136E+01  0.60812909008E+01  0.51100000000E-03 0.  1.
        -12    1    3    3    0    0 -0.12075462245E+02  0.59618721046E+01  0.13218066132E+02  0.18870028609E+02  0.00000000000E+00 0.  1.
</event>
<event>
 7    1  0.7596051E-010  0.4778727E+02  0.7816164E-02  0.1312668E+00
        -11   -1    0    0    0    0  0.00000000000E+00  0.00000000000E+00  0.45593999997E+02  0.45594000000E+02  0.51100000000E-03 0. -1.
         11   -1    0    0    0    0 -0.00000000000E+00 -0.00000000000E+00 -0.45593999997E+02  0.45594000000E+02  0.51100000000E-03 0.  1.
    9900012    2    1    2    0    0  0.19747911933E+02  0.19886132465E+02 -0.33138875113E+02  0.47787270353E+02  0.19999996848E+02 0.  0.
         12    1    1    2    0    0 -0.19747911933E+02 -0.19886132465E+02  0.33138875113E+02  0.43400729647E+02  0.00000000000E+00 0. -1.
         11    1    3    3    0    0  0.22006608550E+01  0.53454063964E+01 -0.11873104238E+02  0.13205562549E+02  0.51100000000E-03 0. -1.
        -11    1    3    3    0    0  0.15318265808E+02  0.17694100534E+02 -0.18479529637E+02  0.29819850384E+02  0.51100000000E-03 0.  1.
        -12    1    3    3    0    0  0.22289852701E+01 -0.31533744650E+01 -0.27862412385E+01  0.47618574202E+01  0.00000000000E+00 0.  1.
</event>
<event>
 7    1  0.7596051E-010  0.4778728E+02  0.7816164E-02  0.1312668E+00
        -11   -1    0    0    0    0  0.00000000000E+00  0.00000000000E+00  0.45593999997E+02  0.45594000000E+02  0.51100000000E-03 0. -1.
         11   -1    0    0    0    0 -0.00000000000E+00 -0.00000000000E+00 -0.45593999997E+02  0.45594000000E+02  0.51100000000E-03 0.  1.
    9900012    2    1    2    0    0  0.13626207553E+02 -0.14706574511E+01  0.41179922876E+02  0.47787280954E+02  0.20000045183E+02 0.  0.
        -12    1    1    2    0    0 -0.13626207553E+02  0.14706574511E+01 -0.41179922876E+02  0.43400719046E+02  0.00000000000E+00 0.  1.
         11    1    3    3    0    0  0.13383792086E+02  0.71926169890E+01  0.27596423808E+02  0.31502733802E+02  0.51100000000E-03 0. -1.
        -11    1    3    3    0    0 -0.47500117381E+00 -0.96643009417E+00  0.78464066073E+00  0.13323942621E+01  0.51100000000E-03 0.  1.
         12    1    3    3    0    0  0.71741664068E+00 -0.76968443459E+01  0.12798858408E+02  0.14952152890E+02  0.00000000000E+00 0. -1.
</event>
<event>
 7    1  0.7596051E-010  0.4778727E+02  0.7816164E-02  0.1312668E+00
        -11   -1    0    0    0    0  0.00000000000E+00  0.00000000000E+00  0.45593999997E+02  0.45594000000E+02  0.51100000000E-03 0. -1.
         11   -1    0    0    0    0 -0.00000000000E+00 -0.00000000000E+00 -0.45593999997E+02  0.45594000000E+02  0.51100000000E-03 0.  1.
    9900012    2    1    2    0    0 -0.13148428752E+02 -0.23671242163E+02 -0.33917758189E+02  0.47787271841E+02  0.20000003630E+02 0.  0.
         12    1    1    2    0    0  0.13148428752E+02  0.23671242163E+02  0.33917758189E+02  0.43400728159E+02  0.00000000000E+00 0. -1.
         11    1    3    3    0    0 -0.10066659736E+02 -0.66893007901E+01 -0.19796080724E+02  0.23194162964E+02  0.51100000000E-03 0. -1.
        -11    1    3    3    0    0 -0.53445763066E+01 -0.52319548789E+01 -0.24311696366E+01  0.78643775224E+01  0.51100000000E-03 0.  1.
         12    1    3    3    0    0  0.22628072907E+01 -0.11749986494E+02 -0.11690507829E+02  0.16728731354E+02  0.00000000000E+00 0. -1.
</event>
<event>
 7    1  0.7596051E-010  0.4778727E+02  0.7816164E-02  0.1312668E+00
        -11   -1    0    0    0    0  0.00000000000E+00  0.00000000000E+00  0.45593999997E+02  0.45594000000E+02  0.51100000000E-03 0. -1.
         11   -1    0    0    0    0 -0.00000000000E+00 -0.00000000000E+00 -0.45593999997E+02  0.45594000000E+02  0.51100000000E-03 0.  1.
    9900012    2    1    2    0    0 -0.65082095355E+01  0.94648862696E+01 -0.41853103375E+02  0.47787272753E+02  0.20000007791E+02 0.  0.
         12    1    1    2    0    0  0.65082095355E+01 -0.94648862696E+01  0.41853103375E+02  0.43400727247E+02  0.00000000000E+00 0. -1.
         11    1    3    3    0    0  0.31031876079E+01  0.53932446411E+01 -0.13986003561E+02  0.15307682939E+02  0.51100000000E-03 0. -1.
        -11    1    3    3    0    0  0.22639498839E+01  0.58496243131E+00 -0.12652304621E+02  0.12866563745E+02  0.51100000000E-03 0.  1.
        -12    1    3    3    0    0 -0.11875347027E+02  0.34866791972E+01 -0.15214795193E+02  0.19613026069E+02  0.00000000000E+00 0.  1.
</event>
<event>
 7    1  0.7596051E-010  0.4778727E+02  0.7816164E-02  0.1312668E+00
        -11   -1    0    0    0    0  0.00000000000E+00  0.00000000000E+00  0.45593999997E+02  0.45594000000E+02  0.51100000000E-03 0.  1.
         11   -1    0    0    0    0 -0.00000000000E+00 -0.00000000000E+00 -0.45593999997E+02  0.45594000000E+02  0.51100000000E-03 0. -1.
    9900012    2    1    2    0    0  0.17058107115E+00 -0.42408235866E+02 -0.92269069316E+01  0.47787269837E+02  0.19999994496E+02 0.  0.
         12    1    1    2    0    0 -0.17058107115E+00  0.42408235866E+02  0.92269069316E+01  0.43400730163E+02  0.00000000000E+00 0. -1.
         11    1    3    3    0    0 -0.72378349565E+01 -0.57134497154E+01 -0.20792564512E+01  0.94526752911E+01  0.51100000000E-03 0. -1.
        -11    1    3    3    0    0  0.25040323774E+01 -0.50726112681E+01 -0.84857103893E+00  0.57202828858E+01  0.51100000000E-03 0.  1.
         12    1    3    3    0    0  0.49043836502E+01 -0.31622174882E+02 -0.62990794414E+01  0.32614311660E+02  0.00000000000E+00 0. -1.
</event>
<event>
 7    1  0.7596051E-010  0.4778728E+02  0.7816164E-02  0.1312668E+00
        -11   -1    0    0    0    0  0.00000000000E+00  0.00000000000E+00  0.45593999997E+02  0.45594000000E+02  0.51100000000E-03 0. -1.
         11   -1    0    0    0    0 -0.00000000000E+00 -0.00000000000E+00 -0.45593999997E+02  0.45594000000E+02  0.51100000000E-03 0.  1.
    9900012    2    1    2    0    0  0.31702066514E+02 -0.17677969174E+02 -0.23792665721E+02  0.47787279298E+02  0.20000037630E+02 0.  0.
         12    1    1    2    0    0 -0.31702066514E+02  0.17677969174E+02  0.23792665721E+02  0.43400720702E+02  0.00000000000E+00 0. -1.
         11    1    3    3    0    0  0.11637941645E+02 -0.84660972358E+01 -0.86521996396E+01  0.16792172194E+02  0.51100000000E-03 0. -1.
        -11    1    3    3    0    0  0.18941766864E+02 -0.11165783746E+02 -0.17220374933E+02  0.27928597740E+02  0.51100000000E-03 0.  1.
         12    1    3    3    0    0  0.11223580051E+01  0.19539118087E+01  0.20799088514E+01  0.30665093638E+01  0.00000000000E+00 0. -1.
</event>
<event>
 7    1  0.7596051E-010  0.4778727E+02  0.7816164E-02  0.1312668E+00
        -11   -1    0    0    0    0  0.00000000000E+00  0.00000000000E+00  0.45593999997E+02  0.45594000000E+02  0.51100000000E-03 0. -1.
         11   -1    0    0    0    0 -0.00000000000E+00 -0.00000000000E+00 -0.45593999997E+02  0.45594000000E+02  0.51100000000E-03 0.  1.
    9900012    2    1    2    0    0  0.36977243600E+02 -0.52002036245E+01  0.22119327164E+02  0.47787270788E+02  0.19999998830E+02 0.  0.
        -12    1    1    2    0    0 -0.36977243600E+02  0.52002036245E+01 -0.22119327164E+02  0.43400729212E+02  0.00000000000E+00 0.  1.
         11    1    3    3    0    0  0.51571681457E+01  0.10073152582E+01  0.25996090237E+01  0.58625109509E+01  0.51100000000E-03 0. -1.
        -11    1    3    3    0    0  0.19596657606E+02 -0.12021521884E+02  0.86451767272E+01  0.24561861872E+02  0.51100000000E-03 0.  1.
         12    1    3    3    0    0  0.12223417848E+02  0.58140030012E+01  0.10874541413E+02  0.17362897965E+02  0.00000000000E+00 0. -1.
</event>
<event>
 7    1  0.7596051E-010  0.4778727E+02  0.7816164E-02  0.1312668E+00
        -11   -1    0    0    0    0  0.00000000000E+00  0.00000000000E+00  0.45593999997E+02  0.45594000000E+02  0.51100000000E-03 0. -1.
         11   -1    0    0    0    0 -0.00000000000E+00 -0.00000000000E+00 -0.45593999997E+02  0.45594000000E+02  0.51100000000E-03 0.  1.
    9900012    2    1    2    0    0  0.71425639688E+01 -0.12662325709E+02  0.40893426606E+02  0.47787273600E+02  0.20000011654E+02 0.  0.
        -12    1    1    2    0    0 -0.71425639688E+01  0.12662325709E+02 -0.40893426606E+02  0.43400726400E+02  0.00000000000E+00 0.  1.
         11    1    3    3    0    0  0.17977394184E+00 -0.11696411243E+02  0.94480514785E+01  0.15036756021E+02  0.51100000000E-03 0. -1.
        -11    1    3    3    0    0  0.16447514717E+01 -0.92075825011E+00  0.20448207077E+02  0.20534901414E+02  0.51100000000E-03 0.  1.
        -12    1    3    3    0    0  0.53180385553E+01 -0.45156215950E-01  0.10997168050E+02  0.12215616165E+02  0.00000000000E+00 0.  1.
</event>
<event>
 7    1  0.7596051E-010  0.4778726E+02  0.7816164E-02  0.1312668E+00
        -11   -1    0    0    0    0  0.00000000000E+00  0.00000000000E+00  0.45593999997E+02  0.45594000000E+02  0.51100000000E-03 0.  1.
         11   -1    0    0    0    0 -0.00000000000E+00 -0.00000000000E+00 -0.45593999997E+02  0.45594000000E+02  0.51100000000E-03 0. -1.
    9900012    2    1    2    0    0  0.41902860325E+02 -0.28558654101E+01  0.10937024180E+02  0.47787260737E+02  0.19999953003E+02 0.  0.
        -12    1    1    2    0    0 -0.41902860325E+02  0.28558654101E+01 -0.10937024180E+02  0.43400739263E+02  0.00000000000E+00 0.  1.
         11    1    3    3    0    0  0.28970786946E+02  0.30562326402E+00  0.77217451636E+01  0.29983749773E+02  0.51100000000E-03 0. -1.
        -11    1    3    3    0    0  0.13921846503E+02 -0.54343860220E+01  0.21247454606E+01  0.15095194766E+02  0.51100000000E-03 0.  1.
        -12    1    3    3    0    0 -0.98977312321E+00  0.22728973479E+01  0.10905335559E+01  0.27083161976E+01  0.00000000000E+00 0.  1.
</event>
<event>
 7    1  0.7596051E-010  0.4778726E+02  0.7816164E-02  0.1312668E+00
        -11   -1    0    0    0    0  0.00000000000E+00  0.00000000000E+00  0.45593999997E+02  0.45594000000E+02  0.51100000000E-03 0. -1.
         11   -1    0    0    0    0 -0.00000000000E+00 -0.00000000000E+00 -0.45593999997E+02  0.45594000000E+02  0.51100000000E-03 0.  1.
    9900012    2    1    2    0    0  0.27417301255E+02  0.18068187482E+02 -0.28380571715E+02  0.47787255100E+02  0.19999927304E+02 0.  0.
         12    1    1    2    0    0 -0.27417301255E+02 -0.18068187482E+02  0.28380571715E+02  0.43400744900E+02  0.00000000000E+00 0. -1.
         11    1    3    3    0    0  0.85992977712E+01 -0.23320846640E+00 -0.88969035454E+01  0.12375669732E+02  0.51100000000E-03 0. -1.
        -11    1    3    3    0    0  0.14133060401E+02  0.76038484697E+01 -0.17176680881E+02  0.23507451461E+02  0.51100000000E-03 0.  1.
         12    1    3    3    0    0  0.46849430833E+01  0.10697547478E+02 -0.23069872886E+01  0.11904133908E+02  0.00000000000E+00 0. -1.
</event>
<event>
 7    1  0.7596051E-010  0.4778726E+02  0.7816164E-02  0.1312668E+00
        -11   -1    0    0    0    0  0.00000000000E+00  0.00000000000E+00  0.45593999997E+02  0.45594000000E+02  0.51100000000E-03 0. -1.
         11   -1    0    0    0    0 -0.00000000000E+00 -0.00000000000E+00 -0.45593999997E+02  0.45594000000E+02  0.51100000000E-03 0.  1.
    9900012    2    1    2    0    0  0.22197194983E+00  0.18370180876E+02 -0.39320620284E+02  0.47787262719E+02  0.19999962042E+02 0.  0.
         12    1    1    2    0    0 -0.22197194983E+00 -0.18370180876E+02  0.39320620284E+02  0.43400737281E+02  0.00000000000E+00 0. -1.
         11    1    3    3    0    0 -0.37590509093E+01  0.60673184726E+01 -0.13591921463E+02  0.15351975329E+02  0.51100000000E-03 0. -1.
        -11    1    3    3    0    0 -0.55726637528E+01  0.44517316336E+01 -0.11990219906E+02  0.13951267666E+02  0.51100000000E-03 0.  1.
        -12    1    3    3    0    0  0.95536866120E+01  0.78511307702E+01 -0.13738478916E+02  0.18484019724E+02  0.00000000000E+00 0.  1.
</event>
<event>
 7    1  0.7596051E-010  0.4778728E+02  0.7816164E-02  0.1312668E+00
        -11   -1    0    0    0    0  0.00000000000E+00  0.00000000000E+00  0.45593999997E+02  0.45594000000E+02  0.51100000000E-03 0. -1.
         11   -1    0    0    0    0 -0.00000000000E+00 -0.00000000000E+00 -0.45593999997E+02  0.45594000000E+02  0.51100000000E-03 0.  1.
    9900012    2    1    2    0    0  0.38462558433E+02 -0.12420286091E+01 -0.20067680009E+02  0.47787276306E+02  0.20000023988E+02 0.  0.
         12    1    1    2    0    0 -0.38462558433E+02  0.12420286091E+01  0.20067680009E+02  0.43400723694E+02  0.00000000000E+00 0. -1.
         11    1    3    3    0    0  0.61037687545E+01  0.41051415963E+01 -0.62324037823E+00  0.73821818837E+01  0.51100000000E-03 0. -1.
        -11    1    3    3    0    0  0.20467072987E+02  0.24799439683E+01 -0.14982442422E+02  0.25485776031E+02  0.51100000000E-03 0.  1.
         12    1    3    3    0    0  0.11891716691E+02 -0.78271141737E+01 -0.44619972088E+01  0.14919318391E+02  0.00000000000E+00 0. -1.
</event>
<event>
 7    1  0.7596051E-010  0.4778725E+02  0.7816164E-02  0.1312668E+00
        -11   -1    0    0    0    0  0.00000000000E+00  0.00000000000E+00  0.45593999997E+02  0.45594000000E+02  0.51100000000E-03 0. -1.
         11   -1    0    0    0    0 -0.00000000000E+00 -0.00000000000E+00 -0.45593999997E+02  0.45594000000E+02  0.51100000000E-03 0.  1.
    9900012    2    1    2    0    0 -0.29618031231E+02 -0.35529617092E+01  0.31524171227E+02  0.47787254816E+02  0.19999926009E+02 0.  0.
        -12    1    1    2    0    0  0.29618031231E+02  0.35529617092E+01 -0.31524171227E+02  0.43400745184E+02  0.00000000000E+00 0.  1.
         11    1    3    3    0    0 -0.93129224327E+01 -0.11938823262E+01  0.12176897317E+01  0.94677688919E+01  0.51100000000E-03 0. -1.
        -11    1    3    3    0    0 -0.87519708388E+00 -0.38361825320E+01  0.58323392481E+01  0.70355133231E+01  0.51100000000E-03 0.  1.
        -12    1    3    3    0    0 -0.19429911715E+02  0.14771031490E+01  0.24474142248E+02  0.31283972601E+02  0.00000000000E+00 0.  1.
</event>
<event>
 7    1  0.7596051E-010  0.4778727E+02  0.7816164E-02  0.1312668E+00
        -11   -1    0    0    0    0  0.00000000000E+00  0.00000000000E+00  0.45593999997E+02  0.45594000000E+02  0.51100000000E-03 0. -1.
         11   -1    0    0    0    0 -0.00000000000E+00 -0.00000000000E+00 -0.45593999997E+02  0.45594000000E+02  0.51100000000E-03 0.  1.
    9900012    2    1    2    0    0  0.19315688039E+02  0.36428298440E+02 -0.13546462035E+02  0.47787269991E+02  0.19999995196E+02 0.  0.
         12    1    1    2    0    0 -0.19315688039E+02 -0.36428298440E+02  0.13546462035E+02  0.43400730009E+02  0.00000000000E+00 0. -1.
         11    1    3    3    0    0  0.70561144689E+01  0.14909027997E+02 -0.26374654958E+01  0.16704014240E+02  0.51100000000E-03 0. -1.
        -11    1    3    3    0    0 -0.13788193363E+01  0.12892017595E+02 -0.46571514927E+01  0.13776585960E+02  0.51100000000E-03 0.  1.
         12    1    3    3    0    0  0.13638392906E+02  0.86272528483E+01 -0.62518450466E+01  0.17306669791E+02  0.00000000000E+00 0. -1.
</event>
<event>
 7    1  0.8275113E-010  0.4778727E+02  0.7816164E-02  0.1312668E+00
        -11   -1    0    0    0    0  0.00000000000E+00  0.00000000000E+00  0.45593999997E+02  0.45594000000E+02  0.51100000000E-03 0. -1.
         11   -1    0    0    0    0 -0.00000000000E+00 -0.00000000000E+00 -0.45593999997E+02  0.45594000000E+02  0.51100000000E-03 0.  1.
    9900012    2    1    2    0    0  0.11327163951E+02  0.28987500724E+02  0.30249687702E+02  0.47787269045E+02  0.19999990884E+02 0.  0.
        -12    1    1    2    0    0 -0.11327163951E+02 -0.28987500724E+02 -0.30249687702E+02  0.43400730955E+02  0.00000000000E+00 0.  1.
         11    1    3    3    0    0  0.95980627654E-01 -0.67374855002E+00  0.70675001104E+01  0.71001906638E+01  0.51100000000E-03 0. -1.
        -11    1    3    3    0    0  0.20558763841E+01  0.10287740827E+01 -0.57212681623E+00  0.23690363389E+01  0.51100000000E-03 0.  1.
         12    1    3    3    0    0  0.91753069389E+01  0.28632475191E+02  0.23754314407E+02  0.38318042042E+02  0.00000000000E+00 0. -1.
</event>
<event>
 7    1  0.7596051E-010  0.4778727E+02  0.7816164E-02  0.1312668E+00
        -11   -1    0    0    0    0  0.00000000000E+00  0.00000000000E+00  0.45593999997E+02  0.45594000000E+02  0.51100000000E-03 0. -1.
         11   -1    0    0    0    0 -0.00000000000E+00 -0.00000000000E+00 -0.45593999997E+02  0.45594000000E+02  0.51100000000E-03 0.  1.
    9900012    2    1    2    0    0  0.24401726784E+02  0.37765202009E+01 -0.35691972849E+02  0.47787270735E+02  0.19999998591E+02 0.  0.
         12    1    1    2    0    0 -0.24401726784E+02 -0.37765202009E+01  0.35691972849E+02  0.43400729265E+02  0.00000000000E+00 0. -1.
         11    1    3    3    0    0  0.67002393451E+00 -0.20529620873E+01 -0.16222904063E+01  0.27010020045E+01  0.51100000000E-03 0. -1.
        -11    1    3    3    0    0  0.24111630126E+02  0.76864402295E+00 -0.30472727705E+02  0.38865777427E+02  0.51100000000E-03 0.  1.
        -12    1    3    3    0    0 -0.37992727646E+00  0.50608382652E+01 -0.35969547378E+01  0.62204913044E+01  0.00000000000E+00 0.  1.
</event>
<event>
 7    1  0.7596051E-010  0.4778726E+02  0.7816164E-02  0.1312668E+00
        -11   -1    0    0    0    0  0.00000000000E+00  0.00000000000E+00  0.45593999997E+02  0.45594000000E+02  0.51100000000E-03 0.  1.
         11   -1    0    0    0    0 -0.00000000000E+00 -0.00000000000E+00 -0.45593999997E+02  0.45594000000E+02  0.51100000000E-03 0. -1.
    9900012    2    1    2    0    0  0.40993968460E+02  0.85486749761E+01 -0.11403462719E+02  0.47787259731E+02  0.19999948418E+02 0.  0.
         12    1    1    2    0    0 -0.40993968460E+02 -0.85486749761E+01  0.11403462719E+02  0.43400740269E+02  0.00000000000E+00 0. -1.
         11    1    3    3    0    0  0.14724327262E+02  0.88131524052E+01 -0.18387524683E+01  0.17258576985E+02  0.51100000000E-03 0. -1.
        -11    1    3    3    0    0  0.15557653337E+02  0.44603520823E+01 -0.96067938999E+01  0.18820887528E+02  0.51100000000E-03 0.  1.
         12    1    3    3    0    0  0.10711987861E+02 -0.47248295114E+01  0.42083649231E-01  0.11707795218E+02  0.00000000000E+00 0. -1.
</event>
<event>
 7    1  0.7596051E-010  0.4778727E+02  0.7816164E-02  0.1312668E+00
        -11   -1    0    0    0    0  0.00000000000E+00  0.00000000000E+00  0.45593999997E+02  0.45594000000E+02  0.51100000000E-03 0. -1.
         11   -1    0    0    0    0 -0.00000000000E+00 -0.00000000000E+00 -0.45593999997E+02  0.45594000000E+02  0.51100000000E-03 0.  1.
    9900012    2    1    2    0    0 -0.61141386295E+01 -0.23932557454E+02 -0.35685760080E+02  0.47787268785E+02  0.19999989698E+02 0.  0.
         12    1    1    2    0    0  0.61141386295E+01  0.23932557454E+02  0.35685760080E+02  0.43400731215E+02  0.00000000000E+00 0. -1.
         11    1    3    3    0    0  0.25104824686E+01 -0.28201175446E+01 -0.78804071314E+01  0.87382150356E+01  0.51100000000E-03 0. -1.
        -11    1    3    3    0    0 -0.89575516013E+01 -0.11512962207E+02 -0.25165578678E+02  0.29087667144E+02  0.51100000000E-03 0.  1.
         12    1    3    3    0    0  0.33293050319E+00 -0.95994777029E+01 -0.26397742713E+01  0.99613866049E+01  0.00000000000E+00 0. -1.
</event>
<event>
 7    1  0.7596051E-010  0.4778723E+02  0.7816164E-02  0.1312668E+00
        -11   -1    0    0    0    0  0.00000000000E+00  0.00000000000E+00  0.45593999997E+02  0.45594000000E+02  0.51100000000E-03 0.  1.
         11   -1    0    0    0    0 -0.00000000000E+00 -0.00000000000E+00 -0.45593999997E+02  0.45594000000E+02  0.51100000000E-03 0. -1.
    9900012    2    1    2    0    0 -0.18661707996E+02 -0.13682566651E+02  0.36717230606E+02  0.47787228131E+02  0.19999804339E+02 0.  0.
        -12    1    1    2    0    0  0.18661707996E+02  0.13682566651E+02 -0.36717230606E+02  0.43400771869E+02  0.00000000000E+00 0.  1.
         11    1    3    3    0    0 -0.44942217989E+01 -0.34854649965E+01  0.16302870449E+02  0.17266443784E+02  0.51100000000E-03 0. -1.
        -11    1    3    3    0    0  0.19877933570E+01 -0.71914227564E+00  0.74431943169E+01  0.77375467651E+01  0.51100000000E-03 0.  1.
         12    1    3    3    0    0 -0.16155279554E+02 -0.94779593785E+01  0.12971165840E+02  0.22783237582E+02  0.00000000000E+00 0. -1.
</event>
<event>
 7    1  0.7596051E-010  0.4778722E+02  0.7816164E-02  0.1312668E+00
        -11   -1    0    0    0    0  0.00000000000E+00  0.00000000000E+00  0.45593999997E+02  0.45594000000E+02  0.51100000000E-03 0. -1.
         11   -1    0    0    0    0 -0.00000000000E+00 -0.00000000000E+00 -0.45593999997E+02  0.45594000000E+02  0.51100000000E-03 0.  1.
    9900012    2    1    2    0    0  0.13449084296E+02  0.22659786654E+02  0.34485998714E+02  0.47787217670E+02  0.19999756641E+02 0.  0.
        -12    1    1    2    0    0 -0.13449084296E+02 -0.22659786654E+02 -0.34485998714E+02  0.43400782330E+02  0.00000000000E+00 0.  1.
         11    1    3    3    0    0  0.84942521773E+01  0.12173304306E+02  0.10867446971E+02  0.18396822055E+02  0.51100000000E-03 0. -1.
        -11    1    3    3    0    0  0.75611880120E+01  0.96890365422E+00  0.10422353888E+02  0.12912621704E+02  0.51100000000E-03 0.  1.
        -12    1    3    3    0    0 -0.26063558934E+01  0.95175786936E+01  0.13196197855E+02  0.16477773911E+02  0.00000000000E+00 0.  1.
</event>
<event>
 7    1  0.7596051E-010  0.4778727E+02  0.7816164E-02  0.1312668E+00
        -11   -1    0    0    0    0  0.00000000000E+00  0.00000000000E+00  0.45593999997E+02  0.45594000000E+02  0.51100000000E-03 0. -1.
         11   -1    0    0    0    0 -0.00000000000E+00 -0.00000000000E+00 -0.45593999997E+02  0.45594000000E+02  0.51100000000E-03 0.  1.
    9900012    2    1    2    0    0  0.26297566793E+02  0.12197813302E+02 -0.32299759801E+02  0.47787272451E+02  0.20000006413E+02 0.  0.
         12    1    1    2    0    0 -0.26297566793E+02 -0.12197813302E+02  0.32299759801E+02  0.43400727549E+02  0.00000000000E+00 0. -1.
         11    1    3    3    0    0  0.40024000035E+01  0.40636241404E+01 -0.74972011646E+01  0.94202055447E+01  0.51100000000E-03 0. -1.
        -11    1    3    3    0    0  0.22292611973E+02  0.15676008098E+01 -0.21524400016E+02  0.31027692747E+02  0.51100000000E-03 0.  1.
        -12    1    3    3    0    0  0.25548166112E-02  0.65665883518E+01 -0.32781586202E+01  0.73393741591E+01  0.00000000000E+00 0.  1.
</event>
<event>
 7    1  0.7596051E-010  0.4778727E+02  0.7816164E-02  0.1312668E+00
        -11   -1    0    0    0    0  0.00000000000E+00  0.00000000000E+00  0.45593999997E+02  0.45594000000E+02  0.51100000000E-03 0. -1.
         11   -1    0    0    0    0 -0.00000000000E+00 -0.00000000000E+00 -0.45593999997E+02  0.45594000000E+02  0.51100000000E-03 0.  1.
    9900012    2    1    2    0    0  0.28361187361E+02  0.12406525357E+02  0.30419471303E+02  0.47787273575E+02  0.20000011536E+02 0.  0.
        -12    1    1    2    0    0 -0.28361187361E+02 -0.12406525357E+02 -0.30419471303E+02  0.43400726425E+02  0.00000000000E+00 0.  1.
         11    1    3    3    0    0  0.30034657667E+02  0.83171582937E+01  0.26155866030E+02  0.40686424164E+02  0.51100000000E-03 0. -1.
        -11    1    3    3    0    0  0.33911673201E+00  0.21860665440E+01  0.36431092184E+01  0.42621745778E+01  0.51100000000E-03 0.  1.
        -12    1    3    3    0    0 -0.20125870380E+01  0.19033005190E+01  0.62049605407E+00  0.28386748324E+01  0.00000000000E+00 0.  1.
</event>
<event>
 7    1  0.7596051E-010  0.4778727E+02  0.7816164E-02  0.1312668E+00
        -11   -1    0    0    0    0  0.00000000000E+00  0.00000000000E+00  0.45593999997E+02  0.45594000000E+02  0.51100000000E-03 0. -1.
         11   -1    0    0    0    0 -0.00000000000E+00 -0.00000000000E+00 -0.45593999997E+02  0.45594000000E+02  0.51100000000E-03 0.  1.
    9900012    2    1    2    0    0  0.47771949457E+01  0.30553104569E+02  0.30451761648E+02  0.47787267542E+02  0.19999984033E+02 0.  0.
        -12    1    1    2    0    0 -0.47771949457E+01 -0.30553104569E+02 -0.30451761648E+02  0.43400732458E+02  0.00000000000E+00 0.  1.
         11    1    3    3    0    0  0.21296626757E+01  0.23180560254E+02  0.21819218635E+02  0.31905362228E+02  0.51100000000E-03 0. -1.
        -11    1    3    3    0    0 -0.29059965562E+01  0.69368449106E+01  0.34543476988E+01  0.82763005977E+01  0.51100000000E-03 0.  1.
        -12    1    3    3    0    0  0.55535288261E+01  0.43569940496E+00  0.51781953146E+01  0.76056047169E+01  0.00000000000E+00 0.  1.
</event>
<event>
 7    1  0.7596051E-010  0.4778727E+02  0.7816164E-02  0.1312668E+00
        -11   -1    0    0    0    0  0.00000000000E+00  0.00000000000E+00  0.45593999997E+02  0.45594000000E+02  0.51100000000E-03 0.  1.
         11   -1    0    0    0    0 -0.00000000000E+00 -0.00000000000E+00 -0.45593999997E+02  0.45594000000E+02  0.51100000000E-03 0. -1.
    9900012    2    1    2    0    0 -0.42904397251E+01  0.40749410190E+02 -0.14307376655E+02  0.47787270391E+02  0.19999997019E+02 0.  0.
         12    1    1    2    0    0  0.42904397251E+01 -0.40749410190E+02  0.14307376655E+02  0.43400729609E+02  0.00000000000E+00 0. -1.
         11    1    3    3    0    0  0.12246470426E+01  0.42253162698E+01 -0.71780479759E+01  0.84188734973E+01  0.51100000000E-03 0. -1.
        -11    1    3    3    0    0 -0.27218386420E+01  0.72572332432E+01 -0.62476121358E+01  0.99553250876E+01  0.51100000000E-03 0.  1.
        -12    1    3    3    0    0 -0.27932481257E+01  0.29266860677E+02 -0.88171654378E+00  0.29413071806E+02  0.00000000000E+00 0.  1.
</event>
<event>
 7    1  0.7596051E-010  0.4778727E+02  0.7816164E-02  0.1312668E+00
        -11   -1    0    0    0    0  0.00000000000E+00  0.00000000000E+00  0.45593999997E+02  0.45594000000E+02  0.51100000000E-03 0. -1.
         11   -1    0    0    0    0 -0.00000000000E+00 -0.00000000000E+00 -0.45593999997E+02  0.45594000000E+02  0.51100000000E-03 0.  1.
    9900012    2    1    2    0    0 -0.38969422322E+01 -0.24322432394E+02  0.35733129326E+02  0.47787269502E+02  0.19999992968E+02 0.  0.
        -12    1    1    2    0    0  0.38969422322E+01  0.24322432394E+02 -0.35733129326E+02  0.43400730498E+02  0.00000000000E+00 0.  1.
         11    1    3    3    0    0 -0.28599084118E+01  0.18213978675E+01  0.37078423061E+01  0.50244065465E+01  0.51100000000E-03 0.  1.
        -11    1    3    3    0    0 -0.55604262908E+01 -0.10316609921E+02  0.15567314848E+02  0.19485688919E+02  0.51100000000E-03 0. -1.
        -12    1    3    3    0    0  0.45233924704E+01 -0.15827220341E+02  0.16457972172E+02  0.23277174037E+02  0.00000000000E+00 0.  1.
</event>
<event>
 7    1  0.7596051E-010  0.4778727E+02  0.7816164E-02  0.1312668E+00
        -11   -1    0    0    0    0  0.00000000000E+00  0.00000000000E+00  0.45593999997E+02  0.45594000000E+02  0.51100000000E-03 0. -1.
         11   -1    0    0    0    0 -0.00000000000E+00 -0.00000000000E+00 -0.45593999997E+02  0.45594000000E+02  0.51100000000E-03 0.  1.
    9900012    2    1    2    0    0 -0.22545690002E+02  0.25261301871E+02  0.27151091981E+02  0.47787270678E+02  0.19999998331E+02 0.  0.
        -12    1    1    2    0    0  0.22545690002E+02 -0.25261301871E+02 -0.27151091981E+02  0.43400729322E+02  0.00000000000E+00 0.  1.
         11    1    3    3    0    0 -0.20909597903E+02  0.17346014856E+02  0.21874956968E+02  0.34879926297E+02  0.51100000000E-03 0. -1.
        -11    1    3    3    0    0  0.51115179725E+00  0.53802350335E+01  0.72502038218E+01  0.90428790158E+01  0.51100000000E-03 0.  1.
        -12    1    3    3    0    0 -0.21472438962E+01  0.25350519817E+01 -0.19740688090E+01  0.38644653656E+01  0.00000000000E+00 0.  1.
</event>
<event>
 7    1  0.7596051E-010  0.4778727E+02  0.7816164E-02  0.1312668E+00
        -11   -1    0    0    0    0  0.00000000000E+00  0.00000000000E+00  0.45593999997E+02  0.45594000000E+02  0.51100000000E-03 0. -1.
         11   -1    0    0    0    0 -0.00000000000E+00 -0.00000000000E+00 -0.45593999997E+02  0.45594000000E+02  0.51100000000E-03 0.  1.
    9900012    2    1    2    0    0 -0.65049344436E+01  0.61278934428E+01  0.42470672160E+02  0.47787271390E+02  0.20000001574E+02 0.  0.
        -12    1    1    2    0    0  0.65049344436E+01 -0.61278934428E+01 -0.42470672160E+02  0.43400728610E+02  0.00000000000E+00 0.  1.
         11    1    3    3    0    0 -0.19094418957E+01  0.26411575025E+01  0.56406487672E-02  0.32590970197E+01  0.51100000000E-03 0. -1.
        -11    1    3    3    0    0 -0.38999151131E+01  0.17657984006E+01  0.35294408475E+01  0.55483632576E+01  0.51100000000E-03 0.  1.
         12    1    3    3    0    0 -0.69557743480E+00  0.17209375397E+01  0.38935590664E+02  0.38979811112E+02  0.00000000000E+00 0. -1.
</event>
<event>
 7    1  0.8271954E-010  0.4778727E+02  0.7816164E-02  0.1312668E+00
        -11   -1    0    0    0    0  0.00000000000E+00  0.00000000000E+00  0.45593999997E+02  0.45594000000E+02  0.51100000000E-03 0. -1.
         11   -1    0    0    0    0 -0.00000000000E+00 -0.00000000000E+00 -0.45593999997E+02  0.45594000000E+02  0.51100000000E-03 0.  1.
    9900012    2    1    2    0    0 -0.24546792107E+02  0.10981554147E+02  0.34065875646E+02  0.47787269387E+02  0.19999992442E+02 0.  0.
        -12    1    1    2    0    0  0.24546792107E+02 -0.10981554147E+02 -0.34065875646E+02  0.43400730613E+02  0.00000000000E+00 0.  1.
         11    1    3    3    0    0 -0.49727739178E-01  0.28937280036E+01 -0.31819822933E+00  0.29115949205E+01  0.51100000000E-03 0. -1.
        -11    1    3    3    0    0 -0.35802923656E+01  0.66756373307E+01  0.64456947824E+01  0.99463364453E+01  0.51100000000E-03 0.  1.
         12    1    3    3    0    0 -0.20916772002E+02  0.14121888124E+01  0.27938379093E+02  0.34929338021E+02  0.00000000000E+00 0. -1.
</event>
<event>
 7    1  0.7596051E-010  0.4778727E+02  0.7816164E-02  0.1312668E+00
        -11   -1    0    0    0    0  0.00000000000E+00  0.00000000000E+00  0.45593999997E+02  0.45594000000E+02  0.51100000000E-03 0. -1.
         11   -1    0    0    0    0 -0.00000000000E+00 -0.00000000000E+00 -0.45593999997E+02  0.45594000000E+02  0.51100000000E-03 0.  1.
    9900012    2    1    2    0    0 -0.93714647275E+01  0.22370262112E+02 -0.35991252936E+02  0.47787271136E+02  0.20000000415E+02 0.  0.
         12    1    1    2    0    0  0.93714647275E+01 -0.22370262112E+02  0.35991252936E+02  0.43400728864E+02  0.00000000000E+00 0. -1.
         11    1    3    3    0    0 -0.74000990826E+01  0.15472316224E+02 -0.22227081612E+02  0.28074849831E+02  0.51100000000E-03 0. -1.
        -11    1    3    3    0    0  0.22279130800E+01  0.52166543845E+01 -0.14078349084E+02  0.15178174885E+02  0.51100000000E-03 0.  1.
         12    1    3    3    0    0 -0.41992787250E+01  0.16812915026E+01  0.31417776011E+00  0.45342464194E+01  0.00000000000E+00 0. -1.
</event>
<event>
 7    1  0.7855049E-010  0.4778727E+02  0.7816164E-02  0.1312668E+00
        -11   -1    0    0    0    0  0.00000000000E+00  0.00000000000E+00  0.45593999997E+02  0.45594000000E+02  0.51100000000E-03 0. -1.
         11   -1    0    0    0    0 -0.00000000000E+00 -0.00000000000E+00 -0.45593999997E+02  0.45594000000E+02  0.51100000000E-03 0.  1.
    9900012    2    1    2    0    0 -0.14290329629E+02  0.32110448453E+02  0.25462303317E+02  0.47787270617E+02  0.19999998050E+02 0.  0.
        -12    1    1    2    0    0  0.14290329629E+02 -0.32110448453E+02 -0.25462303317E+02  0.43400729383E+02  0.00000000000E+00 0.  1.
         11    1    3    3    0    0 -0.10826924823E+02  0.11240721381E+02  0.13121152833E+02  0.20389722171E+02  0.51100000000E-03 0. -1.
        -11    1    3    3    0    0 -0.42008916574E+01  0.10525721852E+01  0.65634822354E+00  0.43802045813E+01  0.51100000000E-03 0.  1.
         12    1    3    3    0    0  0.73748685214E+00  0.19817154888E+02  0.11684802261E+02  0.23017343864E+02  0.00000000000E+00 0. -1.
</event>
<event>
 7    1  0.7596051E-010  0.4778727E+02  0.7816164E-02  0.1312668E+00
        -11   -1    0    0    0    0  0.00000000000E+00  0.00000000000E+00  0.45593999997E+02  0.45594000000E+02  0.51100000000E-03 0. -1.
         11   -1    0    0    0    0 -0.00000000000E+00 -0.00000000000E+00 -0.45593999997E+02  0.45594000000E+02  0.51100000000E-03 0.  1.
    9900012    2    1    2    0    0 -0.18654248329E+02 -0.21390207156E+02 -0.32834453339E+02  0.47787271101E+02  0.20000000257E+02 0.  0.
         12    1    1    2    0    0  0.18654248329E+02  0.21390207156E+02  0.32834453339E+02  0.43400728899E+02  0.00000000000E+00 0. -1.
         11    1    3    3    0    0  0.36546524259E-01 -0.12214121095E+01 -0.40146740891E+01  0.41965213562E+01  0.51100000000E-03 0.  1.
        -11    1    3    3    0    0 -0.41545623911E+01  0.25958971015E+01 -0.84251997777E+01  0.97459254039E+01  0.51100000000E-03 0. -1.
         12    1    3    3    0    0 -0.14536232463E+02 -0.22764692148E+02 -0.20394579472E+02  0.33844824341E+02  0.00000000000E+00 0. -1.
</event>
<event>
 7    1  0.7596051E-010  0.4778727E+02  0.7816164E-02  0.1312668E+00
        -11   -1    0    0    0    0  0.00000000000E+00  0.00000000000E+00  0.45593999997E+02  0.45594000000E+02  0.51100000000E-03 0. -1.
         11   -1    0    0    0    0 -0.00000000000E+00 -0.00000000000E+00 -0.45593999997E+02  0.45594000000E+02  0.51100000000E-03 0.  1.
    9900012    2    1    2    0    0 -0.25553307177E+02 -0.15862629320E+02 -0.31289437250E+02  0.47787269591E+02  0.19999993375E+02 0.  0.
         12    1    1    2    0    0  0.25553307177E+02  0.15862629320E+02  0.31289437250E+02  0.43400730409E+02  0.00000000000E+00 0. -1.
         11    1    3    3    0    0 -0.34815616765E+01 -0.73888649725E+01 -0.17910886262E+01  0.83620928013E+01  0.51100000000E-03 0. -1.
        -11    1    3    3    0    0 -0.91201304774E+01 -0.90487332638E+01 -0.17876370525E+02  0.22014108590E+02  0.51100000000E-03 0.  1.
        -12    1    3    3    0    0 -0.12951615023E+02  0.57496891633E+00 -0.11621978099E+02  0.17411068200E+02  0.00000000000E+00 0.  1.
</event>
<event>
 7    1  0.7596051E-010  0.4778726E+02  0.7816164E-02  0.1312668E+00
        -11   -1    0    0    0    0  0.00000000000E+00  0.00000000000E+00  0.45593999997E+02  0.45594000000E+02  0.51100000000E-03 0. -1.
         11   -1    0    0    0    0 -0.00000000000E+00 -0.00000000000E+00 -0.45593999997E+02  0.45594000000E+02  0.51100000000E-03 0.  1.
    9900012    2    1    2    0    0 -0.92319457264E+01 -0.15425047857E+01  0.42379428546E+02  0.47787261449E+02  0.19999956249E+02 0.  0.
        -12    1    1    2    0    0  0.92319457264E+01  0.15425047857E+01 -0.42379428546E+02  0.43400738551E+02  0.00000000000E+00 0.  1.
         11    1    3    3    0    0  0.13598001291E+01  0.29450796267E+01  0.26056025619E+01  0.41607349556E+01  0.51100000000E-03 0. -1.
        -11    1    3    3    0    0 -0.85961577715E+01 -0.23950950291E+01  0.88504192465E+01  0.12568226992E+02  0.51100000000E-03 0.  1.
        -12    1    3    3    0    0 -0.19955880841E+01 -0.20924893834E+01  0.30923406738E+02  0.31058299501E+02  0.00000000000E+00 0.  1.
</event>
<event>
 7    1  0.7596051E-010  0.4778727E+02  0.7816164E-02  0.1312668E+00
        -11   -1    0    0    0    0  0.00000000000E+00  0.00000000000E+00  0.45593999997E+02  0.45594000000E+02  0.51100000000E-03 0. -1.
         11   -1    0    0    0    0 -0.00000000000E+00 -0.00000000000E+00 -0.45593999997E+02  0.45594000000E+02  0.51100000000E-03 0.  1.
    9900012    2    1    2    0    0 -0.15141529391E+02  0.24499957025E+02  0.32467051503E+02  0.47787271436E+02  0.20000001786E+02 0.  0.
        -12    1    1    2    0    0  0.15141529391E+02 -0.24499957025E+02 -0.32467051503E+02  0.43400728564E+02  0.00000000000E+00 0.  1.
         11    1    3    3    0    0 -0.63705491045E+01  0.86659443206E+01  0.14071877063E+02  0.17711584096E+02  0.51100000000E-03 0. -1.
        -11    1    3    3    0    0 -0.95594173093E+01  0.32359808684E+01  0.38116174405E+01  0.10788070228E+02  0.51100000000E-03 0.  1.
         12    1    3    3    0    0  0.78843702255E+00  0.12598031836E+02  0.14583557000E+02  0.19287617112E+02  0.00000000000E+00 0. -1.
</event>
<event>
 7    1  0.7596051E-010  0.4778727E+02  0.7816164E-02  0.1312668E+00
        -11   -1    0    0    0    0  0.00000000000E+00  0.00000000000E+00  0.45593999997E+02  0.45594000000E+02  0.51100000000E-03 0. -1.
         11   -1    0    0    0    0 -0.00000000000E+00 -0.00000000000E+00 -0.45593999997E+02  0.45594000000E+02  0.51100000000E-03 0.  1.
    9900012    2    1    2    0    0  0.15090758305E+02  0.36540247781E+02 -0.17908172820E+02  0.47787270192E+02  0.19999996113E+02 0.  0.
         12    1    1    2    0    0 -0.15090758305E+02 -0.36540247781E+02  0.17908172820E+02  0.43400729808E+02  0.00000000000E+00 0. -1.
         11    1    3    3    0    0  0.65882735262E+01  0.19038236199E+02 -0.45800658269E+01  0.20660028772E+02  0.51100000000E-03 0. -1.
        -11    1    3    3    0    0 -0.97722474640E+00  0.13114701894E+02 -0.81104673144E+01  0.15450891699E+02  0.51100000000E-03 0.  1.
         12    1    3    3    0    0  0.94797095252E+01  0.43873096881E+01 -0.52176396791E+01  0.11676349721E+02  0.00000000000E+00 0. -1.
</event>
<event>
 7    1  0.7596051E-010  0.4778727E+02  0.7816164E-02  0.1312668E+00
        -11   -1    0    0    0    0  0.00000000000E+00  0.00000000000E+00  0.45593999997E+02  0.45594000000E+02  0.51100000000E-03 0. -1.
         11   -1    0    0    0    0 -0.00000000000E+00 -0.00000000000E+00 -0.45593999997E+02  0.45594000000E+02  0.51100000000E-03 0.  1.
    9900012    2    1    2    0    0  0.87465523480E+01  0.13676232845E+02 -0.40250242338E+02  0.47787268081E+02  0.19999986490E+02 0.  0.
         12    1    1    2    0    0 -0.87465523480E+01 -0.13676232845E+02  0.40250242338E+02  0.43400731919E+02  0.00000000000E+00 0. -1.
         11    1    3    3    0    0  0.75247856442E+01  0.73955966898E+00 -0.17183565746E+02  0.18773499394E+02  0.51100000000E-03 0. -1.
        -11    1    3    3    0    0  0.17519578871E+01  0.60175024765E+01 -0.20784198254E+02  0.21708583321E+02  0.51100000000E-03 0.  1.
        -12    1    3    3    0    0 -0.53019118329E+00  0.69191706998E+01 -0.22824783375E+01  0.73051853655E+01  0.00000000000E+00 0.  1.
</event>
<event>
 7    1  0.7596051E-010  0.4778728E+02  0.7816164E-02  0.1312668E+00
        -11   -1    0    0    0    0  0.00000000000E+00  0.00000000000E+00  0.45593999997E+02  0.45594000000E+02  0.51100000000E-03 0.  1.
         11   -1    0    0    0    0 -0.00000000000E+00 -0.00000000000E+00 -0.45593999997E+02  0.45594000000E+02  0.51100000000E-03 0. -1.
    9900012    2    1    2    0    0  0.43570511369E+01  0.41866978518E+02 -0.10573322158E+02  0.47787275049E+02  0.20000018256E+02 0.  0.
         12    1    1    2    0    0 -0.43570511369E+01 -0.41866978518E+02  0.10573322158E+02  0.43400724951E+02  0.00000000000E+00 0. -1.
         11    1    3    3    0    0 -0.65502117296E+01  0.14568321618E+02 -0.28342565077E+01  0.16222647092E+02  0.51100000000E-03 0. -1.
        -11    1    3    3    0    0  0.15904223876E+01 -0.25027924762E-01 -0.11248308322E+01  0.19481566749E+01  0.51100000000E-03 0.  1.
        -12    1    3    3    0    0  0.93168404789E+01  0.27323684825E+02 -0.66142348186E+01  0.29616471281E+02  0.00000000000E+00 0.  1.
</event>
<event>
 7    1  0.7596051E-010  0.4778727E+02  0.7816164E-02  0.1312668E+00
        -11   -1    0    0    0    0  0.00000000000E+00  0.00000000000E+00  0.45593999997E+02  0.45594000000E+02  0.51100000000E-03 0. -1.
         11   -1    0    0    0    0 -0.00000000000E+00 -0.00000000000E+00 -0.45593999997E+02  0.45594000000E+02  0.51100000000E-03 0.  1.
    9900012    2    1    2    0    0  0.42190956644E+01 -0.28034434654E+02  0.32861723874E+02  0.47787272004E+02  0.20000004377E+02 0.  0.
        -12    1    1    2    0    0 -0.42190956644E+01  0.28034434654E+02 -0.32861723874E+02  0.43400727996E+02  0.00000000000E+00 0.  1.
         11    1    3    3    0    0 -0.11089987648E+01  0.13540771520E+00  0.21106103710E+01  0.23880724254E+01  0.51100000000E-03 0.  1.
        -11    1    3    3    0    0  0.31041049755E+01 -0.29024390897E+02  0.22626610968E+02  0.36932563664E+02  0.51100000000E-03 0. -1.
         12    1    3    3    0    0  0.22239894536E+01  0.85454852786E+00  0.81245025349E+01  0.84666359150E+01  0.00000000000E+00 0. -1.
</event>
<event>
 7    1  0.7596051E-010  0.4778727E+02  0.7816164E-02  0.1312668E+00
        -11   -1    0    0    0    0  0.00000000000E+00  0.00000000000E+00  0.45593999997E+02  0.45594000000E+02  0.51100000000E-03 0. -1.
         11   -1    0    0    0    0 -0.00000000000E+00 -0.00000000000E+00 -0.45593999997E+02  0.45594000000E+02  0.51100000000E-03 0.  1.
    9900012    2    1    2    0    0  0.13692973683E+02  0.16002646072E+02  0.37947873140E+02  0.47787270911E+02  0.19999999392E+02 0.  0.
        -12    1    1    2    0    0 -0.13692973683E+02 -0.16002646072E+02 -0.37947873140E+02  0.43400729089E+02  0.00000000000E+00 0.  1.
         11    1    3    3    0    0  0.77853197584E+01  0.86131023506E+01  0.24154792009E+02  0.26800199870E+02  0.51100000000E-03 0. -1.
        -11    1    3    3    0    0  0.13144037591E+01  0.57122146906E+01  0.14866864964E+02  0.15980636033E+02  0.51100000000E-03 0.  1.
        -12    1    3    3    0    0  0.45932501658E+01  0.16773290308E+01 -0.10737838328E+01  0.50064350073E+01  0.00000000000E+00 0.  1.
</event>
<event>
 7    1  0.7596051E-010  0.4778727E+02  0.7816164E-02  0.1312668E+00
        -11   -1    0    0    0    0  0.00000000000E+00  0.00000000000E+00  0.45593999997E+02  0.45594000000E+02  0.51100000000E-03 0. -1.
         11   -1    0    0    0    0 -0.00000000000E+00 -0.00000000000E+00 -0.45593999997E+02  0.45594000000E+02  0.51100000000E-03 0.  1.
    9900012    2    1    2    0    0 -0.21055202183E+02 -0.23857251432E+02 -0.29514968894E+02  0.47787269895E+02  0.19999994758E+02 0.  0.
         12    1    1    2    0    0  0.21055202183E+02  0.23857251432E+02  0.29514968894E+02  0.43400730105E+02  0.00000000000E+00 0. -1.
         11    1    3    3    0    0 -0.15292895636E+02 -0.17077922180E+02 -0.14321388833E+02  0.27030173164E+02  0.51100000000E-03 0. -1.
        -11    1    3    3    0    0 -0.25776461090E+01 -0.91079750004E+01 -0.13442327290E+02  0.16440670038E+02  0.51100000000E-03 0.  1.
        -12    1    3    3    0    0 -0.31846604381E+01  0.23286457477E+01 -0.17512527708E+01  0.43164266925E+01  0.00000000000E+00 0.  1.
</event>
<event>
 7    1  0.7596051E-010  0.4778727E+02  0.7816164E-02  0.1312668E+00
        -11   -1    0    0    0    0  0.00000000000E+00  0.00000000000E+00  0.45593999997E+02  0.45594000000E+02  0.51100000000E-03 0. -1.
         11   -1    0    0    0    0 -0.00000000000E+00 -0.00000000000E+00 -0.45593999997E+02  0.45594000000E+02  0.51100000000E-03 0.  1.
    9900012    2    1    2    0    0 -0.29925724127E+02 -0.25723222628E+02 -0.18066266871E+02  0.47787272523E+02  0.20000006742E+02 0.  0.
         12    1    1    2    0    0  0.29925724127E+02  0.25723222628E+02  0.18066266871E+02  0.43400727477E+02  0.00000000000E+00 0. -1.
         11    1    3    3    0    0  0.92326027497E+00 -0.11766586855E+01 -0.11888286828E+01  0.19105625077E+01  0.51100000000E-03 0. -1.
        -11    1    3    3    0    0 -0.23288665305E+02 -0.92508187715E+01 -0.13569355002E+02  0.28496788855E+02  0.51100000000E-03 0.  1.
        -12    1    3    3    0    0 -0.75603190968E+01 -0.15295745171E+02 -0.33080831862E+01  0.17379921161E+02  0.00000000000E+00 0.  1.
</event>
<event>
 7    1  0.7596051E-010  0.4778727E+02  0.7816164E-02  0.1312668E+00
        -11   -1    0    0    0    0  0.00000000000E+00  0.00000000000E+00  0.45593999997E+02  0.45594000000E+02  0.51100000000E-03 0. -1.
         11   -1    0    0    0    0 -0.00000000000E+00 -0.00000000000E+00 -0.45593999997E+02  0.45594000000E+02  0.51100000000E-03 0.  1.
    9900012    2    1    2    0    0  0.23032745864E+02  0.13435192109E+02  0.34243415439E+02  0.47787271089E+02  0.20000000202E+02 0.  0.
        -12    1    1    2    0    0 -0.23032745864E+02 -0.13435192109E+02 -0.34243415439E+02  0.43400728911E+02  0.00000000000E+00 0.  1.
         11    1    3    3    0    0  0.11150694902E+02 -0.67325551296E+00  0.13372006211E+02  0.17424173443E+02  0.51100000000E-03 0. -1.
        -11    1    3    3    0    0  0.72771549148E+01  0.89660707396E+00  0.36987195868E+01  0.82122722033E+01  0.51100000000E-03 0.  1.
         12    1    3    3    0    0  0.46048960476E+01  0.13211840548E+02  0.17172689641E+02  0.22150825443E+02  0.00000000000E+00 0. -1.
</event>
<event>
 7    1  0.7596051E-010  0.4778727E+02  0.7816164E-02  0.1312668E+00
        -11   -1    0    0    0    0  0.00000000000E+00  0.00000000000E+00  0.45593999997E+02  0.45594000000E+02  0.51100000000E-03 0. -1.
         11   -1    0    0    0    0 -0.00000000000E+00 -0.00000000000E+00 -0.45593999997E+02  0.45594000000E+02  0.51100000000E-03 0.  1.
    9900012    2    1    2    0    0  0.20042777461E+02  0.10644044746E+02 -0.36994791700E+02  0.47787271552E+02  0.20000002315E+02 0.  0.
         12    1    1    2    0    0 -0.20042777461E+02 -0.10644044746E+02  0.36994791700E+02  0.43400728448E+02  0.00000000000E+00 0. -1.
         11    1    3    3    0    0  0.34006514934E+01  0.41004539959E+01 -0.41134424595E+01  0.67304206913E+01  0.51100000000E-03 0. -1.
        -11    1    3    3    0    0 -0.23173223330E+01  0.50508086159E+01 -0.69283465639E+01  0.88815897698E+01  0.51100000000E-03 0.  1.
         12    1    3    3    0    0  0.18959448300E+02  0.14927821342E+01 -0.25953002676E+02  0.32175261091E+02  0.00000000000E+00 0. -1.
</event>
<event>
 7    1  0.7596051E-010  0.4778727E+02  0.7816164E-02  0.1312668E+00
        -11   -1    0    0    0    0  0.00000000000E+00  0.00000000000E+00  0.45593999997E+02  0.45594000000E+02  0.51100000000E-03 0. -1.
         11   -1    0    0    0    0 -0.00000000000E+00 -0.00000000000E+00 -0.45593999997E+02  0.45594000000E+02  0.51100000000E-03 0.  1.
    9900012    2    1    2    0    0  0.31844911061E+02  0.17655814086E+02 -0.23617726255E+02  0.47787272760E+02  0.20000007821E+02 0.  0.
         12    1    1    2    0    0 -0.31844911061E+02 -0.17655814086E+02  0.23617726255E+02  0.43400727240E+02  0.00000000000E+00 0. -1.
         11    1    3    3    0    0  0.10980150262E+01  0.66468088793E+01 -0.93637008504E+01  0.11535362983E+02  0.51100000000E-03 0. -1.
        -11    1    3    3    0    0  0.19566765816E+02  0.94455303561E+01 -0.11701717041E+02  0.24678058071E+02  0.51100000000E-03 0.  1.
        -12    1    3    3    0    0  0.11180130219E+02  0.15634748508E+01 -0.25523083637E+01  0.11573851705E+02  0.00000000000E+00 0.  1.
</event>
<event>
 7    1  0.7596051E-010  0.4778728E+02  0.7816164E-02  0.1312668E+00
        -11   -1    0    0    0    0  0.00000000000E+00  0.00000000000E+00  0.45593999997E+02  0.45594000000E+02  0.51100000000E-03 0. -1.
         11   -1    0    0    0    0 -0.00000000000E+00 -0.00000000000E+00 -0.45593999997E+02  0.45594000000E+02  0.51100000000E-03 0.  1.
    9900012    2    1    2    0    0  0.30925951836E+02 -0.12188554271E+02  0.27904248255E+02  0.47787280849E+02  0.20000044701E+02 0.  0.
        -12    1    1    2    0    0 -0.30925951836E+02  0.12188554271E+02 -0.27904248255E+02  0.43400719151E+02  0.00000000000E+00 0.  1.
         11    1    3    3    0    0  0.20581794052E+02 -0.24517529074E+00  0.11889974298E+02  0.23770608877E+02  0.51100000000E-03 0. -1.
        -11    1    3    3    0    0  0.21589704023E+01 -0.26345820554E+01 -0.41980621536E+00  0.34319693070E+01  0.51100000000E-03 0.  1.
        -12    1    3    3    0    0  0.81851873814E+01 -0.93087969246E+01  0.16434080173E+02  0.20584702664E+02  0.00000000000E+00 0.  1.
</event>
<event>
 7    1  0.7596051E-010  0.4778727E+02  0.7816164E-02  0.1312668E+00
        -11   -1    0    0    0    0  0.00000000000E+00  0.00000000000E+00  0.45593999997E+02  0.45594000000E+02  0.51100000000E-03 0.  1.
         11   -1    0    0    0    0 -0.00000000000E+00 -0.00000000000E+00 -0.45593999997E+02  0.45594000000E+02  0.51100000000E-03 0. -1.
    9900012    2    1    2    0    0  0.16877544204E+02 -0.99619110650E+01 -0.38723792352E+02  0.47787271152E+02  0.20000000491E+02 0.  0.
         12    1    1    2    0    0 -0.16877544204E+02  0.99619110650E+01  0.38723792352E+02  0.43400728848E+02  0.00000000000E+00 0. -1.
         11    1    3    3    0    0 -0.25891539801E+01 -0.44279167021E+01 -0.70370650075E+01  0.87080680311E+01  0.51100000000E-03 0. -1.
        -11    1    3    3    0    0  0.11080288694E+02 -0.69000931483E+01 -0.12401240241E+02  0.18004856089E+02  0.51100000000E-03 0.  1.
         12    1    3    3    0    0  0.83864094897E+01  0.13660987853E+01 -0.19285487104E+02  0.21074347033E+02  0.00000000000E+00 0. -1.
</event>
<event>
 7    1  0.7596051E-010  0.4778727E+02  0.7816164E-02  0.1312668E+00
        -11   -1    0    0    0    0  0.00000000000E+00  0.00000000000E+00  0.45593999997E+02  0.45594000000E+02  0.51100000000E-03 0. -1.
         11   -1    0    0    0    0 -0.00000000000E+00 -0.00000000000E+00 -0.45593999997E+02  0.45594000000E+02  0.51100000000E-03 0.  1.
    9900012    2    1    2    0    0 -0.35180718098E+02  0.23562865295E+02  0.95253146113E+01  0.47787272296E+02  0.20000005707E+02 0.  0.
        -12    1    1    2    0    0  0.35180718098E+02 -0.23562865295E+02 -0.95253146113E+01  0.43400727704E+02  0.00000000000E+00 0.  1.
         11    1    3    3    0    0 -0.21863169905E+02  0.96686535654E+01  0.11656194191E+02  0.26596013298E+02  0.51100000000E-03 0. -1.
        -11    1    3    3    0    0 -0.78071376927E+01  0.21794614465E+01 -0.25177081958E+00  0.81095523894E+01  0.51100000000E-03 0.  1.
        -12    1    3    3    0    0 -0.55104105007E+01  0.11714750283E+02 -0.18791087603E+01  0.13081706609E+02  0.00000000000E+00 0.  1.
</event>
<event>
 7    1  0.7596051E-010  0.4778727E+02  0.7816164E-02  0.1312668E+00
        -11   -1    0    0    0    0  0.00000000000E+00  0.00000000000E+00  0.45593999997E+02  0.45594000000E+02  0.51100000000E-03 0. -1.
         11   -1    0    0    0    0 -0.00000000000E+00 -0.00000000000E+00 -0.45593999997E+02  0.45594000000E+02  0.51100000000E-03 0.  1.
    9900012    2    1    2    0    0  0.26766210516E+02  0.28469684555E+02  0.18885718845E+02  0.47787270279E+02  0.19999996508E+02 0.  0.
        -12    1    1    2    0    0 -0.26766210516E+02 -0.28469684555E+02 -0.18885718845E+02  0.43400729721E+02  0.00000000000E+00 0.  1.
         11    1    3    3    0    0  0.71067718449E+01  0.54236610357E+01 -0.46598157696E+00  0.89520636826E+01  0.51100000000E-03 0. -1.
        -11    1    3    3    0    0  0.19282231162E+02  0.12880830791E+02  0.10960530685E+02  0.25648654421E+02  0.51100000000E-03 0.  1.
        -12    1    3    3    0    0  0.37720750922E+00  0.10165192728E+02  0.83911697368E+01  0.13186552175E+02  0.00000000000E+00 0.  1.
</event>
<event>
 7    1  0.7596051E-010  0.4778727E+02  0.7816164E-02  0.1312668E+00
        -11   -1    0    0    0    0  0.00000000000E+00  0.00000000000E+00  0.45593999997E+02  0.45594000000E+02  0.51100000000E-03 0.  1.
         11   -1    0    0    0    0 -0.00000000000E+00 -0.00000000000E+00 -0.45593999997E+02  0.45594000000E+02  0.51100000000E-03 0. -1.
    9900012    2    1    2    0    0  0.38632932705E+02 -0.46647570366E+01 -0.19218735729E+02  0.47787271313E+02  0.20000001222E+02 0.  0.
         12    1    1    2    0    0 -0.38632932705E+02  0.46647570366E+01  0.19218735729E+02  0.43400728687E+02  0.00000000000E+00 0. -1.
         11    1    3    3    0    0  0.14360772318E+02 -0.17857471695E+01 -0.65389474510E+01  0.15880129362E+02  0.51100000000E-03 0.  1.
        -11    1    3    3    0    0  0.71524347121E+01  0.21006636450E+01 -0.11923319594E+02  0.14061851246E+02  0.51100000000E-03 0. -1.
         12    1    3    3    0    0  0.17119725675E+02 -0.49796735120E+01 -0.75646868381E+00  0.17845290705E+02  0.00000000000E+00 0. -1.
</event>
<event>
 7    1  0.7596051E-010  0.4778725E+02  0.7816164E-02  0.1312668E+00
        -11   -1    0    0    0    0  0.00000000000E+00  0.00000000000E+00  0.45593999997E+02  0.45594000000E+02  0.51100000000E-03 0. -1.
         11   -1    0    0    0    0 -0.00000000000E+00 -0.00000000000E+00 -0.45593999997E+02  0.45594000000E+02  0.51100000000E-03 0.  1.
    9900012    2    1    2    0    0 -0.50757300576E+01 -0.29375772252E+02 -0.31542444207E+02  0.47787253260E+02  0.19999918916E+02 0.  0.
         12    1    1    2    0    0  0.50757300576E+01  0.29375772252E+02  0.31542444207E+02  0.43400746740E+02  0.00000000000E+00 0. -1.
         11    1    3    3    0    0 -0.85147596146E+01 -0.12613910759E+02 -0.96023880402E+01  0.17994936295E+02  0.51100000000E-03 0. -1.
        -11    1    3    3    0    0 -0.16951407935E+01  0.51667047423E+00 -0.39323270940E+01  0.43131945613E+01  0.51100000000E-03 0.  1.
        -12    1    3    3    0    0  0.51341703505E+01 -0.17278531967E+02 -0.18007729073E+02  0.25479122404E+02  0.00000000000E+00 0.  1.
</event>
<event>
 7    1  0.7596051E-010  0.4778726E+02  0.7816164E-02  0.1312668E+00
        -11   -1    0    0    0    0  0.00000000000E+00  0.00000000000E+00  0.45593999997E+02  0.45594000000E+02  0.51100000000E-03 0. -1.
         11   -1    0    0    0    0 -0.00000000000E+00 -0.00000000000E+00 -0.45593999997E+02  0.45594000000E+02  0.51100000000E-03 0.  1.
    9900012    2    1    2    0    0 -0.44265910656E+01  0.19404259215E+02 -0.38568172583E+02  0.47787263594E+02  0.19999966032E+02 0.  0.
         12    1    1    2    0    0  0.44265910656E+01 -0.19404259215E+02  0.38568172583E+02  0.43400736406E+02  0.00000000000E+00 0. -1.
         11    1    3    3    0    0  0.41909042470E+01  0.42355947321E+01 -0.14314436090E+01  0.61280479933E+01  0.51100000000E-03 0. -1.
        -11    1    3    3    0    0  0.16721118212E+00  0.37895546802E-02  0.28866715070E+00  0.33362093034E+00  0.51100000000E-03 0.  1.
        -12    1    3    3    0    0 -0.87847064946E+01  0.15164874929E+02 -0.37425396125E+02  0.41325594671E+02  0.00000000000E+00 0.  1.
</event>
<event>
 7    1  0.7596051E-010  0.4778727E+02  0.7816164E-02  0.1312668E+00
        -11   -1    0    0    0    0  0.00000000000E+00  0.00000000000E+00  0.45593999997E+02  0.45594000000E+02  0.51100000000E-03 0. -1.
         11   -1    0    0    0    0 -0.00000000000E+00 -0.00000000000E+00 -0.45593999997E+02  0.45594000000E+02  0.51100000000E-03 0.  1.
    9900012    2    1    2    0    0  0.20674237533E+02  0.12838953628E+02 -0.35935505230E+02  0.47787270006E+02  0.19999995267E+02 0.  0.
         12    1    1    2    0    0 -0.20674237533E+02 -0.12838953628E+02  0.35935505230E+02  0.43400729994E+02  0.00000000000E+00 0. -1.
         11    1    3    3    0    0 -0.29984564357E+01  0.21570204684E+01 -0.38690504600E+01  0.53491148820E+01  0.51100000000E-03 0. -1.
        -11    1    3    3    0    0  0.50514815654E+01 -0.17757019749E+01 -0.71081429966E+01  0.88992292156E+01  0.51100000000E-03 0.  1.
         12    1    3    3    0    0  0.18621212404E+02  0.12457635135E+02 -0.24958311773E+02  0.33538925909E+02  0.00000000000E+00 0. -1.
</event>
<event>
 7    1  0.7596051E-010  0.4778731E+02  0.7816164E-02  0.1312668E+00
        -11   -1    0    0    0    0  0.00000000000E+00  0.00000000000E+00  0.45593999997E+02  0.45594000000E+02  0.51100000000E-03 0. -1.
         11   -1    0    0    0    0 -0.00000000000E+00 -0.00000000000E+00 -0.45593999997E+02  0.45594000000E+02  0.51100000000E-03 0.  1.
    9900012    2    1    2    0    0 -0.35747568200E+02  0.16324811790E+02 -0.18418236384E+02  0.47787314018E+02  0.20000195934E+02 0.  0.
         12    1    1    2    0    0  0.35747568200E+02 -0.16324811790E+02  0.18418236384E+02  0.43400685982E+02  0.00000000000E+00 0. -1.
         11    1    3    3    0    0 -0.67767008510E+01 -0.65146469452E+00  0.20730877056E+01  0.71165844033E+01  0.51100000000E-03 0.  1.
        -11    1    3    3    0    0 -0.14223069440E+01 -0.14161442841E+01 -0.11379548644E+01  0.23072414722E+01  0.51100000000E-03 0. -1.
        -12    1    3    3    0    0 -0.27548560405E+02  0.18392420769E+02 -0.19353369225E+02  0.38363488143E+02  0.00000000000E+00 0.  1.
</event>
<event>
 7    1  0.7596051E-010  0.4778727E+02  0.7816164E-02  0.1312668E+00
        -11   -1    0    0    0    0  0.00000000000E+00  0.00000000000E+00  0.45593999997E+02  0.45594000000E+02  0.51100000000E-03 0. -1.
         11   -1    0    0    0    0 -0.00000000000E+00 -0.00000000000E+00 -0.45593999997E+02  0.45594000000E+02  0.51100000000E-03 0.  1.
    9900012    2    1    2    0    0 -0.14333578289E+02 -0.17883847211E+02 -0.36855660279E+02  0.47787272446E+02  0.20000006390E+02 0.  0.
         12    1    1    2    0    0  0.14333578289E+02  0.17883847211E+02  0.36855660279E+02  0.43400727554E+02  0.00000000000E+00 0. -1.
         11    1    3    3    0    0 -0.56565270244E+01 -0.36667082422E+00 -0.50262449475E+01  0.75758751313E+01  0.51100000000E-03 0. -1.
        -11    1    3    3    0    0 -0.98314300995E+00 -0.73643333931E+01 -0.18777277387E+01  0.76632785558E+01  0.51100000000E-03 0.  1.
        -12    1    3    3    0    0 -0.76939082548E+01 -0.10152842994E+02 -0.29951687593E+02  0.32548118759E+02  0.00000000000E+00 0.  1.
</event>
<event>
 7    1  0.7596051E-010  0.4778727E+02  0.7816164E-02  0.1312668E+00
        -11   -1    0    0    0    0  0.00000000000E+00  0.00000000000E+00  0.45593999997E+02  0.45594000000E+02  0.51100000000E-03 0. -1.
         11   -1    0    0    0    0 -0.00000000000E+00 -0.00000000000E+00 -0.45593999997E+02  0.45594000000E+02  0.51100000000E-03 0.  1.
    9900012    2    1    2    0    0  0.15686490521E+02 -0.12990098504E+02 -0.38325120305E+02  0.47787268550E+02  0.19999988628E+02 0.  0.
         12    1    1    2    0    0 -0.15686490521E+02  0.12990098504E+02  0.38325120305E+02  0.43400731450E+02  0.00000000000E+00 0. -1.
         11    1    3    3    0    0  0.85120602859E+01 -0.12592541142E+02 -0.16543484046E+02  0.22465843571E+02  0.51100000000E-03 0. -1.
        -11    1    3    3    0    0 -0.40827029337E+00 -0.43368642474E+01 -0.68526642059E+01  0.81199804872E+01  0.51100000000E-03 0.  1.
        -12    1    3    3    0    0  0.75827005282E+01  0.39393068859E+01 -0.14928972053E+02  0.17201444492E+02  0.00000000000E+00 0.  1.
</event>
<event>
 7    1  0.7596051E-010  0.4778727E+02  0.7816164E-02  0.1312668E+00
        -11   -1    0    0    0    0  0.00000000000E+00  0.00000000000E+00  0.45593999997E+02  0.45594000000E+02  0.51100000000E-03 0.  1.
         11   -1    0    0    0    0 -0.00000000000E+00 -0.00000000000E+00 -0.45593999997E+02  0.45594000000E+02  0.51100000000E-03 0. -1.
    9900012    2    1    2    0    0 -0.33793914616E+02  0.26148327580E+02  0.76065410852E+01  0.47787272268E+02  0.20000005581E+02 0.  0.
        -12    1    1    2    0    0  0.33793914616E+02 -0.26148327580E+02 -0.76065410852E+01  0.43400727732E+02  0.00000000000E+00 0.  1.
         11    1    3    3    0    0 -0.22275453468E+02  0.15185287918E+02  0.76954195042E+01  0.28035839170E+02  0.51100000000E-03 0. -1.
        -11    1    3    3    0    0 -0.61800017596E+01 -0.83764297218E+00  0.21712773776E+01  0.66036742204E+01  0.51100000000E-03 0.  1.
         12    1    3    3    0    0 -0.53384593889E+01  0.11800682635E+02 -0.22601557965E+01  0.13147758878E+02  0.00000000000E+00 0. -1.
</event>
<event>
 7    1  0.7596051E-010  0.4778727E+02  0.7816164E-02  0.1312668E+00
        -11   -1    0    0    0    0  0.00000000000E+00  0.00000000000E+00  0.45593999997E+02  0.45594000000E+02  0.51100000000E-03 0.  1.
         11   -1    0    0    0    0 -0.00000000000E+00 -0.00000000000E+00 -0.45593999997E+02  0.45594000000E+02  0.51100000000E-03 0. -1.
    9900012    2    1    2    0    0 -0.18282106669E+02  0.38306418050E+02 -0.90557132045E+01  0.47787273857E+02  0.20000012824E+02 0.  0.
         12    1    1    2    0    0  0.18282106669E+02 -0.38306418050E+02  0.90557132045E+01  0.43400726143E+02  0.00000000000E+00 0. -1.
         11    1    3    3    0    0 -0.18698993014E+01  0.24369885109E+01  0.18578924944E+01  0.35898748142E+01  0.51100000000E-03 0. -1.
        -11    1    3    3    0    0 -0.22556926647E+01  0.17053991513E+02 -0.11415801690E+02  0.20645757540E+02  0.51100000000E-03 0.  1.
        -12    1    3    3    0    0 -0.14156514703E+02  0.18815438027E+02  0.50219599155E+00  0.23551641503E+02  0.00000000000E+00 0.  1.
</event>
<event>
 7    1  0.7596051E-010  0.4778727E+02  0.7816164E-02  0.1312668E+00
        -11   -1    0    0    0    0  0.00000000000E+00  0.00000000000E+00  0.45593999997E+02  0.45594000000E+02  0.51100000000E-03 0. -1.
         11   -1    0    0    0    0 -0.00000000000E+00 -0.00000000000E+00 -0.45593999997E+02  0.45594000000E+02  0.51100000000E-03 0.  1.
    9900012    2    1    2    0    0 -0.23088976496E+01 -0.12340579014E+02 -0.41545183356E+02  0.47787272369E+02  0.20000006041E+02 0.  0.
         12    1    1    2    0    0  0.23088976496E+01  0.12340579014E+02  0.41545183356E+02  0.43400727631E+02  0.00000000000E+00 0. -1.
         11    1    3    3    0    0  0.57046288231E+01 -0.26667055764E+01 -0.44588254991E+01  0.77159078359E+01  0.51100000000E-03 0. -1.
        -11    1    3    3    0    0 -0.15507629067E+00 -0.96210253805E+00 -0.15263814138E+02  0.15294891704E+02  0.51100000000E-03 0.  1.
        -12    1    3    3    0    0 -0.78584501820E+01 -0.87117709000E+01 -0.21822543720E+02  0.24776472829E+02  0.00000000000E+00 0.  1.
</event>
<event>
 7    1  0.7596051E-010  0.4778727E+02  0.7816164E-02  0.1312668E+00
        -11   -1    0    0    0    0  0.00000000000E+00  0.00000000000E+00  0.45593999997E+02  0.45594000000E+02  0.51100000000E-03 0. -1.
         11   -1    0    0    0    0 -0.00000000000E+00 -0.00000000000E+00 -0.45593999997E+02  0.45594000000E+02  0.51100000000E-03 0.  1.
    9900012    2    1    2    0    0 -0.11404890196E+02  0.54672707429E+01 -0.41516994735E+02  0.47787269343E+02  0.19999992243E+02 0.  0.
         12    1    1    2    0    0  0.11404890196E+02 -0.54672707429E+01  0.41516994735E+02  0.43400730657E+02  0.00000000000E+00 0. -1.
         11    1    3    3    0    0 -0.75660222305E+01 -0.14795584577E+01 -0.11167735598E+02  0.13570265446E+02  0.51100000000E-03 0. -1.
        -11    1    3    3    0    0 -0.30555799384E+01 -0.21072908928E+01 -0.15580002480E+01  0.40254948393E+01  0.51100000000E-03 0.  1.
        -12    1    3    3    0    0 -0.78328802709E+00  0.90541200934E+01 -0.28791258889E+02  0.30191509058E+02  0.00000000000E+00 0.  1.
</event>
<event>
 7    1  0.7596051E-010  0.4778727E+02  0.7816164E-02  0.1312668E+00
        -11   -1    0    0    0    0  0.00000000000E+00  0.00000000000E+00  0.45593999997E+02  0.45594000000E+02  0.51100000000E-03 0. -1.
         11   -1    0    0    0    0 -0.00000000000E+00 -0.00000000000E+00 -0.45593999997E+02  0.45594000000E+02  0.51100000000E-03 0.  1.
    9900012    2    1    2    0    0 -0.25446265676E+01 -0.14225893520E+02 -0.40923975478E+02  0.47787274894E+02  0.20000017552E+02 0.  0.
         12    1    1    2    0    0  0.25446265676E+01  0.14225893520E+02  0.40923975478E+02  0.43400725106E+02  0.00000000000E+00 0. -1.
         11    1    3    3    0    0 -0.90543266019E+01 -0.58944875914E+01 -0.29780375564E+02  0.31679592535E+02  0.51100000000E-03 0. -1.
        -11    1    3    3    0    0  0.18422641192E+01 -0.77979101778E-01 -0.33911877643E+01  0.38600741624E+01  0.51100000000E-03 0.  1.
         12    1    3    3    0    0  0.46674359150E+01 -0.82534268267E+01 -0.77524121495E+01  0.12247608197E+02  0.00000000000E+00 0. -1.
</event>
<event>
 7    1  0.7596051E-010  0.4778727E+02  0.7816164E-02  0.1312668E+00
        -11   -1    0    0    0    0  0.00000000000E+00  0.00000000000E+00  0.45593999997E+02  0.45594000000E+02  0.51100000000E-03 0.  1.
         11   -1    0    0    0    0 -0.00000000000E+00 -0.00000000000E+00 -0.45593999997E+02  0.45594000000E+02  0.51100000000E-03 0. -1.
    9900012    2    1    2    0    0  0.15993163482E+02  0.17334648480E+02 -0.36432837650E+02  0.47787274485E+02  0.20000015685E+02 0.  0.
         12    1    1    2    0    0 -0.15993163482E+02 -0.17334648480E+02  0.36432837650E+02  0.43400725515E+02  0.00000000000E+00 0. -1.
         11    1    3    3    0    0  0.66178808949E+01  0.10488398174E+02 -0.16126917156E+02  0.20344048295E+02  0.51100000000E-03 0. -1.
        -11    1    3    3    0    0  0.28758261455E+01  0.10358471877E+02 -0.94579985355E+01  0.14318591139E+02  0.51100000000E-03 0.  1.
         12    1    3    3    0    0  0.64994564415E+01 -0.35122215718E+01 -0.10847921958E+02  0.13124635051E+02  0.00000000000E+00 0. -1.
</event>
<event>
 7    1  0.7596051E-010  0.4778728E+02  0.7816164E-02  0.1312668E+00
        -11   -1    0    0    0    0  0.00000000000E+00  0.00000000000E+00  0.45593999997E+02  0.45594000000E+02  0.51100000000E-03 0.  1.
         11   -1    0    0    0    0 -0.00000000000E+00 -0.00000000000E+00 -0.45593999997E+02  0.45594000000E+02  0.51100000000E-03 0. -1.
    9900012    2    1    2    0    0  0.16162109544E+02 -0.40272525296E+02  0.72946505675E+00  0.47787283440E+02  0.20000056517E+02 0.  0.
        -12    1    1    2    0    0 -0.16162109544E+02  0.40272525296E+02 -0.72946505675E+00  0.43400716560E+02  0.00000000000E+00 0.  1.
         11    1    3    3    0    0  0.52020192468E+01 -0.14549406150E+02 -0.56513127959E+01  0.16452463649E+02  0.51100000000E-03 0. -1.
        -11    1    3    3    0    0  0.97649406986E+01 -0.22152408167E+02  0.33396904060E+00  0.24211459891E+02  0.51100000000E-03 0.  1.
        -12    1    3    3    0    0  0.11951495982E+01 -0.35707109791E+01  0.60468088120E+01  0.71233599002E+01  0.00000000000E+00 0.  1.
</event>
<event>
 7    1  0.7596051E-010  0.4778727E+02  0.7816164E-02  0.1312668E+00
        -11   -1    0    0    0    0  0.00000000000E+00  0.00000000000E+00  0.45593999997E+02  0.45594000000E+02  0.51100000000E-03 0. -1.
         11   -1    0    0    0    0 -0.00000000000E+00 -0.00000000000E+00 -0.45593999997E+02  0.45594000000E+02  0.51100000000E-03 0.  1.
    9900012    2    1    2    0    0  0.19800542657E+01 -0.38987620496E+02  0.18964916219E+02  0.47787271734E+02  0.20000003144E+02 0.  0.
        -12    1    1    2    0    0 -0.19800542657E+01  0.38987620496E+02 -0.18964916219E+02  0.43400728266E+02  0.00000000000E+00 0.  1.
         11    1    3    3    0    0 -0.35910904609E+01 -0.19937538313E+02  0.98153539914E+01  0.22510942648E+02  0.51100000000E-03 0.  1.
        -11    1    3    3    0    0  0.14222950369E+01 -0.63309274660E+01  0.99443029880E+01  0.11874035874E+02  0.51100000000E-03 0. -1.
        -12    1    3    3    0    0  0.41488496898E+01 -0.12719154717E+02 -0.79474076020E+00  0.13402293212E+02  0.00000000000E+00 0.  1.
</event>
<event>
 7    1  0.7596051E-010  0.4778727E+02  0.7816164E-02  0.1312668E+00
        -11   -1    0    0    0    0  0.00000000000E+00  0.00000000000E+00  0.45593999997E+02  0.45594000000E+02  0.51100000000E-03 0. -1.
         11   -1    0    0    0    0 -0.00000000000E+00 -0.00000000000E+00 -0.45593999997E+02  0.45594000000E+02  0.51100000000E-03 0.  1.
    9900012    2    1    2    0    0  0.27440108616E+01  0.80777577043E+01  0.42554006805E+02  0.47787271201E+02  0.20000000712E+02 0.  0.
        -12    1    1    2    0    0 -0.27440108616E+01 -0.80777577043E+01 -0.42554006805E+02  0.43400728799E+02  0.00000000000E+00 0.  1.
         11    1    3    3    0    0  0.77114690155E+00  0.58063971539E+01  0.31572142470E+01  0.66540902846E+01  0.51100000000E-03 0. -1.
        -11    1    3    3    0    0  0.48258957627E+01 -0.11716222548E+01  0.79749162527E+01  0.93947463042E+01  0.51100000000E-03 0.  1.
        -12    1    3    3    0    0 -0.28530318026E+01  0.34429828052E+01  0.31421876305E+02  0.31738434612E+02  0.00000000000E+00 0.  1.
</event>
<event>
 7    1  0.7596051E-010  0.4778727E+02  0.7816164E-02  0.1312668E+00
        -11   -1    0    0    0    0  0.00000000000E+00  0.00000000000E+00  0.45593999997E+02  0.45594000000E+02  0.51100000000E-03 0. -1.
         11   -1    0    0    0    0 -0.00000000000E+00 -0.00000000000E+00 -0.45593999997E+02  0.45594000000E+02  0.51100000000E-03 0.  1.
    9900012    2    1    2    0    0  0.65132008985E+01 -0.13439124891E+02  0.40750352873E+02  0.47787272782E+02  0.20000007923E+02 0.  0.
        -12    1    1    2    0    0 -0.65132008985E+01  0.13439124891E+02 -0.40750352873E+02  0.43400727218E+02  0.00000000000E+00 0.  1.
         11    1    3    3    0    0  0.26329017469E-01  0.25480896093E+01  0.10392826770E+02  0.10700668316E+02  0.51100000000E-03 0. -1.
        -11    1    3    3    0    0 -0.25197141394E+01 -0.54890442755E+01  0.37801386989E+01  0.71251677346E+01  0.51100000000E-03 0.  1.
        -12    1    3    3    0    0  0.90065860204E+01 -0.10498170225E+02  0.26577387404E+02  0.29961436731E+02  0.00000000000E+00 0.  1.
</event>
<event>
 7    1  0.7596051E-010  0.4778730E+02  0.7816164E-02  0.1312668E+00
        -11   -1    0    0    0    0  0.00000000000E+00  0.00000000000E+00  0.45593999997E+02  0.45594000000E+02  0.51100000000E-03 0. -1.
         11   -1    0    0    0    0 -0.00000000000E+00 -0.00000000000E+00 -0.45593999997E+02  0.45594000000E+02  0.51100000000E-03 0.  1.
    9900012    2    1    2    0    0  0.22460579202E+02 -0.72588505862E+01 -0.36420497692E+02  0.47787295143E+02  0.20000109875E+02 0.  0.
         12    1    1    2    0    0 -0.22460579202E+02  0.72588505862E+01  0.36420497692E+02  0.43400704857E+02  0.00000000000E+00 0. -1.
         11    1    3    3    0    0  0.10506989349E+02 -0.92731949846E+01 -0.10687848229E+02  0.17624388512E+02  0.51100000000E-03 0. -1.
        -11    1    3    3    0    0  0.22287410496E+00 -0.24758772414E+01 -0.83822615236E+01  0.87431086858E+01  0.51100000000E-03 0.  1.
        -12    1    3    3    0    0  0.11730715748E+02  0.44902216399E+01 -0.17350387940E+02  0.21419797945E+02  0.00000000000E+00 0.  1.
</event>
<event>
 7    1  0.7596051E-010  0.4778727E+02  0.7816164E-02  0.1312668E+00
        -11   -1    0    0    0    0  0.00000000000E+00  0.00000000000E+00  0.45593999997E+02  0.45594000000E+02  0.51100000000E-03 0.  1.
         11   -1    0    0    0    0 -0.00000000000E+00 -0.00000000000E+00 -0.45593999997E+02  0.45594000000E+02  0.51100000000E-03 0. -1.
    9900012    2    1    2    0    0  0.41450893006E+02 -0.37264974712E+00  0.12857224179E+02  0.47787267144E+02  0.19999982218E+02 0.  0.
        -12    1    1    2    0    0 -0.41450893006E+02  0.37264974712E+00 -0.12857224179E+02  0.43400732856E+02  0.00000000000E+00 0.  1.
         11    1    3    3    0    0  0.55716917626E+01  0.40134919375E+01  0.41332996016E+01  0.80147384541E+01  0.51100000000E-03 0. -1.
        -11    1    3    3    0    0  0.15718251168E+01  0.15695552976E+01 -0.23498646967E+01  0.32335742428E+01  0.51100000000E-03 0.  1.
        -12    1    3    3    0    0  0.34307376126E+02 -0.59556969822E+01  0.11073789274E+02  0.36538954447E+02  0.00000000000E+00 0.  1.
</event>
<event>
 7    1  0.7596051E-010  0.4778727E+02  0.7816164E-02  0.1312668E+00
        -11   -1    0    0    0    0  0.00000000000E+00  0.00000000000E+00  0.45593999997E+02  0.45594000000E+02  0.51100000000E-03 0. -1.
         11   -1    0    0    0    0 -0.00000000000E+00 -0.00000000000E+00 -0.45593999997E+02  0.45594000000E+02  0.51100000000E-03 0.  1.
    9900012    2    1    2    0    0  0.12507708209E+02  0.38390456541E+02 -0.15917078589E+02  0.47787270641E+02  0.19999998161E+02 0.  0.
         12    1    1    2    0    0 -0.12507708209E+02 -0.38390456541E+02  0.15917078589E+02  0.43400729359E+02  0.00000000000E+00 0. -1.
         11    1    3    3    0    0  0.70397558428E+01  0.22741186279E+02 -0.10280010027E+01  0.23828061231E+02  0.51100000000E-03 0.  1.
        -11    1    3    3    0    0 -0.52391326989E+00 -0.83554693227E+00 -0.55499619353E-01  0.98777743407E+00  0.51100000000E-03 0. -1.
        -12    1    3    3    0    0  0.59918656362E+01  0.16484817194E+02 -0.14833577967E+02  0.22971431976E+02  0.00000000000E+00 0.  1.
</event>
<event>
 7    1  0.7596051E-010  0.4778727E+02  0.7816164E-02  0.1312668E+00
        -11   -1    0    0    0    0  0.00000000000E+00  0.00000000000E+00  0.45593999997E+02  0.45594000000E+02  0.51100000000E-03 0. -1.
         11   -1    0    0    0    0 -0.00000000000E+00 -0.00000000000E+00 -0.45593999997E+02  0.45594000000E+02  0.51100000000E-03 0.  1.
    9900012    2    1    2    0    0  0.14081222453E+02 -0.11910285499E+02 -0.39287243120E+02  0.47787271914E+02  0.20000003965E+02 0.  0.
         12    1    1    2    0    0 -0.14081222453E+02  0.11910285499E+02  0.39287243120E+02  0.43400728086E+02  0.00000000000E+00 0. -1.
         11    1    3    3    0    0  0.48067838233E+01  0.19344402226E+01 -0.10149627918E+02  0.11395708703E+02  0.51100000000E-03 0. -1.
        -11    1    3    3    0    0  0.62207144388E+01 -0.10134889823E+01 -0.27205163957E+01  0.68648130176E+01  0.51100000000E-03 0.  1.
        -12    1    3    3    0    0  0.30537241908E+01 -0.12831236739E+02 -0.26417098806E+02  0.29526750194E+02  0.00000000000E+00 0.  1.
</event>
<event>
 7    1  0.7596051E-010  0.4778727E+02  0.7816164E-02  0.1312668E+00
        -11   -1    0    0    0    0  0.00000000000E+00  0.00000000000E+00  0.45593999997E+02  0.45594000000E+02  0.51100000000E-03 0. -1.
         11   -1    0    0    0    0 -0.00000000000E+00 -0.00000000000E+00 -0.45593999997E+02  0.45594000000E+02  0.51100000000E-03 0.  1.
    9900012    2    1    2    0    0  0.34576370131E+02 -0.89953265809E+01 -0.24641058313E+02  0.47787273895E+02  0.20000012995E+02 0.  0.
         12    1    1    2    0    0 -0.34576370131E+02  0.89953265809E+01  0.24641058313E+02  0.43400726105E+02  0.00000000000E+00 0. -1.
         11    1    3    3    0    0  0.15117925321E+02 -0.35307202848E+00 -0.40163061257E+01  0.15646310780E+02  0.51100000000E-03 0. -1.
        -11    1    3    3    0    0  0.17700456249E+01 -0.35799953433E+01  0.61478483242E+00  0.40407163750E+01  0.51100000000E-03 0.  1.
        -12    1    3    3    0    0  0.17688399185E+02 -0.50622592092E+01 -0.21239537020E+02  0.28100246740E+02  0.00000000000E+00 0.  1.
</event>
<event>
 7    1  0.7596051E-010  0.4778728E+02  0.7816164E-02  0.1312668E+00
        -11   -1    0    0    0    0  0.00000000000E+00  0.00000000000E+00  0.45593999997E+02  0.45594000000E+02  0.51100000000E-03 0. -1.
         11   -1    0    0    0    0 -0.00000000000E+00 -0.00000000000E+00 -0.45593999997E+02  0.45594000000E+02  0.51100000000E-03 0.  1.
    9900012    2    1    2    0    0  0.14470117067E-01 -0.13563164654E+02  0.41226966882E+02  0.47787280615E+02  0.20000043636E+02 0.  0.
        -12    1    1    2    0    0 -0.14470117067E-01  0.13563164654E+02 -0.41226966882E+02  0.43400719385E+02  0.00000000000E+00 0.  1.
         11    1    3    3    0    0  0.43839659531E+01 -0.12294390449E+02  0.18773058670E+02  0.22864796655E+02  0.51100000000E-03 0. -1.
        -11    1    3    3    0    0  0.29627732673E+01  0.41718630296E+00  0.92939512379E+01  0.97636878134E+01  0.51100000000E-03 0.  1.
         12    1    3    3    0    0 -0.73322691033E+01 -0.16859605080E+01  0.13159956974E+02  0.15158796146E+02  0.00000000000E+00 0. -1.
</event>
<event>
 7    1  0.7596051E-010  0.4778727E+02  0.7816164E-02  0.1312668E+00
        -11   -1    0    0    0    0  0.00000000000E+00  0.00000000000E+00  0.45593999997E+02  0.45594000000E+02  0.51100000000E-03 0. -1.
         11   -1    0    0    0    0 -0.00000000000E+00 -0.00000000000E+00 -0.45593999997E+02  0.45594000000E+02  0.51100000000E-03 0.  1.
    9900012    2    1    2    0    0  0.19388557794E+02 -0.37909105094E+02  0.84027878948E+01  0.47787271126E+02  0.20000000373E+02 0.  0.
         12    1    1    2    0    0 -0.19388557794E+02  0.37909105094E+02 -0.84027878948E+01  0.43400728874E+02  0.00000000000E+00 0. -1.
         11    1    3    3    0    0  0.79486407708E+01 -0.66690785913E+01 -0.76300525428E+00  0.10403829902E+02  0.51100000000E-03 0.  1.
        -11    1    3    3    0    0  0.99981028385E+01 -0.76046160035E+01  0.33385380558E+01  0.12997618303E+02  0.51100000000E-03 0. -1.
        -12    1    3    3    0    0  0.14418141843E+01 -0.23635410500E+02  0.58272550933E+01  0.24385822921E+02  0.00000000000E+00 0.  1.
</event>
<event>
 7    1  0.7596051E-010  0.4778727E+02  0.7816164E-02  0.1312668E+00
        -11   -1    0    0    0    0  0.00000000000E+00  0.00000000000E+00  0.45593999997E+02  0.45594000000E+02  0.51100000000E-03 0. -1.
         11   -1    0    0    0    0 -0.00000000000E+00 -0.00000000000E+00 -0.45593999997E+02  0.45594000000E+02  0.51100000000E-03 0.  1.
    9900012    2    1    2    0    0  0.18072696264E+01  0.32537657430E+01 -0.43240838980E+02  0.47787269929E+02  0.19999994915E+02 0.  0.
         12    1    1    2    0    0 -0.18072696264E+01 -0.32537657430E+01  0.43240838980E+02  0.43400730071E+02  0.00000000000E+00 0. -1.
         11    1    3    3    0    0  0.17645948562E+01 -0.61142718446E+00 -0.10715038564E+02  0.10876566089E+02  0.51100000000E-03 0. -1.
        -11    1    3    3    0    0 -0.38182380693E+01  0.47054074633E+01 -0.32395401972E+02  0.32957273409E+02  0.51100000000E-03 0.  1.
         12    1    3    3    0    0  0.38609128395E+01 -0.84021453580E+00 -0.13039844377E+00  0.39534304312E+01  0.00000000000E+00 0. -1.
</event>
<event>
 7    1  0.7596051E-010  0.4778727E+02  0.7816164E-02  0.1312668E+00
        -11   -1    0    0    0    0  0.00000000000E+00  0.00000000000E+00  0.45593999997E+02  0.45594000000E+02  0.51100000000E-03 0. -1.
         11   -1    0    0    0    0 -0.00000000000E+00 -0.00000000000E+00 -0.45593999997E+02  0.45594000000E+02  0.51100000000E-03 0.  1.
    9900012    2    1    2    0    0  0.11635864729E+02 -0.17495186312E+02  0.37975628497E+02  0.47787271299E+02  0.20000001159E+02 0.  0.
        -12    1    1    2    0    0 -0.11635864729E+02  0.17495186312E+02 -0.37975628497E+02  0.43400728701E+02  0.00000000000E+00 0.  1.
         11    1    3    3    0    0  0.11995811737E+02 -0.20581825473E+02  0.29706272895E+02  0.38078520042E+02  0.51100000000E-03 0. -1.
        -11    1    3    3    0    0 -0.15563747049E+01 -0.96407782981E-01  0.16701164580E+01  0.22849258034E+01  0.51100000000E-03 0.  1.
         12    1    3    3    0    0  0.11964276970E+01  0.31830469436E+01  0.65992391440E+01  0.74238254532E+01  0.00000000000E+00 0. -1.
</event>
<event>
 7    1  0.7596051E-010  0.4778727E+02  0.7816164E-02  0.1312668E+00
        -11   -1    0    0    0    0  0.00000000000E+00  0.00000000000E+00  0.45593999997E+02  0.45594000000E+02  0.51100000000E-03 0. -1.
         11   -1    0    0    0    0 -0.00000000000E+00 -0.00000000000E+00 -0.45593999997E+02  0.45594000000E+02  0.51100000000E-03 0.  1.
    9900012    2    1    2    0    0  0.17693935589E+02 -0.28123831563E+02 -0.27921287811E+02  0.47787267616E+02  0.19999984369E+02 0.  0.
         12    1    1    2    0    0 -0.17693935589E+02  0.28123831563E+02  0.27921287811E+02  0.43400732384E+02  0.00000000000E+00 0. -1.
         11    1    3    3    0    0 -0.10523770109E+01 -0.20190510397E+01 -0.43881429128E+00  0.23187545617E+01  0.51100000000E-03 0. -1.
        -11    1    3    3    0    0  0.25223833977E+01 -0.12641171149E+02 -0.18509216201E+02  0.22555547225E+02  0.51100000000E-03 0.  1.
         12    1    3    3    0    0  0.16223929203E+02 -0.13463609374E+02 -0.89732573195E+01  0.22912965829E+02  0.00000000000E+00 0. -1.
</event>
<event>
 7    1  0.7596051E-010  0.4778727E+02  0.7816164E-02  0.1312668E+00
        -11   -1    0    0    0    0  0.00000000000E+00  0.00000000000E+00  0.45593999997E+02  0.45594000000E+02  0.51100000000E-03 0. -1.
         11   -1    0    0    0    0 -0.00000000000E+00 -0.00000000000E+00 -0.45593999997E+02  0.45594000000E+02  0.51100000000E-03 0.  1.
    9900012    2    1    2    0    0  0.20105785135E+02 -0.19924839162E+02 -0.32899564472E+02  0.47787272426E+02  0.20000006297E+02 0.  0.
         12    1    1    2    0    0 -0.20105785135E+02  0.19924839162E+02  0.32899564472E+02  0.43400727574E+02  0.00000000000E+00 0. -1.
         11    1    3    3    0    0  0.37113194552E+01 -0.49122548337E+01 -0.16367202436E+02  0.17486836635E+02  0.51100000000E-03 0.  1.
        -11    1    3    3    0    0  0.45823426962E+01 -0.23346026818E+01  0.14345510031E+01  0.53391170721E+01  0.51100000000E-03 0. -1.
         12    1    3    3    0    0  0.11812122984E+02 -0.12677981646E+02 -0.17966913039E+02  0.24961318718E+02  0.00000000000E+00 0. -1.
</event>
<event>
 7    1  0.7596051E-010  0.4778727E+02  0.7816164E-02  0.1312668E+00
        -11   -1    0    0    0    0  0.00000000000E+00  0.00000000000E+00  0.45593999997E+02  0.45594000000E+02  0.51100000000E-03 0. -1.
         11   -1    0    0    0    0 -0.00000000000E+00 -0.00000000000E+00 -0.45593999997E+02  0.45594000000E+02  0.51100000000E-03 0.  1.
    9900012    2    1    2    0    0 -0.31978674793E+02 -0.14590135709E+02 -0.25458117863E+02  0.47787268824E+02  0.19999989875E+02 0.  0.
         12    1    1    2    0    0  0.31978674793E+02  0.14590135709E+02  0.25458117863E+02  0.43400731176E+02  0.00000000000E+00 0. -1.
         11    1    3    3    0    0 -0.16824518405E+02 -0.30493770197E+01 -0.14961531419E+02  0.22720267217E+02  0.51100000000E-03 0.  1.
        -11    1    3    3    0    0 -0.35241475279E+01 -0.47567847269E+01 -0.99670183336E+01  0.11592586918E+02  0.51100000000E-03 0. -1.
         12    1    3    3    0    0 -0.11630008860E+02 -0.67839739625E+01 -0.52956811071E+00  0.13474414688E+02  0.00000000000E+00 0. -1.
</event>
<event>
 7    1  0.7596051E-010  0.4778727E+02  0.7816164E-02  0.1312668E+00
        -11   -1    0    0    0    0  0.00000000000E+00  0.00000000000E+00  0.45593999997E+02  0.45594000000E+02  0.51100000000E-03 0. -1.
         11   -1    0    0    0    0 -0.00000000000E+00 -0.00000000000E+00 -0.45593999997E+02  0.45594000000E+02  0.51100000000E-03 0.  1.
    9900012    2    1    2    0    0 -0.91864183447E+01 -0.98332666591E+00  0.42405965823E+02  0.47787272463E+02  0.20000006469E+02 0.  0.
        -12    1    1    2    0    0  0.91864183447E+01  0.98332666591E+00 -0.42405965823E+02  0.43400727537E+02  0.00000000000E+00 0.  1.
         11    1    3    3    0    0 -0.34824767875E+01 -0.11790860944E+00  0.28114243719E+01  0.44772373486E+01  0.51100000000E-03 0. -1.
        -11    1    3    3    0    0 -0.26585174022E+00 -0.82452562516E+01  0.16100761999E+02  0.18091143276E+02  0.51100000000E-03 0.  1.
         12    1    3    3    0    0 -0.54380898169E+01  0.73798381952E+01  0.23493779452E+02  0.25218891839E+02  0.00000000000E+00 0. -1.
</event>
<event>
 7    1  0.7596051E-010  0.4778728E+02  0.7816164E-02  0.1312668E+00
        -11   -1    0    0    0    0  0.00000000000E+00  0.00000000000E+00  0.45593999997E+02  0.45594000000E+02  0.51100000000E-03 0. -1.
         11   -1    0    0    0    0 -0.00000000000E+00 -0.00000000000E+00 -0.45593999997E+02  0.45594000000E+02  0.51100000000E-03 0.  1.
    9900012    2    1    2    0    0  0.24795266251E+02  0.27045383138E+02  0.23181133424E+02  0.47787275071E+02  0.20000018359E+02 0.  0.
        -12    1    1    2    0    0 -0.24795266251E+02 -0.27045383138E+02 -0.23181133424E+02  0.43400724929E+02  0.00000000000E+00 0.  1.
         11    1    3    3    0    0  0.70327981476E+01  0.18815042293E+02  0.11711443817E+02  0.23251322174E+02  0.51100000000E-03 0.  1.
        -11    1    3    3    0    0  0.97226375514E+01  0.52005267168E+01  0.11516832464E+02  0.15944045577E+02  0.51100000000E-03 0. -1.
        -12    1    3    3    0    0  0.80398305521E+01  0.30298141280E+01 -0.47142857822E-01  0.85919073206E+01  0.00000000000E+00 0.  1.
</event>
<event>
 7    1  0.7596051E-010  0.4778727E+02  0.7816164E-02  0.1312668E+00
        -11   -1    0    0    0    0  0.00000000000E+00  0.00000000000E+00  0.45593999997E+02  0.45594000000E+02  0.51100000000E-03 0. -1.
         11   -1    0    0    0    0 -0.00000000000E+00 -0.00000000000E+00 -0.45593999997E+02  0.45594000000E+02  0.51100000000E-03 0.  1.
    9900012    2    1    2    0    0 -0.35094698993E+01 -0.25465011501E+02 -0.34969130249E+02  0.47787271203E+02  0.20000000721E+02 0.  0.
         12    1    1    2    0    0  0.35094698993E+01  0.25465011501E+02  0.34969130249E+02  0.43400728797E+02  0.00000000000E+00 0. -1.
         11    1    3    3    0    0  0.18457550625E+01  0.41287107321E+00 -0.35649392042E+01  0.40355998395E+01  0.51100000000E-03 0. -1.
        -11    1    3    3    0    0  0.16873345392E+01 -0.22510027458E+02 -0.21879129785E+02  0.31436360387E+02  0.51100000000E-03 0.  1.
        -12    1    3    3    0    0 -0.70425595010E+01 -0.33678551166E+01 -0.95250612605E+01  0.12315310976E+02  0.00000000000E+00 0.  1.
</event>
<event>
 7    1  0.7596051E-010  0.4778726E+02  0.7816164E-02  0.1312668E+00
        -11   -1    0    0    0    0  0.00000000000E+00  0.00000000000E+00  0.45593999997E+02  0.45594000000E+02  0.51100000000E-03 0.  1.
         11   -1    0    0    0    0 -0.00000000000E+00 -0.00000000000E+00 -0.45593999997E+02  0.45594000000E+02  0.51100000000E-03 0. -1.
    9900012    2    1    2    0    0 -0.18891842963E+02 -0.31996439549E+02 -0.22426553274E+02  0.47787260765E+02  0.19999953134E+02 0.  0.
         12    1    1    2    0    0  0.18891842963E+02  0.31996439549E+02  0.22426553274E+02  0.43400739235E+02  0.00000000000E+00 0. -1.
         11    1    3    3    0    0 -0.22911113388E+01 -0.12407351646E+02 -0.36993663891E+01  0.13148265208E+02  0.51100000000E-03 0.  1.
        -11    1    3    3    0    0  0.18841016093E+00 -0.43919332169E+01  0.11094701181E+01  0.45338173733E+01  0.51100000000E-03 0. -1.
        -12    1    3    3    0    0 -0.16789141785E+02 -0.15197154686E+02 -0.19836657003E+02  0.30105178184E+02  0.00000000000E+00 0.  1.
</event>
<event>
 7    1  0.7596051E-010  0.4778727E+02  0.7816164E-02  0.1312668E+00
        -11   -1    0    0    0    0  0.00000000000E+00  0.00000000000E+00  0.45593999997E+02  0.45594000000E+02  0.51100000000E-03 0. -1.
         11   -1    0    0    0    0 -0.00000000000E+00 -0.00000000000E+00 -0.45593999997E+02  0.45594000000E+02  0.51100000000E-03 0.  1.
    9900012    2    1    2    0    0 -0.75649083014E+01 -0.36566922939E+02  0.22119121476E+02  0.47787271600E+02  0.20000002531E+02 0.  0.
        -12    1    1    2    0    0  0.75649083014E+01  0.36566922939E+02 -0.22119121476E+02  0.43400728400E+02  0.00000000000E+00 0.  1.
         11    1    3    3    0    0  0.22466882324E+01 -0.15423524834E+02  0.12522717181E+02  0.19993778337E+02  0.51100000000E-03 0. -1.
        -11    1    3    3    0    0  0.19870792626E+01 -0.90594579099E+00 -0.56977907132E+00  0.22569603947E+01  0.51100000000E-03 0.  1.
         12    1    3    3    0    0 -0.11798675796E+02 -0.20237452314E+02  0.10166183366E+02  0.25536532868E+02  0.00000000000E+00 0. -1.
</event>
<event>
 7    1  0.7596051E-010  0.4778727E+02  0.7816164E-02  0.1312668E+00
        -11   -1    0    0    0    0  0.00000000000E+00  0.00000000000E+00  0.45593999997E+02  0.45594000000E+02  0.51100000000E-03 0. -1.
         11   -1    0    0    0    0 -0.00000000000E+00 -0.00000000000E+00 -0.45593999997E+02  0.45594000000E+02  0.51100000000E-03 0.  1.
    9900012    2    1    2    0    0 -0.44941301258E+01  0.16816810919E+02 -0.39757023799E+02  0.47787271015E+02  0.19999999866E+02 0.  0.
         12    1    1    2    0    0  0.44941301258E+01 -0.16816810919E+02  0.39757023799E+02  0.43400728985E+02  0.00000000000E+00 0. -1.
         11    1    3    3    0    0 -0.76556314520E+01  0.30484186701E+01 -0.15419891808E+02  0.17483552641E+02  0.51100000000E-03 0. -1.
        -11    1    3    3    0    0 -0.13160207224E+01  0.88935782584E+01 -0.21099922007E+02  0.22935438818E+02  0.51100000000E-03 0.  1.
         12    1    3    3    0    0  0.44775220486E+01  0.48748139910E+01 -0.32372099833E+01  0.73682795562E+01  0.00000000000E+00 0. -1.
</event>
<event>
 7    1  0.7596051E-010  0.4778727E+02  0.7816164E-02  0.1312668E+00
        -11   -1    0    0    0    0  0.00000000000E+00  0.00000000000E+00  0.45593999997E+02  0.45594000000E+02  0.51100000000E-03 0. -1.
         11   -1    0    0    0    0 -0.00000000000E+00 -0.00000000000E+00 -0.45593999997E+02  0.45594000000E+02  0.51100000000E-03 0.  1.
    9900012    2    1    2    0    0 -0.16786456385E+02  0.26858987615E+02 -0.29672089753E+02  0.47787271389E+02  0.20000001572E+02 0.  0.
         12    1    1    2    0    0  0.16786456385E+02 -0.26858987615E+02  0.29672089753E+02  0.43400728611E+02  0.00000000000E+00 0. -1.
         11    1    3    3    0    0 -0.24401149705E+01 -0.22061874232E+01 -0.17793579729E+01  0.37399918546E+01  0.51100000000E-03 0. -1.
        -11    1    3    3    0    0 -0.14750031798E+01 -0.37852745296E+00 -0.31233877166E+01  0.34748335935E+01  0.51100000000E-03 0.  1.
        -12    1    3    3    0    0 -0.12871338235E+02  0.29443702491E+02 -0.24769344063E+02  0.40572445941E+02  0.00000000000E+00 0.  1.
</event>
<event>
 7    1  0.7596051E-010  0.4778727E+02  0.7816164E-02  0.1312668E+00
        -11   -1    0    0    0    0  0.00000000000E+00  0.00000000000E+00  0.45593999997E+02  0.45594000000E+02  0.51100000000E-03 0. -1.
         11   -1    0    0    0    0 -0.00000000000E+00 -0.00000000000E+00 -0.45593999997E+02  0.45594000000E+02  0.51100000000E-03 0.  1.
    9900012    2    1    2    0    0  0.42534598434E+02  0.64543952415E+01  0.57246844070E+01  0.47787270819E+02  0.19999998974E+02 0.  0.
        -12    1    1    2    0    0 -0.42534598434E+02 -0.64543952415E+01 -0.57246844070E+01  0.43400729181E+02  0.00000000000E+00 0.  1.
         11    1    3    3    0    0  0.14496811051E+02  0.97371241892E+01  0.36417399493E+01  0.17839041125E+02  0.51100000000E-03 0. -1.
        -11    1    3    3    0    0  0.12635947848E+02  0.16593058138E+01 -0.28071077570E+01  0.13049916783E+02  0.51100000000E-03 0.  1.
         12    1    3    3    0    0  0.15401839534E+02 -0.49420347614E+01  0.48900522147E+01  0.16898312912E+02  0.00000000000E+00 0. -1.
</event>
<event>
 7    1  0.7596051E-010  0.4778727E+02  0.7816164E-02  0.1312668E+00
        -11   -1    0    0    0    0  0.00000000000E+00  0.00000000000E+00  0.45593999997E+02  0.45594000000E+02  0.51100000000E-03 0. -1.
         11   -1    0    0    0    0 -0.00000000000E+00 -0.00000000000E+00 -0.45593999997E+02  0.45594000000E+02  0.51100000000E-03 0.  1.
    9900012    2    1    2    0    0 -0.27781482057E+02 -0.33315224856E+02  0.13813975304E+01  0.47787271762E+02  0.20000003270E+02 0.  0.
        -12    1    1    2    0    0  0.27781482057E+02  0.33315224856E+02 -0.13813975304E+01  0.43400728238E+02  0.00000000000E+00 0.  1.
         11    1    3    3    0    0 -0.10125514494E+02 -0.75311703548E+01  0.58314961179E+01  0.13901471790E+02  0.51100000000E-03 0. -1.
        -11    1    3    3    0    0 -0.73039865707E+01 -0.15824019234E+02  0.30296596181E+01  0.17689732678E+02  0.51100000000E-03 0.  1.
        -12    1    3    3    0    0 -0.10351980992E+02 -0.99600352673E+01 -0.74797582056E+01  0.16196067294E+02  0.00000000000E+00 0.  1.
</event>
<event>
 7    1  0.7596051E-010  0.4778731E+02  0.7816164E-02  0.1312668E+00
        -11   -1    0    0    0    0  0.00000000000E+00  0.00000000000E+00  0.45593999997E+02  0.45594000000E+02  0.51100000000E-03 0. -1.
         11   -1    0    0    0    0 -0.00000000000E+00 -0.00000000000E+00 -0.45593999997E+02  0.45594000000E+02  0.51100000000E-03 0.  1.
    9900012    2    1    2    0    0  0.41332787832E+01  0.97150908238E+01 -0.42096949884E+02  0.47787306771E+02  0.20000162893E+02 0.  0.
         12    1    1    2    0    0 -0.41332787832E+01 -0.97150908238E+01  0.42096949884E+02  0.43400693229E+02  0.00000000000E+00 0. -1.
         11    1    3    3    0    0 -0.31969101041E-01  0.42371201120E+00  0.16906513449E+00  0.45731517871E+00  0.51100000000E-03 0. -1.
        -11    1    3    3    0    0  0.10445165684E+02  0.85893622890E+01 -0.19692925119E+02  0.23889117411E+02  0.51100000000E-03 0.  1.
         12    1    3    3    0    0 -0.62799178001E+01  0.70201652353E+00 -0.22573089900E+02  0.23440874181E+02  0.00000000000E+00 0. -1.
</event>
<event>
 7    1  0.7596051E-010  0.4778728E+02  0.7816164E-02  0.1312668E+00
        -11   -1    0    0    0    0  0.00000000000E+00  0.00000000000E+00  0.45593999997E+02  0.45594000000E+02  0.51100000000E-03 0. -1.
         11   -1    0    0    0    0 -0.00000000000E+00 -0.00000000000E+00 -0.45593999997E+02  0.45594000000E+02  0.51100000000E-03 0.  1.
    9900012    2    1    2    0    0  0.88414678417E+01 -0.14950626170E+02  0.39773482094E+02  0.47787278181E+02  0.20000032540E+02 0.  0.
        -12    1    1    2    0    0 -0.88414678417E+01  0.14950626170E+02 -0.39773482094E+02  0.43400721819E+02  0.00000000000E+00 0.  1.
         11    1    3    3    0    0  0.32191042100E+01 -0.22823462238E+01  0.30321361780E+01  0.49765034173E+01  0.51100000000E-03 0. -1.
        -11    1    3    3    0    0 -0.53487373965E+01 -0.50250960077E+01  0.67384690619E+01  0.99633100515E+01  0.51100000000E-03 0.  1.
        -12    1    3    3    0    0  0.10971101028E+02 -0.76431839390E+01  0.30002876854E+02  0.32847464712E+02  0.00000000000E+00 0.  1.
</event>
<event>
 7    1  0.7596051E-010  0.4778727E+02  0.7816164E-02  0.1312668E+00
        -11   -1    0    0    0    0  0.00000000000E+00  0.00000000000E+00  0.45593999997E+02  0.45594000000E+02  0.51100000000E-03 0. -1.
         11   -1    0    0    0    0 -0.00000000000E+00 -0.00000000000E+00 -0.45593999997E+02  0.45594000000E+02  0.51100000000E-03 0.  1.
    9900012    2    1    2    0    0  0.19699846688E+02  0.20347662226E+02 -0.32886347520E+02  0.47787272232E+02  0.20000005415E+02 0.  0.
         12    1    1    2    0    0 -0.19699846688E+02 -0.20347662226E+02  0.32886347520E+02  0.43400727768E+02  0.00000000000E+00 0. -1.
         11    1    3    3    0    0 -0.68550749329E+00  0.15416666111E+01  0.67719028247E+00  0.18180328388E+01  0.51100000000E-03 0. -1.
        -11    1    3    3    0    0  0.14860464371E+02  0.54121531822E+01 -0.11422270650E+02  0.19508794695E+02  0.51100000000E-03 0.  1.
         12    1    3    3    0    0  0.55248898107E+01  0.13393842432E+02 -0.22141267152E+02  0.26460444698E+02  0.00000000000E+00 0. -1.
</event>
<event>
 7    1  0.7596051E-010  0.4778727E+02  0.7816164E-02  0.1312668E+00
        -11   -1    0    0    0    0  0.00000000000E+00  0.00000000000E+00  0.45593999997E+02  0.45594000000E+02  0.51100000000E-03 0. -1.
         11   -1    0    0    0    0 -0.00000000000E+00 -0.00000000000E+00 -0.45593999997E+02  0.45594000000E+02  0.51100000000E-03 0.  1.
    9900012    2    1    2    0    0  0.24978018517E+02 -0.20651168759E+01  0.35432427582E+02  0.47787273727E+02  0.20000012229E+02 0.  0.
        -12    1    1    2    0    0 -0.24978018517E+02  0.20651168759E+01 -0.35432427582E+02  0.43400726273E+02  0.00000000000E+00 0.  1.
         11    1    3    3    0    0  0.13738765094E+02 -0.46866269565E+01  0.10538593952E+02  0.17938230161E+02  0.51100000000E-03 0. -1.
        -11    1    3    3    0    0 -0.10513681612E+01 -0.20053041599E+01  0.78686329802E+00  0.23970343959E+01  0.51100000000E-03 0.  1.
        -12    1    3    3    0    0  0.12290621583E+02  0.46268142405E+01  0.24106970331E+02  0.27452009170E+02  0.00000000000E+00 0.  1.
</event>
<event>
 7    1  0.7596051E-010  0.4778728E+02  0.7816164E-02  0.1312668E+00
        -11   -1    0    0    0    0  0.00000000000E+00  0.00000000000E+00  0.45593999997E+02  0.45594000000E+02  0.51100000000E-03 0. -1.
         11   -1    0    0    0    0 -0.00000000000E+00 -0.00000000000E+00 -0.45593999997E+02  0.45594000000E+02  0.51100000000E-03 0.  1.
    9900012    2    1    2    0    0 -0.16486819430E+02  0.46284041958E+01 -0.39879637569E+02  0.47787276124E+02  0.20000023162E+02 0.  0.
         12    1    1    2    0    0  0.16486819430E+02 -0.46284041958E+01  0.39879637569E+02  0.43400723876E+02  0.00000000000E+00 0. -1.
         11    1    3    3    0    0 -0.12039197992E+02 -0.93877826727E+00 -0.19864141095E+02  0.23246670614E+02  0.51100000000E-03 0. -1.
        -11    1    3    3    0    0 -0.33300870568E+01  0.18615675459E+01 -0.20304086574E+02  0.20659400897E+02  0.51100000000E-03 0.  1.
         12    1    3    3    0    0 -0.11175343819E+01  0.37056149171E+01  0.28859010102E+00  0.38812046139E+01  0.00000000000E+00 0. -1.
</event>
<event>
 7    1  0.7596051E-010  0.4778727E+02  0.7816164E-02  0.1312668E+00
        -11   -1    0    0    0    0  0.00000000000E+00  0.00000000000E+00  0.45593999997E+02  0.45594000000E+02  0.51100000000E-03 0. -1.
         11   -1    0    0    0    0 -0.00000000000E+00 -0.00000000000E+00 -0.45593999997E+02  0.45594000000E+02  0.51100000000E-03 0.  1.
    9900012    2    1    2    0    0 -0.38234412975E+01  0.52597400599E+01 -0.42910834890E+02  0.47787270515E+02  0.19999997587E+02 0.  0.
         12    1    1    2    0    0  0.38234412975E+01 -0.52597400599E+01  0.42910834890E+02  0.43400729485E+02  0.00000000000E+00 0. -1.
         11    1    3    3    0    0  0.23282515504E+01  0.34716507430E+01 -0.89107699428E+00  0.42740066254E+01  0.51100000000E-03 0. -1.
        -11    1    3    3    0    0  0.15565855236E+01  0.31106301897E+01 -0.13411855868E+02  0.13855571326E+02  0.51100000000E-03 0.  1.
        -12    1    3    3    0    0 -0.77082783715E+01 -0.13225408728E+01 -0.28607902028E+02  0.29657692564E+02  0.00000000000E+00 0.  1.
</event>
<event>
 7    1  0.7596051E-010  0.4778727E+02  0.7816164E-02  0.1312668E+00
        -11   -1    0    0    0    0  0.00000000000E+00  0.00000000000E+00  0.45593999997E+02  0.45594000000E+02  0.51100000000E-03 0. -1.
         11   -1    0    0    0    0 -0.00000000000E+00 -0.00000000000E+00 -0.45593999997E+02  0.45594000000E+02  0.51100000000E-03 0.  1.
    9900012    2    1    2    0    0 -0.19795216997E+02  0.12582355640E+02  0.36516528870E+02  0.47787272240E+02  0.20000005451E+02 0.  0.
        -12    1    1    2    0    0  0.19795216997E+02 -0.12582355640E+02 -0.36516528870E+02  0.43400727760E+02  0.00000000000E+00 0.  1.
         11    1    3    3    0    0 -0.58355046827E+01  0.75734258080E+01  0.25987998018E+01  0.99077572660E+01  0.51100000000E-03 0.  1.
        -11    1    3    3    0    0 -0.68323489032E+01  0.64531449570E+01  0.21922116099E+02  0.23851692726E+02  0.51100000000E-03 0. -1.
        -12    1    3    3    0    0 -0.71273634115E+01 -0.14442151249E+01  0.11995612968E+02  0.14027822248E+02  0.00000000000E+00 0.  1.
</event>
<event>
 7    1  0.7596051E-010  0.4778723E+02  0.7816164E-02  0.1312668E+00
        -11   -1    0    0    0    0  0.00000000000E+00  0.00000000000E+00  0.45593999997E+02  0.45594000000E+02  0.51100000000E-03 0. -1.
         11   -1    0    0    0    0 -0.00000000000E+00 -0.00000000000E+00 -0.45593999997E+02  0.45594000000E+02  0.51100000000E-03 0.  1.
    9900012    2    1    2    0    0 -0.24823157167E+02 -0.20130107040E+01  0.35544133207E+02  0.47787231006E+02  0.19999817448E+02 0.  0.
        -12    1    1    2    0    0  0.24823157167E+02  0.20130107040E+01 -0.35544133207E+02  0.43400768994E+02  0.00000000000E+00 0.  1.
         11    1    3    3    0    0 -0.36053603686E+01  0.31314635433E+01 -0.11223776310E+01  0.49055498284E+01  0.51100000000E-03 0. -1.
        -11    1    3    3    0    0 -0.50356306530E+01  0.58240371755E+00  0.84651305517E+01  0.98668741597E+01  0.51100000000E-03 0.  1.
         12    1    3    3    0    0 -0.16182166145E+02 -0.57268779649E+01  0.28201380287E+02  0.33014807018E+02  0.00000000000E+00 0. -1.
</event>
<event>
 7    1  0.7596051E-010  0.4778727E+02  0.7816164E-02  0.1312668E+00
        -11   -1    0    0    0    0  0.00000000000E+00  0.00000000000E+00  0.45593999997E+02  0.45594000000E+02  0.51100000000E-03 0. -1.
         11   -1    0    0    0    0 -0.00000000000E+00 -0.00000000000E+00 -0.45593999997E+02  0.45594000000E+02  0.51100000000E-03 0.  1.
    9900012    2    1    2    0    0  0.74664078585E+01  0.17248218438E+02 -0.39120007757E+02  0.47787270830E+02  0.19999999022E+02 0.  0.
         12    1    1    2    0    0 -0.74664078585E+01 -0.17248218438E+02  0.39120007757E+02  0.43400729170E+02  0.00000000000E+00 0. -1.
         11    1    3    3    0    0  0.61635622224E+01  0.62483490823E+01 -0.12760824895E+02  0.15487737658E+02  0.51100000000E-03 0. -1.
        -11    1    3    3    0    0  0.70252899207E+01  0.86619253751E+01 -0.22214776922E+02  0.24857191386E+02  0.51100000000E-03 0.  1.
         12    1    3    3    0    0 -0.57224442846E+01  0.23379439807E+01 -0.41444059408E+01  0.74423417853E+01  0.00000000000E+00 0. -1.
</event>
<event>
 7    1  0.7596051E-010  0.4778727E+02  0.7816164E-02  0.1312668E+00
        -11   -1    0    0    0    0  0.00000000000E+00  0.00000000000E+00  0.45593999997E+02  0.45594000000E+02  0.51100000000E-03 0. -1.
         11   -1    0    0    0    0 -0.00000000000E+00 -0.00000000000E+00 -0.45593999997E+02  0.45594000000E+02  0.51100000000E-03 0.  1.
    9900012    2    1    2    0    0  0.33012561900E+02 -0.21486126865E+02 -0.18224725561E+02  0.47787268294E+02  0.19999987459E+02 0.  0.
         12    1    1    2    0    0 -0.33012561900E+02  0.21486126865E+02  0.18224725561E+02  0.43400731706E+02  0.00000000000E+00 0. -1.
         11    1    3    3    0    0  0.20946192011E+02 -0.85458381209E+01 -0.96465616400E+01  0.24593301134E+02  0.51100000000E-03 0. -1.
        -11    1    3    3    0    0  0.13547028627E+02 -0.80322524107E+01 -0.38342403151E+01  0.16209270880E+02  0.51100000000E-03 0.  1.
         12    1    3    3    0    0 -0.14806587372E+01 -0.49080363330E+01 -0.47439236057E+01  0.69846962797E+01  0.00000000000E+00 0. -1.
</event>
<event>
 7    1  0.7596051E-010  0.4778727E+02  0.7816164E-02  0.1312668E+00
        -11   -1    0    0    0    0  0.00000000000E+00  0.00000000000E+00  0.45593999997E+02  0.45594000000E+02  0.51100000000E-03 0. -1.
         11   -1    0    0    0    0 -0.00000000000E+00 -0.00000000000E+00 -0.45593999997E+02  0.45594000000E+02  0.51100000000E-03 0.  1.
    9900012    2    1    2    0    0  0.26565255841E+02 -0.14900119176E+02 -0.30917582295E+02  0.47787271155E+02  0.20000000503E+02 0.  0.
         12    1    1    2    0    0 -0.26565255841E+02  0.14900119176E+02  0.30917582295E+02  0.43400728845E+02  0.00000000000E+00 0. -1.
         11    1    3    3    0    0  0.16247818882E+02 -0.16582676545E+02 -0.28897514799E+02  0.37068087915E+02  0.51100000000E-03 0. -1.
        -11    1    3    3    0    0  0.31348457186E+01  0.34671730583E+00 -0.11706710914E+01  0.33642148616E+01  0.51100000000E-03 0.  1.
         12    1    3    3    0    0  0.71825912397E+01  0.13358400635E+01 -0.84939640443E+00  0.73549683782E+01  0.00000000000E+00 0. -1.
</event>
<event>
 7    1  0.7596051E-010  0.4778727E+02  0.7816164E-02  0.1312668E+00
        -11   -1    0    0    0    0  0.00000000000E+00  0.00000000000E+00  0.45593999997E+02  0.45594000000E+02  0.51100000000E-03 0. -1.
         11   -1    0    0    0    0 -0.00000000000E+00 -0.00000000000E+00 -0.45593999997E+02  0.45594000000E+02  0.51100000000E-03 0.  1.
    9900012    2    1    2    0    0  0.99878584524E+01  0.13229114770E+02  0.40110554244E+02  0.47787270101E+02  0.19999995697E+02 0.  0.
        -12    1    1    2    0    0 -0.99878584524E+01 -0.13229114770E+02 -0.40110554244E+02  0.43400729899E+02  0.00000000000E+00 0.  1.
         11    1    3    3    0    0 -0.34275070380E+01  0.66947412636E+01  0.16679047451E+02  0.18296392792E+02  0.51100000000E-03 0.  1.
        -11    1    3    3    0    0  0.17233603090E+01  0.17742750187E+01  0.12650147555E+02  0.12889695730E+02  0.51100000000E-03 0. -1.
        -12    1    3    3    0    0  0.11692005181E+02  0.47600984874E+01  0.10781359239E+02  0.16601181579E+02  0.00000000000E+00 0.  1.
</event>
<event>
 7    1  0.7596051E-010  0.4778727E+02  0.7816164E-02  0.1312668E+00
        -11   -1    0    0    0    0  0.00000000000E+00  0.00000000000E+00  0.45593999997E+02  0.45594000000E+02  0.51100000000E-03 0. -1.
         11   -1    0    0    0    0 -0.00000000000E+00 -0.00000000000E+00 -0.45593999997E+02  0.45594000000E+02  0.51100000000E-03 0.  1.
    9900012    2    1    2    0    0 -0.90587331743E+00  0.20614458538E+02  0.38181760063E+02  0.47787270642E+02  0.19999998165E+02 0.  0.
        -12    1    1    2    0    0  0.90587331743E+00 -0.20614458538E+02 -0.38181760063E+02  0.43400729358E+02  0.00000000000E+00 0.  1.
         11    1    3    3    0    0 -0.27559133735E+01  0.74270816768E+01  0.35538843208E+01  0.86825511679E+01  0.51100000000E-03 0. -1.
        -11    1    3    3    0    0  0.64854317077E+00  0.68536174146E+01  0.43393651122E+01  0.81377373850E+01  0.51100000000E-03 0.  1.
        -12    1    3    3    0    0  0.12014968853E+01  0.63337594467E+01  0.30288510630E+02  0.30966982089E+02  0.00000000000E+00 0.  1.
</event>
<event>
 7    1  0.7596051E-010  0.4778727E+02  0.7816164E-02  0.1312668E+00
        -11   -1    0    0    0    0  0.00000000000E+00  0.00000000000E+00  0.45593999997E+02  0.45594000000E+02  0.51100000000E-03 0. -1.
         11   -1    0    0    0    0 -0.00000000000E+00 -0.00000000000E+00 -0.45593999997E+02  0.45594000000E+02  0.51100000000E-03 0.  1.
    9900012    2    1    2    0    0 -0.35798174167E+02  0.14847055774E+02 -0.19536606310E+02  0.47787270456E+02  0.19999997315E+02 0.  0.
         12    1    1    2    0    0  0.35798174167E+02 -0.14847055774E+02  0.19536606310E+02  0.43400729544E+02  0.00000000000E+00 0. -1.
         11    1    3    3    0    0 -0.14910460215E+02  0.58101875027E+01 -0.74046420929E+01  0.17632606938E+02  0.51100000000E-03 0. -1.
        -11    1    3    3    0    0 -0.68569258679E+01  0.81180302094E+01  0.13044676052E+01  0.10706142295E+02  0.51100000000E-03 0.  1.
         12    1    3    3    0    0 -0.14030788085E+02  0.91883806221E+00 -0.13436431822E+02  0.19448521223E+02  0.00000000000E+00 0. -1.
</event>
<event>
 7    1  0.7596051E-010  0.4778727E+02  0.7816164E-02  0.1312668E+00
        -11   -1    0    0    0    0  0.00000000000E+00  0.00000000000E+00  0.45593999997E+02  0.45594000000E+02  0.51100000000E-03 0. -1.
         11   -1    0    0    0    0 -0.00000000000E+00 -0.00000000000E+00 -0.45593999997E+02  0.45594000000E+02  0.51100000000E-03 0.  1.
    9900012    2    1    2    0    0  0.11433251000E+02 -0.85549816468E+01  0.40984341703E+02  0.47787271847E+02  0.20000003658E+02 0.  0.
        -12    1    1    2    0    0 -0.11433251000E+02  0.85549816468E+01 -0.40984341703E+02  0.43400728153E+02  0.00000000000E+00 0.  1.
         11    1    3    3    0    0  0.25910441081E+01 -0.40738481168E+01  0.71025750072E+01  0.85881499779E+01  0.51100000000E-03 0. -1.
        -11    1    3    3    0    0  0.36894968863E+01 -0.73632279790E+01  0.48177301608E+01  0.95414903295E+01  0.51100000000E-03 0.  1.
         12    1    3    3    0    0  0.51527100060E+01  0.28820944490E+01  0.29064036535E+02  0.29657631539E+02  0.00000000000E+00 0. -1.
</event>
<event>
 7    1  0.7596051E-010  0.4778727E+02  0.7816164E-02  0.1312668E+00
        -11   -1    0    0    0    0  0.00000000000E+00  0.00000000000E+00  0.45593999997E+02  0.45594000000E+02  0.51100000000E-03 0. -1.
         11   -1    0    0    0    0 -0.00000000000E+00 -0.00000000000E+00 -0.45593999997E+02  0.45594000000E+02  0.51100000000E-03 0.  1.
    9900012    2    1    2    0    0 -0.26287740369E+02  0.25231878403E+02  0.23578169953E+02  0.47787273281E+02  0.20000010198E+02 0.  0.
        -12    1    1    2    0    0  0.26287740369E+02 -0.25231878403E+02 -0.23578169953E+02  0.43400726719E+02  0.00000000000E+00 0.  1.
         11    1    3    3    0    0 -0.46530382451E+01  0.11833716615E+02  0.10436244307E+02  0.16450009402E+02  0.51100000000E-03 0. -1.
        -11    1    3    3    0    0 -0.16989843856E+01  0.69557579169E+01  0.55277197157E+01  0.90457062553E+01  0.51100000000E-03 0.  1.
        -12    1    3    3    0    0 -0.19935717738E+02  0.64424038708E+01  0.76142059303E+01  0.22291557624E+02  0.00000000000E+00 0.  1.
</event>
<event>
 7    1  0.7596051E-010  0.4778727E+02  0.7816164E-02  0.1312668E+00
        -11   -1    0    0    0    0  0.00000000000E+00  0.00000000000E+00  0.45593999997E+02  0.45594000000E+02  0.51100000000E-03 0. -1.
         11   -1    0    0    0    0 -0.00000000000E+00 -0.00000000000E+00 -0.45593999997E+02  0.45594000000E+02  0.51100000000E-03 0.  1.
    9900012    2    1    2    0    0  0.12293130283E+02 -0.27727491100E+02  0.31043327676E+02  0.47787274107E+02  0.20000013964E+02 0.  0.
        -12    1    1    2    0    0 -0.12293130283E+02  0.27727491100E+02 -0.31043327676E+02  0.43400725893E+02  0.00000000000E+00 0.  1.
         11    1    3    3    0    0  0.99577186448E+01 -0.88025290241E+01  0.16557114522E+02  0.21231550094E+02  0.51100000000E-03 0. -1.
        -11    1    3    3    0    0  0.49730862628E+01 -0.93480263984E+01  0.12576371214E+02  0.16440264527E+02  0.51100000000E-03 0.  1.
        -12    1    3    3    0    0 -0.26376746243E+01 -0.95769356772E+01  0.19098419392E+01  0.10115459486E+02  0.00000000000E+00 0.  1.
</event>
<event>
 7    1  0.7596051E-010  0.4778728E+02  0.7816164E-02  0.1312668E+00
        -11   -1    0    0    0    0  0.00000000000E+00  0.00000000000E+00  0.45593999997E+02  0.45594000000E+02  0.51100000000E-03 0.  1.
         11   -1    0    0    0    0 -0.00000000000E+00 -0.00000000000E+00 -0.45593999997E+02  0.45594000000E+02  0.51100000000E-03 0. -1.
    9900012    2    1    2    0    0  0.15539011898E+02 -0.28546684177E+02 -0.28761923202E+02  0.47787282327E+02  0.20000051442E+02 0.  0.
         12    1    1    2    0    0 -0.15539011898E+02  0.28546684177E+02  0.28761923202E+02  0.43400717673E+02  0.00000000000E+00 0. -1.
         11    1    3    3    0    0  0.56121696490E+01 -0.88487474092E+01  0.25666752161E+00  0.10481538883E+02  0.51100000000E-03 0. -1.
        -11    1    3    3    0    0  0.21089219279E+01 -0.18399454875E+01 -0.63083557042E+00  0.28689553627E+01  0.51100000000E-03 0.  1.
        -12    1    3    3    0    0  0.78179203211E+01 -0.17857991280E+02 -0.28387755153E+02  0.34436788081E+02  0.00000000000E+00 0.  1.
</event>
<event>
 7    1  0.7596051E-010  0.4778727E+02  0.7816164E-02  0.1312668E+00
        -11   -1    0    0    0    0  0.00000000000E+00  0.00000000000E+00  0.45593999997E+02  0.45594000000E+02  0.51100000000E-03 0. -1.
         11   -1    0    0    0    0 -0.00000000000E+00 -0.00000000000E+00 -0.45593999997E+02  0.45594000000E+02  0.51100000000E-03 0.  1.
    9900012    2    1    2    0    0  0.16604290795E+02  0.42222110953E+01  0.39875976214E+02  0.47787273988E+02  0.20000013420E+02 0.  0.
        -12    1    1    2    0    0 -0.16604290795E+02 -0.42222110953E+01 -0.39875976214E+02  0.43400726012E+02  0.00000000000E+00 0.  1.
         11    1    3    3    0    0  0.16785711165E+02  0.87060712491E+01  0.23805138802E+02  0.30401322497E+02  0.51100000000E-03 0. -1.
        -11    1    3    3    0    0 -0.51479242430E+00  0.45406257063E+00  0.13539611570E+00  0.69965450576E+00  0.51100000000E-03 0.  1.
        -12    1    3    3    0    0  0.33337205441E+00 -0.49379227244E+01  0.15935441297E+02  0.16686296985E+02  0.00000000000E+00 0.  1.
</event>
<event>
 7    1  0.7596051E-010  0.4778727E+02  0.7816164E-02  0.1312668E+00
        -11   -1    0    0    0    0  0.00000000000E+00  0.00000000000E+00  0.45593999997E+02  0.45594000000E+02  0.51100000000E-03 0. -1.
         11   -1    0    0    0    0 -0.00000000000E+00 -0.00000000000E+00 -0.45593999997E+02  0.45594000000E+02  0.51100000000E-03 0.  1.
    9900012    2    1    2    0    0  0.16653659840E+02 -0.29217760042E+02  0.27433582810E+02  0.47787270124E+02  0.19999995803E+02 0.  0.
        -12    1    1    2    0    0 -0.16653659840E+02  0.29217760042E+02 -0.27433582810E+02  0.43400729876E+02  0.00000000000E+00 0.  1.
         11    1    3    3    0    0  0.28810439678E+01 -0.16676958221E+02  0.13356680229E+02  0.21559736938E+02  0.51100000000E-03 0. -1.
        -11    1    3    3    0    0  0.14444557111E+02 -0.11203464522E+02  0.79736780061E+01  0.19943479853E+02  0.51100000000E-03 0.  1.
         12    1    3    3    0    0 -0.67194123827E+00 -0.13373372993E+01  0.61032245750E+01  0.62840533331E+01  0.00000000000E+00 0. -1.
</event>
<event>
 7    1  0.7596051E-010  0.4778727E+02  0.7816164E-02  0.1312668E+00
        -11   -1    0    0    0    0  0.00000000000E+00  0.00000000000E+00  0.45593999997E+02  0.45594000000E+02  0.51100000000E-03 0. -1.
         11   -1    0    0    0    0 -0.00000000000E+00 -0.00000000000E+00 -0.45593999997E+02  0.45594000000E+02  0.51100000000E-03 0.  1.
    9900012    2    1    2    0    0  0.22369929365E+02 -0.13549311440E+02  0.34635613751E+02  0.47787270511E+02  0.19999997568E+02 0.  0.
        -12    1    1    2    0    0 -0.22369929365E+02  0.13549311440E+02 -0.34635613751E+02  0.43400729489E+02  0.00000000000E+00 0.  1.
         11    1    3    3    0    0  0.13928882675E+02 -0.12437763012E+02  0.27104214648E+02  0.32914285247E+02  0.51100000000E-03 0. -1.
        -11    1    3    3    0    0  0.23518411884E+01 -0.35942006941E+01 -0.68455973656E+00  0.43494893837E+01  0.51100000000E-03 0.  1.
         12    1    3    3    0    0  0.60892055013E+01  0.24826522661E+01  0.82159588386E+01  0.10523495881E+02  0.00000000000E+00 0. -1.
</event>
<event>
 7    1  0.7596051E-010  0.4778727E+02  0.7816164E-02  0.1312668E+00
        -11   -1    0    0    0    0  0.00000000000E+00  0.00000000000E+00  0.45593999997E+02  0.45594000000E+02  0.51100000000E-03 0. -1.
         11   -1    0    0    0    0 -0.00000000000E+00 -0.00000000000E+00 -0.45593999997E+02  0.45594000000E+02  0.51100000000E-03 0.  1.
    9900012    2    1    2    0    0  0.36923512195E+02 -0.11568940813E+02 -0.19658005343E+02  0.47787270531E+02  0.19999997658E+02 0.  0.
         12    1    1    2    0    0 -0.36923512195E+02  0.11568940813E+02  0.19658005343E+02  0.43400729469E+02  0.00000000000E+00 0. -1.
         11    1    3    3    0    0  0.35109257102E+01  0.16388637701E+00  0.13297295450E+01  0.37578769286E+01  0.51100000000E-03 0. -1.
        -11    1    3    3    0    0  0.21813323412E+02 -0.55040522373E+01 -0.45217175187E+01  0.22946930054E+02  0.51100000000E-03 0.  1.
         12    1    3    3    0    0  0.11599263073E+02 -0.62287749526E+01 -0.16466017370E+02  0.21082463548E+02  0.00000000000E+00 0. -1.
</event>
<event>
 7    1  0.7596051E-010  0.4778726E+02  0.7816164E-02  0.1312668E+00
        -11   -1    0    0    0    0  0.00000000000E+00  0.00000000000E+00  0.45593999997E+02  0.45594000000E+02  0.51100000000E-03 0. -1.
         11   -1    0    0    0    0 -0.00000000000E+00 -0.00000000000E+00 -0.45593999997E+02  0.45594000000E+02  0.51100000000E-03 0.  1.
    9900012    2    1    2    0    0 -0.25223304302E+02 -0.64656810328E+01  0.34721807064E+02  0.47787262714E+02  0.19999962020E+02 0.  0.
        -12    1    1    2    0    0  0.25223304302E+02  0.64656810328E+01 -0.34721807064E+02  0.43400737286E+02  0.00000000000E+00 0.  1.
         11    1    3    3    0    0 -0.70668682769E+01  0.20912394564E+01  0.10329203833E+02  0.12688828228E+02  0.51100000000E-03 0. -1.
        -11    1    3    3    0    0 -0.82136560376E+01  0.40682862996E+01  0.87416594370E+01  0.12666163938E+02  0.51100000000E-03 0.  1.
        -12    1    3    3    0    0 -0.99427799871E+01 -0.12625206789E+02  0.15650943794E+02  0.22432270549E+02  0.00000000000E+00 0.  1.
</event>
<event>
 7    1  0.7596051E-010  0.4778727E+02  0.7816164E-02  0.1312668E+00
        -11   -1    0    0    0    0  0.00000000000E+00  0.00000000000E+00  0.45593999997E+02  0.45594000000E+02  0.51100000000E-03 0. -1.
         11   -1    0    0    0    0 -0.00000000000E+00 -0.00000000000E+00 -0.45593999997E+02  0.45594000000E+02  0.51100000000E-03 0.  1.
    9900012    2    1    2    0    0  0.29452924162E+02  0.14920847422E+00 -0.31876731762E+02  0.47787273823E+02  0.20000012669E+02 0.  0.
         12    1    1    2    0    0 -0.29452924162E+02 -0.14920847422E+00  0.31876731762E+02  0.43400726177E+02  0.00000000000E+00 0. -1.
         11    1    3    3    0    0 -0.14453846063E+01  0.18638702444E+01 -0.30608084217E+01  0.38641554580E+01  0.51100000000E-03 0. -1.
        -11    1    3    3    0    0 -0.10504767194E+01  0.81184326666E-01 -0.15976257542E+01  0.19137660632E+01  0.51100000000E-03 0.  1.
         12    1    3    3    0    0  0.31948785488E+02 -0.17958460968E+01 -0.27218297586E+02  0.42009352302E+02  0.00000000000E+00 0. -1.
</event>
<event>
 7    1  0.7596051E-010  0.4778727E+02  0.7816164E-02  0.1312668E+00
        -11   -1    0    0    0    0  0.00000000000E+00  0.00000000000E+00  0.45593999997E+02  0.45594000000E+02  0.51100000000E-03 0. -1.
         11   -1    0    0    0    0 -0.00000000000E+00 -0.00000000000E+00 -0.45593999997E+02  0.45594000000E+02  0.51100000000E-03 0.  1.
    9900012    2    1    2    0    0  0.11629653732E+02  0.88085129961E+01  0.40875228694E+02  0.47787273417E+02  0.20000010820E+02 0.  0.
        -12    1    1    2    0    0 -0.11629653732E+02 -0.88085129961E+01 -0.40875228694E+02  0.43400726583E+02  0.00000000000E+00 0.  1.
         11    1    3    3    0    0  0.44842633322E+01  0.31032234899E+00  0.52137358629E+01  0.68838913052E+01  0.51100000000E-03 0. -1.
        -11    1    3    3    0    0  0.16663208700E-01  0.46529077451E+01  0.34026550591E+00  0.46653626893E+01  0.51100000000E-03 0.  1.
         12    1    3    3    0    0  0.71287271909E+01  0.38452829019E+01  0.35321227325E+02  0.36238019423E+02  0.00000000000E+00 0. -1.
</event>
<event>
 7    1  0.7596051E-010  0.4778727E+02  0.7816164E-02  0.1312668E+00
        -11   -1    0    0    0    0  0.00000000000E+00  0.00000000000E+00  0.45593999997E+02  0.45594000000E+02  0.51100000000E-03 0.  1.
         11   -1    0    0    0    0 -0.00000000000E+00 -0.00000000000E+00 -0.45593999997E+02  0.45594000000E+02  0.51100000000E-03 0. -1.
    9900012    2    1    2    0    0 -0.28703973090E+02 -0.22317338175E+02 -0.23698972788E+02  0.47787274597E+02  0.20000016195E+02 0.  0.
         12    1    1    2    0    0  0.28703973090E+02  0.22317338175E+02  0.23698972788E+02  0.43400725403E+02  0.00000000000E+00 0. -1.
         11    1    3    3    0    0 -0.13189494065E+02 -0.18684378086E+02 -0.73018058960E+01  0.24008021738E+02  0.51100000000E-03 0. -1.
        -11    1    3    3    0    0 -0.10478465530E+02 -0.38209102561E+01 -0.71511205203E+01  0.13249004491E+02  0.51100000000E-03 0.  1.
         12    1    3    3    0    0 -0.50360134945E+01  0.18795016710E+00 -0.92460463712E+01  0.10530248367E+02  0.00000000000E+00 0. -1.
</event>
<event>
 7    1  0.7596051E-010  0.4778727E+02  0.7816164E-02  0.1312668E+00
        -11   -1    0    0    0    0  0.00000000000E+00  0.00000000000E+00  0.45593999997E+02  0.45594000000E+02  0.51100000000E-03 0. -1.
         11   -1    0    0    0    0 -0.00000000000E+00 -0.00000000000E+00 -0.45593999997E+02  0.45594000000E+02  0.51100000000E-03 0.  1.
    9900012    2    1    2    0    0 -0.36810046894E+01  0.77362574465E+01 -0.42546724739E+02  0.47787271195E+02  0.20000000688E+02 0.  0.
         12    1    1    2    0    0  0.36810046894E+01 -0.77362574465E+01  0.42546724739E+02  0.43400728805E+02  0.00000000000E+00 0. -1.
         11    1    3    3    0    0 -0.62654051466E+01  0.21456458044E+01 -0.11047060489E+02  0.12880087084E+02  0.51100000000E-03 0. -1.
        -11    1    3    3    0    0 -0.34743227293E+01 -0.23812901850E+01 -0.15243383381E+02  0.15814619772E+02  0.51100000000E-03 0.  1.
        -12    1    3    3    0    0  0.60587231865E+01  0.79719018271E+01 -0.16256280868E+02  0.19092564339E+02  0.00000000000E+00 0.  1.
</event>
<event>
 7    1  0.7596051E-010  0.4778727E+02  0.7816164E-02  0.1312668E+00
        -11   -1    0    0    0    0  0.00000000000E+00  0.00000000000E+00  0.45593999997E+02  0.45594000000E+02  0.51100000000E-03 0. -1.
         11   -1    0    0    0    0 -0.00000000000E+00 -0.00000000000E+00 -0.45593999997E+02  0.45594000000E+02  0.51100000000E-03 0.  1.
    9900012    2    1    2    0    0 -0.39403393539E+01  0.92379747389E+01 -0.42222704638E+02  0.47787271453E+02  0.20000001863E+02 0.  0.
         12    1    1    2    0    0  0.39403393539E+01 -0.92379747389E+01  0.42222704638E+02  0.43400728547E+02  0.00000000000E+00 0. -1.
         11    1    3    3    0    0 -0.85493408420E+01  0.26670485154E+01 -0.15458819512E+02  0.17865594801E+02  0.51100000000E-03 0.  1.
        -11    1    3    3    0    0  0.41823039544E+01  0.61557898171E+01 -0.72205284966E+01  0.10369254875E+02  0.51100000000E-03 0. -1.
         12    1    3    3    0    0  0.42669753369E+00  0.41513640641E+00 -0.19543356629E+02  0.19552421777E+02  0.00000000000E+00 0. -1.
</event>
<event>
 7    1  0.7596051E-010  0.4778727E+02  0.7816164E-02  0.1312668E+00
        -11   -1    0    0    0    0  0.00000000000E+00  0.00000000000E+00  0.45593999997E+02  0.45594000000E+02  0.51100000000E-03 0. -1.
         11   -1    0    0    0    0 -0.00000000000E+00 -0.00000000000E+00 -0.45593999997E+02  0.45594000000E+02  0.51100000000E-03 0.  1.
    9900012    2    1    2    0    0 -0.88926491361E+01  0.24415439769E+02 -0.34762489205E+02  0.47787267708E+02  0.19999984789E+02 0.  0.
         12    1    1    2    0    0  0.88926491361E+01 -0.24415439769E+02  0.34762489205E+02  0.43400732292E+02  0.00000000000E+00 0. -1.
         11    1    3    3    0    0 -0.25120244517E+01 -0.11656344447E+01 -0.40209934451E+01  0.48823517951E+01  0.51100000000E-03 0. -1.
        -11    1    3    3    0    0  0.10836710663E+01  0.80821440381E+01 -0.18671879588E+02  0.20374849272E+02  0.51100000000E-03 0.  1.
        -12    1    3    3    0    0 -0.74642957507E+01  0.17498930175E+02 -0.12069616171E+02  0.22530066641E+02  0.00000000000E+00 0.  1.
</event>
<event>
 7    1  0.7596051E-010  0.4778727E+02  0.7816164E-02  0.1312668E+00
        -11   -1    0    0    0    0  0.00000000000E+00  0.00000000000E+00  0.45593999997E+02  0.45594000000E+02  0.51100000000E-03 0. -1.
         11   -1    0    0    0    0 -0.00000000000E+00 -0.00000000000E+00 -0.45593999997E+02  0.45594000000E+02  0.51100000000E-03 0.  1.
    9900012    2    1    2    0    0 -0.31056090521E+02 -0.12299542482E+02 -0.27710351317E+02  0.47787273349E+02  0.20000010509E+02 0.  0.
         12    1    1    2    0    0  0.31056090521E+02  0.12299542482E+02  0.27710351317E+02  0.43400726651E+02  0.00000000000E+00 0. -1.
         11    1    3    3    0    0 -0.10775110764E+02 -0.15723430281E+01 -0.20619050641E+01  0.11082722018E+02  0.51100000000E-03 0. -1.
        -11    1    3    3    0    0 -0.58009271439E+01  0.27652229249E+01 -0.71543012621E+01  0.96167167143E+01  0.51100000000E-03 0.  1.
         12    1    3    3    0    0 -0.14480052613E+02 -0.13492422379E+02 -0.18494144990E+02  0.27087834617E+02  0.00000000000E+00 0. -1.
</event>
<event>
 7    1  0.7596051E-010  0.4778727E+02  0.7816164E-02  0.1312668E+00
        -11   -1    0    0    0    0  0.00000000000E+00  0.00000000000E+00  0.45593999997E+02  0.45594000000E+02  0.51100000000E-03 0. -1.
         11   -1    0    0    0    0 -0.00000000000E+00 -0.00000000000E+00 -0.45593999997E+02  0.45594000000E+02  0.51100000000E-03 0.  1.
    9900012    2    1    2    0    0 -0.89098963007E+01  0.55978294793E+01  0.42105832241E+02  0.47787273558E+02  0.20000011460E+02 0.  0.
        -12    1    1    2    0    0  0.89098963007E+01 -0.55978294793E+01 -0.42105832241E+02  0.43400726442E+02  0.00000000000E+00 0.  1.
         11    1    3    3    0    0 -0.61622766706E+01  0.81385806145E+01  0.11668595240E+02  0.15503749976E+02  0.51100000000E-03 0. -1.
        -11    1    3    3    0    0 -0.53810389574E+01  0.38880843205E+00  0.90463782625E+01  0.10532982113E+02  0.51100000000E-03 0.  1.
        -12    1    3    3    0    0  0.26334193273E+01 -0.29295595673E+01  0.21390858739E+02  0.21750541469E+02  0.00000000000E+00 0.  1.
</event>
<event>
 7    1  0.7596051E-010  0.4778727E+02  0.7816164E-02  0.1312668E+00
        -11   -1    0    0    0    0  0.00000000000E+00  0.00000000000E+00  0.45593999997E+02  0.45594000000E+02  0.51100000000E-03 0. -1.
         11   -1    0    0    0    0 -0.00000000000E+00 -0.00000000000E+00 -0.45593999997E+02  0.45594000000E+02  0.51100000000E-03 0.  1.
    9900012    2    1    2    0    0  0.19869377783E+02 -0.19870667238E+02 -0.33075484927E+02  0.47787270823E+02  0.19999998991E+02 0.  0.
         12    1    1    2    0    0 -0.19869377783E+02  0.19870667238E+02  0.33075484927E+02  0.43400729177E+02  0.00000000000E+00 0. -1.
         11    1    3    3    0    0 -0.14268008650E+01 -0.50455955592E+00 -0.96350903900E+01  0.97532203983E+01  0.51100000000E-03 0. -1.
        -11    1    3    3    0    0  0.84860444297E+00 -0.33093867737E+01 -0.68671444022E+00  0.34847879853E+01  0.51100000000E-03 0.  1.
        -12    1    3    3    0    0  0.20447574205E+02 -0.16056720908E+02 -0.22753680097E+02  0.34549262440E+02  0.00000000000E+00 0.  1.
</event>
<event>
 7    1  0.7596051E-010  0.4778726E+02  0.7816164E-02  0.1312668E+00
        -11   -1    0    0    0    0  0.00000000000E+00  0.00000000000E+00  0.45593999997E+02  0.45594000000E+02  0.51100000000E-03 0. -1.
         11   -1    0    0    0    0 -0.00000000000E+00 -0.00000000000E+00 -0.45593999997E+02  0.45594000000E+02  0.51100000000E-03 0.  1.
    9900012    2    1    2    0    0  0.92819563452E+01 -0.57532018728E+01 -0.42004402421E+02  0.47787264198E+02  0.19999968785E+02 0.  0.
         12    1    1    2    0    0 -0.92819563452E+01  0.57532018728E+01  0.42004402421E+02  0.43400735802E+02  0.00000000000E+00 0. -1.
         11    1    3    3    0    0 -0.47380184137E+01 -0.49994154269E+01 -0.12530883741E+02  0.14299161538E+02  0.51100000000E-03 0. -1.
        -11    1    3    3    0    0 -0.26231644379E+00 -0.15711136748E+01 -0.29263952072E+01  0.33318159111E+01  0.51100000000E-03 0.  1.
         12    1    3    3    0    0  0.14282291203E+02  0.81732722890E+00 -0.26547123473E+02  0.30156286749E+02  0.00000000000E+00 0. -1.
</event>
<event>
 7    1  0.7596051E-010  0.4778727E+02  0.7816164E-02  0.1312668E+00
        -11   -1    0    0    0    0  0.00000000000E+00  0.00000000000E+00  0.45593999997E+02  0.45594000000E+02  0.51100000000E-03 0. -1.
         11   -1    0    0    0    0 -0.00000000000E+00 -0.00000000000E+00 -0.45593999997E+02  0.45594000000E+02  0.51100000000E-03 0.  1.
    9900012    2    1    2    0    0 -0.93471892182E+01 -0.38184754903E+01 -0.42209860945E+02  0.47787273481E+02  0.20000011111E+02 0.  0.
         12    1    1    2    0    0  0.93471892182E+01  0.38184754903E+01  0.42209860945E+02  0.43400726519E+02  0.00000000000E+00 0. -1.
         11    1    3    3    0    0 -0.61776747746E+01  0.14139143568E+01 -0.18153719034E+02  0.19228113128E+02  0.51100000000E-03 0.  1.
        -11    1    3    3    0    0  0.15957820909E+01  0.42080049579E-01 -0.20588222689E+02  0.20650017070E+02  0.51100000000E-03 0. -1.
        -12    1    3    3    0    0 -0.47652965346E+01 -0.52744698967E+01 -0.34679192214E+01  0.79091432836E+01  0.00000000000E+00 0.  1.
</event>
<event>
 7    1  0.7596051E-010  0.4778728E+02  0.7816164E-02  0.1312668E+00
        -11   -1    0    0    0    0  0.00000000000E+00  0.00000000000E+00  0.45593999997E+02  0.45594000000E+02  0.51100000000E-03 0. -1.
         11   -1    0    0    0    0 -0.00000000000E+00 -0.00000000000E+00 -0.45593999997E+02  0.45594000000E+02  0.51100000000E-03 0.  1.
    9900012    2    1    2    0    0 -0.65874256004E+01 -0.15182160261E+02 -0.40121446971E+02  0.47787277963E+02  0.20000031547E+02 0.  0.
         12    1    1    2    0    0  0.65874256004E+01  0.15182160261E+02  0.40121446971E+02  0.43400722037E+02  0.00000000000E+00 0. -1.
         11    1    3    3    0    0  0.12532713894E+01 -0.58146206453E+01 -0.13691352921E+02  0.14927613590E+02  0.51100000000E-03 0. -1.
        -11    1    3    3    0    0 -0.86722206961E+01 -0.11495311864E+02 -0.26914479090E+02  0.30524396663E+02  0.51100000000E-03 0.  1.
         12    1    3    3    0    0  0.83152370635E+00  0.21277722479E+01  0.48438504047E+00  0.23352677107E+01  0.00000000000E+00 0. -1.
</event>
<event>
 7    1  0.7596051E-010  0.4778727E+02  0.7816164E-02  0.1312668E+00
        -11   -1    0    0    0    0  0.00000000000E+00  0.00000000000E+00  0.45593999997E+02  0.45594000000E+02  0.51100000000E-03 0. -1.
         11   -1    0    0    0    0 -0.00000000000E+00 -0.00000000000E+00 -0.45593999997E+02  0.45594000000E+02  0.51100000000E-03 0.  1.
    9900012    2    1    2    0    0  0.77499787034E+01  0.20573810846E+02  0.37420306314E+02  0.47787272042E+02  0.20000004550E+02 0.  0.
        -12    1    1    2    0    0 -0.77499787034E+01 -0.20573810846E+02 -0.37420306314E+02  0.43400727958E+02  0.00000000000E+00 0.  1.
         11    1    3    3    0    0  0.68959049620E+01  0.64084619571E+01  0.83832795401E+01  0.12605604548E+02  0.51100000000E-03 0. -1.
        -11    1    3    3    0    0  0.70859286606E+01  0.93489589435E+01  0.14529563759E+02  0.18674090114E+02  0.51100000000E-03 0.  1.
        -12    1    3    3    0    0 -0.62318549191E+01  0.48163899450E+01  0.14507463016E+02  0.16507577381E+02  0.00000000000E+00 0.  1.
</event>
<event>
 7    1  0.7596051E-010  0.4778727E+02  0.7816164E-02  0.1312668E+00
        -11   -1    0    0    0    0  0.00000000000E+00  0.00000000000E+00  0.45593999997E+02  0.45594000000E+02  0.51100000000E-03 0. -1.
         11   -1    0    0    0    0 -0.00000000000E+00 -0.00000000000E+00 -0.45593999997E+02  0.45594000000E+02  0.51100000000E-03 0.  1.
    9900012    2    1    2    0    0 -0.16645092569E+02 -0.16193962720E+02  0.36664969422E+02  0.47787268233E+02  0.19999987182E+02 0.  0.
        -12    1    1    2    0    0  0.16645092569E+02  0.16193962720E+02 -0.36664969422E+02  0.43400731767E+02  0.00000000000E+00 0.  1.
         11    1    3    3    0    0 -0.24562039567E+01  0.22007383995E+01  0.14158297411E+01  0.35889777788E+01  0.51100000000E-03 0.  1.
        -11    1    3    3    0    0  0.10244630367E+01 -0.42742866760E+01  0.13217144649E+02  0.13928817755E+02  0.51100000000E-03 0. -1.
         12    1    3    3    0    0 -0.15213351649E+02 -0.14120414443E+02  0.22031995031E+02  0.30269472699E+02  0.00000000000E+00 0. -1.
</event>
<event>
 7    1  0.7596051E-010  0.4778728E+02  0.7816164E-02  0.1312668E+00
        -11   -1    0    0    0    0  0.00000000000E+00  0.00000000000E+00  0.45593999997E+02  0.45594000000E+02  0.51100000000E-03 0. -1.
         11   -1    0    0    0    0 -0.00000000000E+00 -0.00000000000E+00 -0.45593999997E+02  0.45594000000E+02  0.51100000000E-03 0.  1.
    9900012    2    1    2    0    0 -0.35417207431E+02  0.24764059275E+02  0.39981801547E+01  0.47787278134E+02  0.20000032324E+02 0.  0.
        -12    1    1    2    0    0  0.35417207431E+02 -0.24764059275E+02 -0.39981801547E+01  0.43400721866E+02  0.00000000000E+00 0.  1.
         11    1    3    3    0    0 -0.99384709279E+01 -0.51677779142E+00  0.22976264279E+01  0.10213684503E+02  0.51100000000E-03 0.  1.
        -11    1    3    3    0    0 -0.18312554003E+02  0.10701393672E+02 -0.24903034766E+00  0.21211588272E+02  0.51100000000E-03 0. -1.
        -12    1    3    3    0    0 -0.71661824996E+01  0.14579443394E+02  0.19495840745E+01  0.16362005359E+02  0.00000000000E+00 0.  1.
</event>
<event>
 7    1  0.7596051E-010  0.4778728E+02  0.7816164E-02  0.1312668E+00
        -11   -1    0    0    0    0  0.00000000000E+00  0.00000000000E+00  0.45593999997E+02  0.45594000000E+02  0.51100000000E-03 0. -1.
         11   -1    0    0    0    0 -0.00000000000E+00 -0.00000000000E+00 -0.45593999997E+02  0.45594000000E+02  0.51100000000E-03 0.  1.
    9900012    2    1    2    0    0  0.19372558100E+02 -0.36630173445E+02  0.12905706211E+02  0.47787275735E+02  0.20000021385E+02 0.  0.
        -12    1    1    2    0    0 -0.19372558100E+02  0.36630173445E+02 -0.12905706211E+02  0.43400724265E+02  0.00000000000E+00 0.  1.
         11    1    3    3    0    0  0.49112092741E+01 -0.70826416280E+01 -0.14418583335E+01  0.87385779552E+01  0.51100000000E-03 0. -1.
        -11    1    3    3    0    0  0.17002386509E+02 -0.27515528782E+02  0.10492358094E+02  0.34004044609E+02  0.51100000000E-03 0.  1.
        -12    1    3    3    0    0 -0.25410376826E+01 -0.20320030353E+01  0.38552064501E+01  0.50446531707E+01  0.00000000000E+00 0.  1.
</event>
<event>
 7    1  0.7596051E-010  0.4778726E+02  0.7816164E-02  0.1312668E+00
        -11   -1    0    0    0    0  0.00000000000E+00  0.00000000000E+00  0.45593999997E+02  0.45594000000E+02  0.51100000000E-03 0. -1.
         11   -1    0    0    0    0 -0.00000000000E+00 -0.00000000000E+00 -0.45593999997E+02  0.45594000000E+02  0.51100000000E-03 0.  1.
    9900012    2    1    2    0    0 -0.41984950366E+02 -0.15256618588E+01  0.10888556928E+02  0.47787258378E+02  0.19999942248E+02 0.  0.
        -12    1    1    2    0    0  0.41984950366E+02  0.15256618588E+01 -0.10888556928E+02  0.43400741622E+02  0.00000000000E+00 0.  1.
         11    1    3    3    0    0 -0.15905809611E+02 -0.80214985020E+00  0.51910513311E+01  0.16750678730E+02  0.51100000000E-03 0. -1.
        -11    1    3    3    0    0 -0.16132567145E+01 -0.29014893706E+01  0.55574765555E+01  0.64735449114E+01  0.51100000000E-03 0.  1.
        -12    1    3    3    0    0 -0.24465884041E+02  0.21779773620E+01  0.14002904124E+00  0.24563034736E+02  0.00000000000E+00 0.  1.
</event>
<event>
 7    1  0.7596051E-010  0.4778727E+02  0.7816164E-02  0.1312668E+00
        -11   -1    0    0    0    0  0.00000000000E+00  0.00000000000E+00  0.45593999997E+02  0.45594000000E+02  0.51100000000E-03 0. -1.
         11   -1    0    0    0    0 -0.00000000000E+00 -0.00000000000E+00 -0.45593999997E+02  0.45594000000E+02  0.51100000000E-03 0.  1.
    9900012    2    1    2    0    0  0.20516105641E+02  0.28312540596E+02 -0.25712109614E+02  0.47787272743E+02  0.20000007745E+02 0.  0.
         12    1    1    2    0    0 -0.20516105641E+02 -0.28312540596E+02  0.25712109614E+02  0.43400727257E+02  0.00000000000E+00 0. -1.
         11    1    3    3    0    0  0.10383445359E+01  0.59698647270E+00 -0.29586264210E+01  0.31918682278E+01  0.51100000000E-03 0. -1.
        -11    1    3    3    0    0  0.10684853429E+02  0.19887960202E+02 -0.47279709052E+01  0.23066225590E+02  0.51100000000E-03 0.  1.
        -12    1    3    3    0    0  0.87929076758E+01  0.78275939204E+01 -0.18025512288E+02  0.21529178926E+02  0.00000000000E+00 0.  1.
</event>
<event>
 7    1  0.7596051E-010  0.4778727E+02  0.7816164E-02  0.1312668E+00
        -11   -1    0    0    0    0  0.00000000000E+00  0.00000000000E+00  0.45593999997E+02  0.45594000000E+02  0.51100000000E-03 0. -1.
         11   -1    0    0    0    0 -0.00000000000E+00 -0.00000000000E+00 -0.45593999997E+02  0.45594000000E+02  0.51100000000E-03 0.  1.
    9900012    2    1    2    0    0 -0.15879634921E+02  0.14316387591E+02  0.37769056277E+02  0.47787269926E+02  0.19999994901E+02 0.  0.
        -12    1    1    2    0    0  0.15879634921E+02 -0.14316387591E+02 -0.37769056277E+02  0.43400730074E+02  0.00000000000E+00 0.  1.
         11    1    3    3    0    0 -0.99558946861E+01  0.92807081835E+01  0.25133503544E+02  0.28582238961E+02  0.51100000000E-03 0. -1.
        -11    1    3    3    0    0  0.34952958155E+00  0.17273111796E+01  0.11950594006E+02  0.12079837425E+02  0.51100000000E-03 0.  1.
         12    1    3    3    0    0 -0.62732698165E+01  0.33083682282E+01  0.68495872657E+00  0.71251935399E+01  0.00000000000E+00 0. -1.
</event>
<event>
 7    1  0.7596051E-010  0.4778728E+02  0.7816164E-02  0.1312668E+00
        -11   -1    0    0    0    0  0.00000000000E+00  0.00000000000E+00  0.45593999997E+02  0.45594000000E+02  0.51100000000E-03 0. -1.
         11   -1    0    0    0    0 -0.00000000000E+00 -0.00000000000E+00 -0.45593999997E+02  0.45594000000E+02  0.51100000000E-03 0.  1.
    9900012    2    1    2    0    0 -0.29119904822E+02  0.29143597845E+02  0.13649321462E+02  0.47787284239E+02  0.20000060160E+02 0.  0.
        -12    1    1    2    0    0  0.29119904822E+02 -0.29143597845E+02 -0.13649321462E+02  0.43400715761E+02  0.00000000000E+00 0.  1.
         11    1    3    3    0    0 -0.44945181185E+01 -0.92095592944E+00  0.66913164578E+00  0.46364415625E+01  0.51100000000E-03 0. -1.
        -11    1    3    3    0    0 -0.69481995230E+01  0.92640396603E+00  0.13383906020E+01  0.71363149163E+01  0.51100000000E-03 0.  1.
         12    1    3    3    0    0 -0.17677187181E+02  0.29138149808E+02  0.11641799214E+02  0.36014527760E+02  0.00000000000E+00 0. -1.
</event>
<event>
 7    1  0.7596051E-010  0.4778728E+02  0.7816164E-02  0.1312668E+00
        -11   -1    0    0    0    0  0.00000000000E+00  0.00000000000E+00  0.45593999997E+02  0.45594000000E+02  0.51100000000E-03 0.  1.
         11   -1    0    0    0    0 -0.00000000000E+00 -0.00000000000E+00 -0.45593999997E+02  0.45594000000E+02  0.51100000000E-03 0. -1.
    9900012    2    1    2    0    0 -0.24101045019E+02  0.34026913830E+02  0.12038726216E+02  0.47787283823E+02  0.20000058264E+02 0.  0.
        -12    1    1    2    0    0  0.24101045019E+02 -0.34026913830E+02 -0.12038726216E+02  0.43400716177E+02  0.00000000000E+00 0.  1.
         11    1    3    3    0    0 -0.14503361514E+02  0.15814744099E+02  0.37998054749E+01  0.21792020283E+02  0.51100000000E-03 0. -1.
        -11    1    3    3    0    0 -0.47040428538E+01  0.38600583883E+01 -0.33169657260E+01  0.69303918952E+01  0.51100000000E-03 0.  1.
         12    1    3    3    0    0 -0.48936406512E+01  0.14352111342E+02  0.11555886467E+02  0.19064871645E+02  0.00000000000E+00 0. -1.
</event>
<event>
 7    1  0.7596051E-010  0.4778727E+02  0.7816164E-02  0.1312668E+00
        -11   -1    0    0    0    0  0.00000000000E+00  0.00000000000E+00  0.45593999997E+02  0.45594000000E+02  0.51100000000E-03 0. -1.
         11   -1    0    0    0    0 -0.00000000000E+00 -0.00000000000E+00 -0.45593999997E+02  0.45594000000E+02  0.51100000000E-03 0.  1.
    9900012    2    1    2    0    0 -0.12890633681E+02  0.34598181349E+02 -0.22812736970E+02  0.47787267778E+02  0.19999985107E+02 0.  0.
         12    1    1    2    0    0  0.12890633681E+02 -0.34598181349E+02  0.22812736970E+02  0.43400732222E+02  0.00000000000E+00 0. -1.
         11    1    3    3    0    0  0.30309438542E+01  0.66055869515E+01 -0.73191314948E+01  0.10314556981E+02  0.51100000000E-03 0. -1.
        -11    1    3    3    0    0 -0.80410742431E+01  0.17899306282E+02 -0.14927061921E+02  0.24654841679E+02  0.51100000000E-03 0.  1.
         12    1    3    3    0    0 -0.78805032920E+01  0.10093288115E+02 -0.56654355393E+00  0.12817869118E+02  0.00000000000E+00 0. -1.
</event>
<event>
 7    1  0.7596051E-010  0.4778727E+02  0.7816164E-02  0.1312668E+00
        -11   -1    0    0    0    0  0.00000000000E+00  0.00000000000E+00  0.45593999997E+02  0.45594000000E+02  0.51100000000E-03 0. -1.
         11   -1    0    0    0    0 -0.00000000000E+00 -0.00000000000E+00 -0.45593999997E+02  0.45594000000E+02  0.51100000000E-03 0.  1.
    9900012    2    1    2    0    0 -0.33216698741E+02  0.24463259554E+02  0.13484180624E+02  0.47787271085E+02  0.20000000183E+02 0.  0.
        -12    1    1    2    0    0  0.33216698741E+02 -0.24463259554E+02 -0.13484180624E+02  0.43400728915E+02  0.00000000000E+00 0.  1.
         11    1    3    3    0    0 -0.19694271346E+02  0.12222764645E+02  0.72746916246E+01  0.24293650156E+02  0.51100000000E-03 0. -1.
        -11    1    3    3    0    0 -0.10556300094E+02  0.60548458051E+01  0.99145552612E+01  0.15696975367E+02  0.51100000000E-03 0.  1.
        -12    1    3    3    0    0 -0.29661273016E+01  0.61856491036E+01 -0.37050662614E+01  0.77966455610E+01  0.00000000000E+00 0.  1.
</event>
<event>
 7    1  0.7596051E-010  0.4778726E+02  0.7816164E-02  0.1312668E+00
        -11   -1    0    0    0    0  0.00000000000E+00  0.00000000000E+00  0.45593999997E+02  0.45594000000E+02  0.51100000000E-03 0.  1.
         11   -1    0    0    0    0 -0.00000000000E+00 -0.00000000000E+00 -0.45593999997E+02  0.45594000000E+02  0.51100000000E-03 0. -1.
    9900012    2    1    2    0    0  0.15174663003E+02  0.40135495305E+02  0.65188866283E+01  0.47787259644E+02  0.19999948019E+02 0.  0.
        -12    1    1    2    0    0 -0.15174663003E+02 -0.40135495305E+02 -0.65188866283E+01  0.43400740356E+02  0.00000000000E+00 0.  1.
         11    1    3    3    0    0  0.20712708317E+01  0.12157393596E+02  0.44558379692E+01  0.13112851489E+02  0.51100000000E-03 0. -1.
        -11    1    3    3    0    0 -0.11519077471E+01  0.21602517976E+01  0.44573550971E+01  0.50854295796E+01  0.51100000000E-03 0.  1.
         12    1    3    3    0    0  0.14255299918E+02  0.25817849912E+02 -0.23943064380E+01  0.29588978575E+02  0.00000000000E+00 0. -1.
</event>
<event>
 7    1  0.7596051E-010  0.4778727E+02  0.7816164E-02  0.1312668E+00
        -11   -1    0    0    0    0  0.00000000000E+00  0.00000000000E+00  0.45593999997E+02  0.45594000000E+02  0.51100000000E-03 0. -1.
         11   -1    0    0    0    0 -0.00000000000E+00 -0.00000000000E+00 -0.45593999997E+02  0.45594000000E+02  0.51100000000E-03 0.  1.
    9900012    2    1    2    0    0  0.68730472501E+01  0.15608819793E+02  0.39909263873E+02  0.47787269860E+02  0.19999994599E+02 0.  0.
        -12    1    1    2    0    0 -0.68730472501E+01 -0.15608819793E+02 -0.39909263873E+02  0.43400730140E+02  0.00000000000E+00 0.  1.
         11    1    3    3    0    0  0.53348196144E+00  0.68688171813E+01  0.13602134974E+02  0.15247403995E+02  0.51100000000E-03 0. -1.
        -11    1    3    3    0    0  0.49229538387E+01  0.87943458376E+01  0.28330204024E+02  0.30069526992E+02  0.51100000000E-03 0.  1.
        -12    1    3    3    0    0  0.14166114499E+01 -0.54343225949E-01 -0.20230751251E+01  0.24703388732E+01  0.00000000000E+00 0.  1.
</event>
<event>
 7    1  0.7596051E-010  0.4778727E+02  0.7816164E-02  0.1312668E+00
        -11   -1    0    0    0    0  0.00000000000E+00  0.00000000000E+00  0.45593999997E+02  0.45594000000E+02  0.51100000000E-03 0. -1.
         11   -1    0    0    0    0 -0.00000000000E+00 -0.00000000000E+00 -0.45593999997E+02  0.45594000000E+02  0.51100000000E-03 0.  1.
    9900012    2    1    2    0    0  0.68854069026E+01 -0.41362997852E+02  0.11194505986E+02  0.47787269778E+02  0.19999994228E+02 0.  0.
        -12    1    1    2    0    0 -0.68854069026E+01  0.41362997852E+02 -0.11194505986E+02  0.43400730222E+02  0.00000000000E+00 0.  1.
         11    1    3    3    0    0  0.28917481759E+01 -0.36954896689E+01  0.70829335212E+00  0.47455801689E+01  0.51100000000E-03 0. -1.
        -11    1    3    3    0    0  0.43505094914E+01 -0.47645412981E+01  0.76607076068E+01  0.10015699073E+02  0.51100000000E-03 0.  1.
         12    1    3    3    0    0 -0.35685076470E+00 -0.32902966885E+02  0.28255050273E+01  0.33025990537E+02  0.00000000000E+00 0. -1.
</event>
<event>
 7    1  0.7596051E-010  0.4778726E+02  0.7816164E-02  0.1312668E+00
        -11   -1    0    0    0    0  0.00000000000E+00  0.00000000000E+00  0.45593999997E+02  0.45594000000E+02  0.51100000000E-03 0.  1.
         11   -1    0    0    0    0 -0.00000000000E+00 -0.00000000000E+00 -0.45593999997E+02  0.45594000000E+02  0.51100000000E-03 0. -1.
    9900012    2    1    2    0    0  0.31832447389E+02  0.28871149840E+02 -0.60643457073E+01  0.47787259353E+02  0.19999946693E+02 0.  0.
         12    1    1    2    0    0 -0.31832447389E+02 -0.28871149840E+02  0.60643457073E+01  0.43400740647E+02  0.00000000000E+00 0. -1.
         11    1    3    3    0    0 -0.17541433225E+01  0.19978252578E+00 -0.23285010582E+01  0.29221309507E+01  0.51100000000E-03 0. -1.
        -11    1    3    3    0    0  0.92359393104E+01  0.56988189158E+01 -0.34479047759E+01  0.11387148879E+02  0.51100000000E-03 0.  1.
         12    1    3    3    0    0  0.24350651401E+02  0.22972548399E+02 -0.28793987315E+00  0.33477979523E+02  0.00000000000E+00 0. -1.
</event>
<event>
 7    1  0.7596051E-010  0.4778727E+02  0.7816164E-02  0.1312668E+00
        -11   -1    0    0    0    0  0.00000000000E+00  0.00000000000E+00  0.45593999997E+02  0.45594000000E+02  0.51100000000E-03 0. -1.
         11   -1    0    0    0    0 -0.00000000000E+00 -0.00000000000E+00 -0.45593999997E+02  0.45594000000E+02  0.51100000000E-03 0.  1.
    9900012    2    1    2    0    0 -0.13070005994E+02 -0.47110735943E-01 -0.41385935536E+02  0.47787274933E+02  0.20000017731E+02 0.  0.
         12    1    1    2    0    0  0.13070005994E+02  0.47110735943E-01  0.41385935536E+02  0.43400725067E+02  0.00000000000E+00 0. -1.
         11    1    3    3    0    0  0.27311850801E+01  0.41320077522E+00 -0.14794389089E+02  0.15050051681E+02  0.51100000000E-03 0. -1.
        -11    1    3    3    0    0 -0.64484316563E+01 -0.20417199919E+01 -0.20192033414E+02  0.21294814040E+02  0.51100000000E-03 0.  1.
        -12    1    3    3    0    0 -0.93527594182E+01  0.15814084808E+01 -0.63995130327E+01  0.11442409212E+02  0.00000000000E+00 0.  1.
</event>
<event>
 7    1  0.7596051E-010  0.4778727E+02  0.7816164E-02  0.1312668E+00
        -11   -1    0    0    0    0  0.00000000000E+00  0.00000000000E+00  0.45593999997E+02  0.45594000000E+02  0.51100000000E-03 0.  1.
         11   -1    0    0    0    0 -0.00000000000E+00 -0.00000000000E+00 -0.45593999997E+02  0.45594000000E+02  0.51100000000E-03 0. -1.
    9900012    2    1    2    0    0 -0.26130841356E+02 -0.34232492299E+02  0.53795071097E+01  0.47787268488E+02  0.19999988346E+02 0.  0.
        -12    1    1    2    0    0  0.26130841356E+02  0.34232492299E+02 -0.53795071097E+01  0.43400731512E+02  0.00000000000E+00 0.  1.
         11    1    3    3    0    0 -0.20983679695E+02 -0.23876986833E+02  0.59391553988E+01  0.32337267678E+02  0.51100000000E-03 0. -1.
        -11    1    3    3    0    0 -0.64986537997E+01 -0.33057762463E+01  0.24139441741E+01  0.76803505477E+01  0.51100000000E-03 0.  1.
         12    1    3    3    0    0  0.13514921378E+01 -0.70497292198E+01 -0.29735924632E+01  0.77696502629E+01  0.00000000000E+00 0. -1.
</event>
<event>
 7    1  0.7596051E-010  0.4778727E+02  0.7816164E-02  0.1312668E+00
        -11   -1    0    0    0    0  0.00000000000E+00  0.00000000000E+00  0.45593999997E+02  0.45594000000E+02  0.51100000000E-03 0. -1.
         11   -1    0    0    0    0 -0.00000000000E+00 -0.00000000000E+00 -0.45593999997E+02  0.45594000000E+02  0.51100000000E-03 0.  1.
    9900012    2    1    2    0    0 -0.23807049873E+02  0.39989154159E+01 -0.36067382753E+02  0.47787273660E+02  0.20000011926E+02 0.  0.
         12    1    1    2    0    0  0.23807049873E+02 -0.39989154159E+01  0.36067382753E+02  0.43400726340E+02  0.00000000000E+00 0. -1.
         11    1    3    3    0    0 -0.11381775461E+02 -0.10797952065E+01 -0.14830543016E+02  0.18725805103E+02  0.51100000000E-03 0. -1.
        -11    1    3    3    0    0 -0.99087162003E+01 -0.18756060430E+01 -0.18694371301E+02  0.21240999820E+02  0.51100000000E-03 0.  1.
         12    1    3    3    0    0 -0.25165582118E+01  0.69543166654E+01 -0.25424684357E+01  0.78204687368E+01  0.00000000000E+00 0. -1.
</event>
<event>
 7    1  0.7596051E-010  0.4778726E+02  0.7816164E-02  0.1312668E+00
        -11   -1    0    0    0    0  0.00000000000E+00  0.00000000000E+00  0.45593999997E+02  0.45594000000E+02  0.51100000000E-03 0. -1.
         11   -1    0    0    0    0 -0.00000000000E+00 -0.00000000000E+00 -0.45593999997E+02  0.45594000000E+02  0.51100000000E-03 0.  1.
    9900012    2    1    2    0    0  0.20215401375E+02 -0.84518136264E+01 -0.37463691714E+02  0.47787264947E+02  0.19999972197E+02 0.  0.
         12    1    1    2    0    0 -0.20215401375E+02  0.84518136264E+01  0.37463691714E+02  0.43400735053E+02  0.00000000000E+00 0. -1.
         11    1    3    3    0    0  0.24211110480E+01 -0.27959542155E+00  0.27364499551E+00  0.24525158819E+01  0.51100000000E-03 0. -1.
        -11    1    3    3    0    0  0.80897690917E+01 -0.11959047755E+02 -0.18603709008E+02  0.23549122622E+02  0.51100000000E-03 0.  1.
         12    1    3    3    0    0  0.97045212352E+01  0.37868295507E+01 -0.19133627702E+02  0.21785626442E+02  0.00000000000E+00 0. -1.
</event>
<event>
 7    1  0.7596051E-010  0.4778727E+02  0.7816164E-02  0.1312668E+00
        -11   -1    0    0    0    0  0.00000000000E+00  0.00000000000E+00  0.45593999997E+02  0.45594000000E+02  0.51100000000E-03 0. -1.
         11   -1    0    0    0    0 -0.00000000000E+00 -0.00000000000E+00 -0.45593999997E+02  0.45594000000E+02  0.51100000000E-03 0.  1.
    9900012    2    1    2    0    0  0.11700884745E+02  0.31141502330E+01 -0.41677510519E+02  0.47787268226E+02  0.19999987149E+02 0.  0.
         12    1    1    2    0    0 -0.11700884745E+02 -0.31141502330E+01  0.41677510519E+02  0.43400731774E+02  0.00000000000E+00 0. -1.
         11    1    3    3    0    0  0.17013772379E+02  0.29906753864E+01 -0.29568547258E+02  0.34244876654E+02  0.51100000000E-03 0. -1.
        -11    1    3    3    0    0 -0.23225537872E+01 -0.13650779645E+01 -0.47498377370E+01  0.54606458164E+01  0.51100000000E-03 0.  1.
         12    1    3    3    0    0 -0.29903338466E+01  0.14885528111E+01 -0.73591255236E+01  0.80817457556E+01  0.00000000000E+00 0. -1.
</event>
<event>
 7    1  0.7596051E-010  0.4778727E+02  0.7816164E-02  0.1312668E+00
        -11   -1    0    0    0    0  0.00000000000E+00  0.00000000000E+00  0.45593999997E+02  0.45594000000E+02  0.51100000000E-03 0.  1.
         11   -1    0    0    0    0 -0.00000000000E+00 -0.00000000000E+00 -0.45593999997E+02  0.45594000000E+02  0.51100000000E-03 0. -1.
    9900012    2    1    2    0    0  0.13148409475E+02  0.37724558589E+02 -0.16958779430E+02  0.47787271986E+02  0.20000004292E+02 0.  0.
         12    1    1    2    0    0 -0.13148409475E+02 -0.37724558589E+02  0.16958779430E+02  0.43400728014E+02  0.00000000000E+00 0. -1.
         11    1    3    3    0    0 -0.21154676001E+01  0.36558105694E+01 -0.78878024985E+00  0.42967811941E+01  0.51100000000E-03 0. -1.
        -11    1    3    3    0    0  0.86413612437E+01  0.20404859755E+02 -0.17516946068E+02  0.28246678133E+02  0.51100000000E-03 0.  1.
        -12    1    3    3    0    0  0.66225158310E+01  0.13663888265E+02  0.13469468885E+01  0.15243812658E+02  0.00000000000E+00 0.  1.
</event>
<event>
 7    1  0.7596051E-010  0.4778726E+02  0.7816164E-02  0.1312668E+00
        -11   -1    0    0    0    0  0.00000000000E+00  0.00000000000E+00  0.45593999997E+02  0.45594000000E+02  0.51100000000E-03 0. -1.
         11   -1    0    0    0    0 -0.00000000000E+00 -0.00000000000E+00 -0.45593999997E+02  0.45594000000E+02  0.51100000000E-03 0.  1.
    9900012    2    1    2    0    0 -0.53824118474E+01 -0.45406451205E+01  0.42825650060E+02  0.47787261315E+02  0.19999955638E+02 0.  0.
        -12    1    1    2    0    0  0.53824118474E+01  0.45406451205E+01 -0.42825650060E+02  0.43400738685E+02  0.00000000000E+00 0.  1.
         11    1    3    3    0    0 -0.60200642055E+01  0.36030890358E+01  0.16719370399E+02  0.18131761372E+02  0.51100000000E-03 0. -1.
        -11    1    3    3    0    0  0.10400575080E+01 -0.79885673704E+00 -0.94853535694E+00  0.16185213285E+01  0.51100000000E-03 0.  1.
        -12    1    3    3    0    0 -0.40240514989E+00 -0.73448774192E+01  0.27054815017E+02  0.28036978615E+02  0.00000000000E+00 0.  1.
</event>
<event>
 7    1  0.7596051E-010  0.4778727E+02  0.7816164E-02  0.1312668E+00
        -11   -1    0    0    0    0  0.00000000000E+00  0.00000000000E+00  0.45593999997E+02  0.45594000000E+02  0.51100000000E-03 0. -1.
         11   -1    0    0    0    0 -0.00000000000E+00 -0.00000000000E+00 -0.45593999997E+02  0.45594000000E+02  0.51100000000E-03 0.  1.
    9900012    2    1    2    0    0  0.18857245334E+02 -0.46644052213E+00 -0.39087216589E+02  0.47787265340E+02  0.19999973992E+02 0.  0.
         12    1    1    2    0    0 -0.18857245334E+02  0.46644052213E+00  0.39087216589E+02  0.43400734660E+02  0.00000000000E+00 0. -1.
         11    1    3    3    0    0  0.52657822184E+01 -0.34852217216E+00 -0.21159808053E+02  0.21807966598E+02  0.51100000000E-03 0.  1.
        -11    1    3    3    0    0  0.32062883072E+01 -0.11048513218E+01 -0.14660685856E+02  0.15047813501E+02  0.51100000000E-03 0. -1.
        -12    1    3    3    0    0  0.10385174808E+02  0.98693297180E+00 -0.32667226805E+01  0.10931485240E+02  0.00000000000E+00 0.  1.
</event>
<event>
 7    1  0.7596051E-010  0.4778727E+02  0.7816164E-02  0.1312668E+00
        -11   -1    0    0    0    0  0.00000000000E+00  0.00000000000E+00  0.45593999997E+02  0.45594000000E+02  0.51100000000E-03 0. -1.
         11   -1    0    0    0    0 -0.00000000000E+00 -0.00000000000E+00 -0.45593999997E+02  0.45594000000E+02  0.51100000000E-03 0.  1.
    9900012    2    1    2    0    0 -0.16627238134E+02  0.25250837232E+02  0.31137656450E+02  0.47787268691E+02  0.19999989272E+02 0.  0.
        -12    1    1    2    0    0  0.16627238134E+02 -0.25250837232E+02 -0.31137656450E+02  0.43400731309E+02  0.00000000000E+00 0.  1.
         11    1    3    3    0    0 -0.12348063458E+02  0.25535141325E+02  0.26975419100E+02  0.39143215881E+02  0.51100000000E-03 0. -1.
        -11    1    3    3    0    0 -0.32551007215E+01  0.18244022535E+01  0.49248945663E+01  0.61788923798E+01  0.51100000000E-03 0.  1.
        -12    1    3    3    0    0 -0.10240739538E+01 -0.21087063463E+01 -0.76265721582E+00  0.24651604302E+01  0.00000000000E+00 0.  1.
</event>
<event>
 7    1  0.7596051E-010  0.4778727E+02  0.7816164E-02  0.1312668E+00
        -11   -1    0    0    0    0  0.00000000000E+00  0.00000000000E+00  0.45593999997E+02  0.45594000000E+02  0.51100000000E-03 0. -1.
         11   -1    0    0    0    0 -0.00000000000E+00 -0.00000000000E+00 -0.45593999997E+02  0.45594000000E+02  0.51100000000E-03 0.  1.
    9900012    2    1    2    0    0 -0.10275028491E+02  0.24805122709E+02  0.34099164998E+02  0.47787269861E+02  0.19999994603E+02 0.  0.
        -12    1    1    2    0    0  0.10275028491E+02 -0.24805122709E+02 -0.34099164998E+02  0.43400730139E+02  0.00000000000E+00 0.  1.
         11    1    3    3    0    0 -0.89527879051E+01  0.14430408415E+02  0.90948324510E+01  0.19264087725E+02  0.51100000000E-03 0.  1.
        -11    1    3    3    0    0 -0.43902962257E+01  0.26400234606E+01  0.68594224538E+01  0.85613142381E+01  0.51100000000E-03 0. -1.
        -12    1    3    3    0    0  0.30680556400E+01  0.77346908333E+01  0.18144910093E+02  0.19961867898E+02  0.00000000000E+00 0.  1.
</event>
<event>
 7    1  0.7596051E-010  0.4778728E+02  0.7816164E-02  0.1312668E+00
        -11   -1    0    0    0    0  0.00000000000E+00  0.00000000000E+00  0.45593999997E+02  0.45594000000E+02  0.51100000000E-03 0. -1.
         11   -1    0    0    0    0 -0.00000000000E+00 -0.00000000000E+00 -0.45593999997E+02  0.45594000000E+02  0.51100000000E-03 0.  1.
    9900012    2    1    2    0    0  0.21936362239E+02  0.27662484117E+02  0.25242925595E+02  0.47787282167E+02  0.20000050711E+02 0.  0.
        -12    1    1    2    0    0 -0.21936362239E+02 -0.27662484117E+02 -0.25242925595E+02  0.43400717833E+02  0.00000000000E+00 0.  1.
         11    1    3    3    0    0  0.15657924297E+02  0.25093475522E+02  0.17817745344E+02  0.34530061634E+02  0.51100000000E-03 0. -1.
        -11    1    3    3    0    0  0.40694448311E+01  0.49218262607E+01  0.77169252442E+01  0.10016770461E+02  0.51100000000E-03 0.  1.
        -12    1    3    3    0    0  0.22089931112E+01 -0.23528176651E+01 -0.29174499260E+00  0.32404500724E+01  0.00000000000E+00 0.  1.
</event>
<event>
 7    1  0.7596051E-010  0.4778727E+02  0.7816164E-02  0.1312668E+00
        -11   -1    0    0    0    0  0.00000000000E+00  0.00000000000E+00  0.45593999997E+02  0.45594000000E+02  0.51100000000E-03 0. -1.
         11   -1    0    0    0    0 -0.00000000000E+00 -0.00000000000E+00 -0.45593999997E+02  0.45594000000E+02  0.51100000000E-03 0.  1.
    9900012    2    1    2    0    0 -0.36346598307E+02  0.22147718480E+02  0.84868453937E+01  0.47787272044E+02  0.20000004558E+02 0.  0.
        -12    1    1    2    0    0  0.36346598307E+02 -0.22147718480E+02 -0.84868453937E+01  0.43400727956E+02  0.00000000000E+00 0.  1.
         11    1    3    3    0    0 -0.12987540800E+02  0.77543753896E+01  0.17672989884E+01  0.15229244882E+02  0.51100000000E-03 0. -1.
        -11    1    3    3    0    0 -0.14941008887E+02  0.98197214209E+01 -0.38541120545E+01  0.18289747273E+02  0.51100000000E-03 0.  1.
         12    1    3    3    0    0 -0.84180486201E+01  0.45736216697E+01  0.10573658460E+02  0.14268279888E+02  0.00000000000E+00 0. -1.
</event>
<event>
 7    1  0.7596051E-010  0.4778728E+02  0.7816164E-02  0.1312668E+00
        -11   -1    0    0    0    0  0.00000000000E+00  0.00000000000E+00  0.45593999997E+02  0.45594000000E+02  0.51100000000E-03 0. -1.
         11   -1    0    0    0    0 -0.00000000000E+00 -0.00000000000E+00 -0.45593999997E+02  0.45594000000E+02  0.51100000000E-03 0.  1.
    9900012    2    1    2    0    0 -0.17008140974E+02 -0.87566545552E+01  0.38957246449E+02  0.47787275245E+02  0.20000019151E+02 0.  0.
        -12    1    1    2    0    0  0.17008140974E+02  0.87566545552E+01 -0.38957246449E+02  0.43400724755E+02  0.00000000000E+00 0.  1.
         11    1    3    3    0    0 -0.26741961885E+01 -0.48061230805E+01  0.82635946067E+01  0.99265875508E+01  0.51100000000E-03 0. -1.
        -11    1    3    3    0    0  0.22448352379E+01  0.32739958538E+01  0.70877442962E+01  0.81236970380E+01  0.51100000000E-03 0.  1.
         12    1    3    3    0    0 -0.16578780023E+02 -0.72245273285E+01  0.23605907546E+02  0.29736990656E+02  0.00000000000E+00 0. -1.
</event>
<event>
 7    1  0.7596051E-010  0.4778727E+02  0.7816164E-02  0.1312668E+00
        -11   -1    0    0    0    0  0.00000000000E+00  0.00000000000E+00  0.45593999997E+02  0.45594000000E+02  0.51100000000E-03 0. -1.
         11   -1    0    0    0    0 -0.00000000000E+00 -0.00000000000E+00 -0.45593999997E+02  0.45594000000E+02  0.51100000000E-03 0.  1.
    9900012    2    1    2    0    0 -0.18082140624E+02 -0.44017978654E+00 -0.39452067121E+02  0.47787272266E+02  0.20000005567E+02 0.  0.
         12    1    1    2    0    0  0.18082140624E+02  0.44017978654E+00  0.39452067121E+02  0.43400727734E+02  0.00000000000E+00 0. -1.
         11    1    3    3    0    0 -0.91627437652E+01 -0.31833736626E+01 -0.11397802713E+02  0.14966617792E+02  0.51100000000E-03 0. -1.
        -11    1    3    3    0    0 -0.16188148490E+01 -0.52617749111E+01 -0.14223420035E+02  0.15251639731E+02  0.51100000000E-03 0.  1.
         12    1    3    3    0    0 -0.73005820097E+01  0.80049687872E+01 -0.13830844373E+02  0.17569014743E+02  0.00000000000E+00 0. -1.
</event>
<event>
 7    1  0.7596051E-010  0.4778727E+02  0.7816164E-02  0.1312668E+00
        -11   -1    0    0    0    0  0.00000000000E+00  0.00000000000E+00  0.45593999997E+02  0.45594000000E+02  0.51100000000E-03 0. -1.
         11   -1    0    0    0    0 -0.00000000000E+00 -0.00000000000E+00 -0.45593999997E+02  0.45594000000E+02  0.51100000000E-03 0.  1.
    9900012    2    1    2    0    0  0.11533808047E+02 -0.38664929421E+02  0.15988057003E+02  0.47787268878E+02  0.19999990124E+02 0.  0.
        -12    1    1    2    0    0 -0.11533808047E+02  0.38664929421E+02 -0.15988057003E+02  0.43400731122E+02  0.00000000000E+00 0.  1.
         11    1    3    3    0    0  0.68840537724E+01 -0.96572706393E+01  0.66528690036E+01  0.13598299114E+02  0.51100000000E-03 0. -1.
        -11    1    3    3    0    0  0.59950425540E+01 -0.79624738646E+01  0.84753426142E+01  0.13083308372E+02  0.51100000000E-03 0.  1.
         12    1    3    3    0    0 -0.13452882791E+01 -0.21045184917E+02  0.85984538498E+00  0.21105661393E+02  0.00000000000E+00 0. -1.
</event>
<event>
 7    1  0.7596051E-010  0.4778727E+02  0.7816164E-02  0.1312668E+00
        -11   -1    0    0    0    0  0.00000000000E+00  0.00000000000E+00  0.45593999997E+02  0.45594000000E+02  0.51100000000E-03 0. -1.
         11   -1    0    0    0    0 -0.00000000000E+00 -0.00000000000E+00 -0.45593999997E+02  0.45594000000E+02  0.51100000000E-03 0.  1.
    9900012    2    1    2    0    0 -0.97282924667E+01 -0.19300460981E+02 -0.37636099223E+02  0.47787269210E+02  0.19999991634E+02 0.  0.
         12    1    1    2    0    0  0.97282924667E+01  0.19300460981E+02  0.37636099223E+02  0.43400730790E+02  0.00000000000E+00 0. -1.
         11    1    3    3    0    0  0.11991473852E+00 -0.63326909026E+00  0.55162296304E+00  0.84834983330E+00  0.51100000000E-03 0. -1.
        -11    1    3    3    0    0 -0.63719908456E+01 -0.21433446899E+01 -0.23875197907E+02  0.24803654351E+02  0.51100000000E-03 0.  1.
         12    1    3    3    0    0 -0.34762163596E+01 -0.16523847201E+02 -0.14312524279E+02  0.22135265025E+02  0.00000000000E+00 0. -1.
</event>
<event>
 7    1  0.7596051E-010  0.4778727E+02  0.7816164E-02  0.1312668E+00
        -11   -1    0    0    0    0  0.00000000000E+00  0.00000000000E+00  0.45593999997E+02  0.45594000000E+02  0.51100000000E-03 0. -1.
         11   -1    0    0    0    0 -0.00000000000E+00 -0.00000000000E+00 -0.45593999997E+02  0.45594000000E+02  0.51100000000E-03 0.  1.
    9900012    2    1    2    0    0 -0.29621393187E+02 -0.28145198740E+02 -0.14630258391E+02  0.47787267206E+02  0.19999982499E+02 0.  0.
         12    1    1    2    0    0  0.29621393187E+02  0.28145198740E+02  0.14630258391E+02  0.43400732794E+02  0.00000000000E+00 0. -1.
         11    1    3    3    0    0 -0.30681291011E+02 -0.28362235970E+02 -0.12214803630E+02  0.43531132254E+02  0.51100000000E-03 0. -1.
        -11    1    3    3    0    0 -0.78501016417E+00 -0.61370861491E+00 -0.19350972828E+01  0.21765755160E+01  0.51100000000E-03 0.  1.
         12    1    3    3    0    0  0.18449079879E+01  0.83074584459E+00 -0.48035747759E+00  0.20795594361E+01  0.00000000000E+00 0. -1.
</event>
<event>
 7    1  0.7596051E-010  0.4778727E+02  0.7816164E-02  0.1312668E+00
        -11   -1    0    0    0    0  0.00000000000E+00  0.00000000000E+00  0.45593999997E+02  0.45594000000E+02  0.51100000000E-03 0.  1.
         11   -1    0    0    0    0 -0.00000000000E+00 -0.00000000000E+00 -0.45593999997E+02  0.45594000000E+02  0.51100000000E-03 0. -1.
    9900012    2    1    2    0    0 -0.26190166647E+01 -0.43320292904E+02 -0.34085697071E+00  0.47787271791E+02  0.20000003404E+02 0.  0.
        -12    1    1    2    0    0  0.26190166647E+01  0.43320292904E+02  0.34085697071E+00  0.43400728209E+02  0.00000000000E+00 0.  1.
         11    1    3    3    0    0  0.14575556906E+01 -0.18692948611E+02 -0.38119704570E+01  0.19133267243E+02  0.51100000000E-03 0. -1.
        -11    1    3    3    0    0 -0.11638836520E+01 -0.15662120826E+01 -0.38228946254E+01  0.42921054298E+01  0.51100000000E-03 0.  1.
         12    1    3    3    0    0 -0.29126887034E+01 -0.23061132210E+02  0.72940081117E+01  0.24361899118E+02  0.00000000000E+00 0. -1.
</event>
<event>
 7    1  0.7596051E-010  0.4778727E+02  0.7816164E-02  0.1312668E+00
        -11   -1    0    0    0    0  0.00000000000E+00  0.00000000000E+00  0.45593999997E+02  0.45594000000E+02  0.51100000000E-03 0. -1.
         11   -1    0    0    0    0 -0.00000000000E+00 -0.00000000000E+00 -0.45593999997E+02  0.45594000000E+02  0.51100000000E-03 0.  1.
    9900012    2    1    2    0    0 -0.28859772631E+02  0.16286240029E+02 -0.28026688092E+02  0.47787270329E+02  0.19999996738E+02 0.  0.
         12    1    1    2    0    0  0.28859772631E+02 -0.16286240029E+02  0.28026688092E+02  0.43400729671E+02  0.00000000000E+00 0. -1.
         11    1    3    3    0    0 -0.14236397937E+02 -0.10063230991E+01 -0.11781006136E+02  0.18506210262E+02  0.51100000000E-03 0. -1.
        -11    1    3    3    0    0 -0.16645828754E+01  0.31360249881E+01  0.76897121950E+00  0.36327408210E+01  0.51100000000E-03 0.  1.
        -12    1    3    3    0    0 -0.12958791818E+02  0.14156538140E+02 -0.17014653175E+02  0.25648319246E+02  0.00000000000E+00 0.  1.
</event>
<event>
 7    1  0.7596051E-010  0.4778727E+02  0.7816164E-02  0.1312668E+00
        -11   -1    0    0    0    0  0.00000000000E+00  0.00000000000E+00  0.45593999997E+02  0.45594000000E+02  0.51100000000E-03 0. -1.
         11   -1    0    0    0    0 -0.00000000000E+00 -0.00000000000E+00 -0.45593999997E+02  0.45594000000E+02  0.51100000000E-03 0.  1.
    9900012    2    1    2    0    0 -0.30002981911E+02 -0.22018925798E+02 -0.22329598446E+02  0.47787274389E+02  0.20000015248E+02 0.  0.
         12    1    1    2    0    0  0.30002981911E+02  0.22018925798E+02  0.22329598446E+02  0.43400725611E+02  0.00000000000E+00 0. -1.
         11    1    3    3    0    0 -0.10293789343E+02 -0.92787269832E+01 -0.56951187034E+01  0.14983032096E+02  0.51100000000E-03 0. -1.
        -11    1    3    3    0    0 -0.14518126438E+02 -0.12002728997E+02 -0.19259956105E+02  0.26940441868E+02  0.51100000000E-03 0.  1.
         12    1    3    3    0    0 -0.51910661293E+01 -0.73746981794E+00  0.26254763622E+01  0.58638004246E+01  0.00000000000E+00 0. -1.
</event>
<event>
 7    1  0.7596051E-010  0.4778727E+02  0.7816164E-02  0.1312668E+00
        -11   -1    0    0    0    0  0.00000000000E+00  0.00000000000E+00  0.45593999997E+02  0.45594000000E+02  0.51100000000E-03 0. -1.
         11   -1    0    0    0    0 -0.00000000000E+00 -0.00000000000E+00 -0.45593999997E+02  0.45594000000E+02  0.51100000000E-03 0.  1.
    9900012    2    1    2    0    0  0.12554263201E+02  0.11095687061E+02  0.40036229742E+02  0.47787268580E+02  0.19999988762E+02 0.  0.
        -12    1    1    2    0    0 -0.12554263201E+02 -0.11095687061E+02 -0.40036229742E+02  0.43400731420E+02  0.00000000000E+00 0.  1.
         11    1    3    3    0    0  0.42815738087E+01  0.59919081410E+00  0.79405122284E+01  0.90411635657E+01  0.51100000000E-03 0. -1.
        -11    1    3    3    0    0  0.12643933403E+02  0.40927692776E+01  0.15424685444E+02  0.20360273416E+02  0.51100000000E-03 0.  1.
         12    1    3    3    0    0 -0.43712440107E+01  0.64037269694E+01  0.16671032069E+02  0.18385831598E+02  0.00000000000E+00 0. -1.
</event>
<event>
 7    1  0.7596051E-010  0.4778726E+02  0.7816164E-02  0.1312668E+00
        -11   -1    0    0    0    0  0.00000000000E+00  0.00000000000E+00  0.45593999997E+02  0.45594000000E+02  0.51100000000E-03 0. -1.
         11   -1    0    0    0    0 -0.00000000000E+00 -0.00000000000E+00 -0.45593999997E+02  0.45594000000E+02  0.51100000000E-03 0.  1.
    9900012    2    1    2    0    0  0.58922675843E+01  0.21929418280E+02  0.36986570058E+02  0.47787256135E+02  0.19999932024E+02 0.  0.
        -12    1    1    2    0    0 -0.58922675843E+01 -0.21929418280E+02 -0.36986570058E+02  0.43400743865E+02  0.00000000000E+00 0.  1.
         11    1    3    3    0    0  0.42209898543E+01  0.63072652092E+01  0.17531615708E+02  0.19103818973E+02  0.51100000000E-03 0. -1.
        -11    1    3    3    0    0  0.68752418485E+01  0.13797834316E+02  0.12773875639E+02  0.20020516511E+02  0.51100000000E-03 0.  1.
        -12    1    3    3    0    0 -0.52039641184E+01  0.18243187546E+01  0.66810787105E+01  0.86629206507E+01  0.00000000000E+00 0.  1.
</event>
<event>
 7    1  0.7596051E-010  0.4778727E+02  0.7816164E-02  0.1312668E+00
        -11   -1    0    0    0    0  0.00000000000E+00  0.00000000000E+00  0.45593999997E+02  0.45594000000E+02  0.51100000000E-03 0. -1.
         11   -1    0    0    0    0 -0.00000000000E+00 -0.00000000000E+00 -0.45593999997E+02  0.45594000000E+02  0.51100000000E-03 0.  1.
    9900012    2    1    2    0    0 -0.10681701422E+02  0.11505738493E+02 -0.40461619810E+02  0.47787269117E+02  0.19999991211E+02 0.  0.
         12    1    1    2    0    0  0.10681701422E+02 -0.11505738493E+02  0.40461619810E+02  0.43400730883E+02  0.00000000000E+00 0. -1.
         11    1    3    3    0    0  0.13869036442E+01  0.68760823952E+01 -0.14195532961E+02  0.15834050876E+02  0.51100000000E-03 0. -1.
        -11    1    3    3    0    0 -0.41583625950E+00  0.63340714572E+01 -0.78776115491E+01  0.10116824848E+02  0.51100000000E-03 0.  1.
         12    1    3    3    0    0 -0.11652768806E+02 -0.17044153593E+01 -0.18388475300E+02  0.21836393393E+02  0.00000000000E+00 0. -1.
</event>
<event>
 7    1  0.7596051E-010  0.4778728E+02  0.7816164E-02  0.1312668E+00
        -11   -1    0    0    0    0  0.00000000000E+00  0.00000000000E+00  0.45593999997E+02  0.45594000000E+02  0.51100000000E-03 0. -1.
         11   -1    0    0    0    0 -0.00000000000E+00 -0.00000000000E+00 -0.45593999997E+02  0.45594000000E+02  0.51100000000E-03 0.  1.
    9900012    2    1    2    0    0 -0.74598579342E+01  0.87035495896E+01 -0.41859538441E+02  0.47787283251E+02  0.20000055653E+02 0.  0.
         12    1    1    2    0    0  0.74598579342E+01 -0.87035495896E+01  0.41859538441E+02  0.43400716749E+02  0.00000000000E+00 0. -1.
         11    1    3    3    0    0 -0.18738952576E+01  0.60020205120E+01 -0.28432878981E+02  0.29119827284E+02  0.51100000000E-03 0. -1.
        -11    1    3    3    0    0  0.21638725841E+01  0.15052553374E+01 -0.95745454042E+01  0.99307632209E+01  0.51100000000E-03 0.  1.
         12    1    3    3    0    0 -0.77498352606E+01  0.11962737402E+01 -0.38521140561E+01  0.87366927455E+01  0.00000000000E+00 0. -1.
</event>
<event>
 7    1  0.7596051E-010  0.4778727E+02  0.7816164E-02  0.1312668E+00
        -11   -1    0    0    0    0  0.00000000000E+00  0.00000000000E+00  0.45593999997E+02  0.45594000000E+02  0.51100000000E-03 0.  1.
         11   -1    0    0    0    0 -0.00000000000E+00 -0.00000000000E+00 -0.45593999997E+02  0.45594000000E+02  0.51100000000E-03 0. -1.
    9900012    2    1    2    0    0 -0.20166400595E+02 -0.37811441088E+02  0.68727540988E+01  0.47787267990E+02  0.19999986074E+02 0.  0.
         12    1    1    2    0    0  0.20166400595E+02  0.37811441088E+02 -0.68727540988E+01  0.43400732010E+02  0.00000000000E+00 0. -1.
         11    1    3    3    0    0 -0.10809412147E+02 -0.12176198428E+02  0.23322178686E+01  0.16448174353E+02  0.51100000000E-03 0. -1.
        -11    1    3    3    0    0 -0.12031598701E+02 -0.20853016500E+02 -0.22682072112E+00  0.24076110823E+02  0.51100000000E-03 0.  1.
         12    1    3    3    0    0  0.26746102530E+01 -0.47822261603E+01  0.47673569513E+01  0.72629828139E+01  0.00000000000E+00 0. -1.
</event>
<event>
 7    1  0.7596051E-010  0.4778728E+02  0.7816164E-02  0.1312668E+00
        -11   -1    0    0    0    0  0.00000000000E+00  0.00000000000E+00  0.45593999997E+02  0.45594000000E+02  0.51100000000E-03 0. -1.
         11   -1    0    0    0    0 -0.00000000000E+00 -0.00000000000E+00 -0.45593999997E+02  0.45594000000E+02  0.51100000000E-03 0.  1.
    9900012    2    1    2    0    0 -0.80616888890E+01  0.31517606905E+02  0.28727556624E+02  0.47787275555E+02  0.20000020565E+02 0.  0.
        -12    1    1    2    0    0  0.80616888890E+01 -0.31517606905E+02 -0.28727556624E+02  0.43400724445E+02  0.00000000000E+00 0.  1.
         11    1    3    3    0    0 -0.82663189737E+01  0.93148391976E+01  0.92413474838E+01  0.15508086994E+02  0.51100000000E-03 0. -1.
        -11    1    3    3    0    0 -0.10022175116E+01  0.33623847713E+01 -0.17026606266E+01  0.38998877883E+01  0.51100000000E-03 0.  1.
        -12    1    3    3    0    0  0.12068475962E+01  0.18840382936E+02  0.21188869767E+02  0.28379300772E+02  0.00000000000E+00 0.  1.
</event>
<event>
 7    1  0.7596051E-010  0.4778727E+02  0.7816164E-02  0.1312668E+00
        -11   -1    0    0    0    0  0.00000000000E+00  0.00000000000E+00  0.45593999997E+02  0.45594000000E+02  0.51100000000E-03 0. -1.
         11   -1    0    0    0    0 -0.00000000000E+00 -0.00000000000E+00 -0.45593999997E+02  0.45594000000E+02  0.51100000000E-03 0.  1.
    9900012    2    1    2    0    0  0.23389526367E+02 -0.78087368932E+00 -0.36550558273E+02  0.47787273998E+02  0.20000013467E+02 0.  0.
         12    1    1    2    0    0 -0.23389526367E+02  0.78087368932E+00  0.36550558273E+02  0.43400726002E+02  0.00000000000E+00 0. -1.
         11    1    3    3    0    0  0.65439424753E+00  0.51601719724E+00 -0.29267506793E+00  0.88326923164E+00  0.51100000000E-03 0. -1.
        -11    1    3    3    0    0  0.77835311240E+01  0.72423802184E+01 -0.63216194091E+01  0.12369248166E+02  0.51100000000E-03 0.  1.
        -12    1    3    3    0    0  0.14951600996E+02 -0.85392711050E+01 -0.29936263796E+02  0.34534756600E+02  0.00000000000E+00 0.  1.
</event>
<event>
 7    1  0.7596051E-010  0.4778727E+02  0.7816164E-02  0.1312668E+00
        -11   -1    0    0    0    0  0.00000000000E+00  0.00000000000E+00  0.45593999997E+02  0.45594000000E+02  0.51100000000E-03 0. -1.
         11   -1    0    0    0    0 -0.00000000000E+00 -0.00000000000E+00 -0.45593999997E+02  0.45594000000E+02  0.51100000000E-03 0.  1.
    9900012    2    1    2    0    0  0.64179858040E+01  0.21403154887E+02  0.37206686729E+02  0.47787272838E+02  0.20000008176E+02 0.  0.
        -12    1    1    2    0    0 -0.64179858040E+01 -0.21403154887E+02 -0.37206686729E+02  0.43400727162E+02  0.00000000000E+00 0.  1.
         11    1    3    3    0    0 -0.15990349228E+01  0.25365864704E+01  0.13296227034E+02  0.13630144431E+02  0.51100000000E-03 0. -1.
        -11    1    3    3    0    0  0.41161848327E+01 -0.77111662525E+00  0.58436080187E+01  0.71892526290E+01  0.51100000000E-03 0.  1.
         12    1    3    3    0    0  0.39008358942E+01  0.19637685042E+02  0.18066851675E+02  0.26967875777E+02  0.00000000000E+00 0. -1.
</event>
<event>
 7    1  0.7596051E-010  0.4778727E+02  0.7816164E-02  0.1312668E+00
        -11   -1    0    0    0    0  0.00000000000E+00  0.00000000000E+00  0.45593999997E+02  0.45594000000E+02  0.51100000000E-03 0. -1.
         11   -1    0    0    0    0 -0.00000000000E+00 -0.00000000000E+00 -0.45593999997E+02  0.45594000000E+02  0.51100000000E-03 0.  1.
    9900012    2    1    2    0    0 -0.27258680060E+02  0.32047372305E+02  0.10656149011E+02  0.47787271642E+02  0.20000002724E+02 0.  0.
        -12    1    1    2    0    0  0.27258680060E+02 -0.32047372305E+02 -0.10656149011E+02  0.43400728358E+02  0.00000000000E+00 0.  1.
         11    1    3    3    0    0 -0.44161691333E+01  0.15439534894E+01  0.63513871775E+01  0.78883750881E+01  0.51100000000E-03 0. -1.
        -11    1    3    3    0    0  0.95498242821E-01  0.26634246953E+01 -0.19314393801E+01  0.32914144926E+01  0.51100000000E-03 0.  1.
         12    1    3    3    0    0 -0.22938009169E+02  0.27839994121E+02  0.62362012134E+01  0.36607482061E+02  0.00000000000E+00 0. -1.
</event>
<event>
 7    1  0.7596051E-010  0.4778727E+02  0.7816164E-02  0.1312668E+00
        -11   -1    0    0    0    0  0.00000000000E+00  0.00000000000E+00  0.45593999997E+02  0.45594000000E+02  0.51100000000E-03 0. -1.
         11   -1    0    0    0    0 -0.00000000000E+00 -0.00000000000E+00 -0.45593999997E+02  0.45594000000E+02  0.51100000000E-03 0.  1.
    9900012    2    1    2    0    0 -0.78641368255E+01  0.12787003696E+02 -0.40721873200E+02  0.47787273411E+02  0.20000010790E+02 0.  0.
         12    1    1    2    0    0  0.78641368255E+01 -0.12787003696E+02  0.40721873200E+02  0.43400726589E+02  0.00000000000E+00 0. -1.
         11    1    3    3    0    0 -0.13962452937E+01 -0.41497238810E+00 -0.14636687449E+02  0.14708987821E+02  0.51100000000E-03 0.  1.
        -11    1    3    3    0    0 -0.25607983409E+01  0.12431738420E+00  0.99724017299E+00  0.27509327833E+01  0.51100000000E-03 0. -1.
         12    1    3    3    0    0 -0.39070931909E+01  0.13077658699E+02 -0.27082425925E+02  0.30327352806E+02  0.00000000000E+00 0. -1.
</event>
<event>
 7    1  0.7596051E-010  0.4778727E+02  0.7816164E-02  0.1312668E+00
        -11   -1    0    0    0    0  0.00000000000E+00  0.00000000000E+00  0.45593999997E+02  0.45594000000E+02  0.51100000000E-03 0.  1.
         11   -1    0    0    0    0 -0.00000000000E+00 -0.00000000000E+00 -0.45593999997E+02  0.45594000000E+02  0.51100000000E-03 0. -1.
    9900012    2    1    2    0    0  0.42382382975E+02 -0.25238117214E+01  0.89992940451E+01  0.47787270679E+02  0.19999998334E+02 0.  0.
        -12    1    1    2    0    0 -0.42382382975E+02  0.25238117214E+01 -0.89992940451E+01  0.43400729321E+02  0.00000000000E+00 0.  1.
         11    1    3    3    0    0  0.11372074807E+02 -0.18663026501E+01 -0.18359153706E+00  0.11525661678E+02  0.51100000000E-03 0. -1.
        -11    1    3    3    0    0  0.11114584989E+02 -0.35591449030E+01 -0.38636622050E+01  0.12293469722E+02  0.51100000000E-03 0.  1.
        -12    1    3    3    0    0  0.19895723179E+02  0.29016358317E+01  0.13046547787E+02  0.23968139279E+02  0.00000000000E+00 0.  1.
</event>
<event>
 7    1  0.7596051E-010  0.4778727E+02  0.7816164E-02  0.1312668E+00
        -11   -1    0    0    0    0  0.00000000000E+00  0.00000000000E+00  0.45593999997E+02  0.45594000000E+02  0.51100000000E-03 0. -1.
         11   -1    0    0    0    0 -0.00000000000E+00 -0.00000000000E+00 -0.45593999997E+02  0.45594000000E+02  0.51100000000E-03 0.  1.
    9900012    2    1    2    0    0  0.81994795618E+01  0.34808591466E+01  0.42476763917E+02  0.47787270533E+02  0.19999997666E+02 0.  0.
        -12    1    1    2    0    0 -0.81994795618E+01 -0.34808591466E+01 -0.42476763917E+02  0.43400729467E+02  0.00000000000E+00 0.  1.
         11    1    3    3    0    0 -0.30103754855E+00  0.60344336730E+01  0.36178757315E+02  0.36679796816E+02  0.51100000000E-03 0. -1.
        -11    1    3    3    0    0  0.26073865873E+00 -0.63776008136E+00  0.43585756432E+00  0.81528807610E+00  0.51100000000E-03 0.  1.
         12    1    3    3    0    0  0.82397784516E+01 -0.19158144450E+01  0.58621490371E+01  0.10292185640E+02  0.00000000000E+00 0. -1.
</event>
<event>
 7    1  0.7596051E-010  0.4778727E+02  0.7816164E-02  0.1312668E+00
        -11   -1    0    0    0    0  0.00000000000E+00  0.00000000000E+00  0.45593999997E+02  0.45594000000E+02  0.51100000000E-03 0. -1.
         11   -1    0    0    0    0 -0.00000000000E+00 -0.00000000000E+00 -0.45593999997E+02  0.45594000000E+02  0.51100000000E-03 0.  1.
    9900012    2    1    2    0    0 -0.37715880580E+02 -0.17388972846E+02  0.12599959440E+02  0.47787274172E+02  0.20000014259E+02 0.  0.
        -12    1    1    2    0    0  0.37715880580E+02  0.17388972846E+02 -0.12599959440E+02  0.43400725828E+02  0.00000000000E+00 0.  1.
         11    1    3    3    0    0 -0.15587966066E+02 -0.15878240808E+01  0.10339974297E+02  0.18772877779E+02  0.51100000000E-03 0. -1.
        -11    1    3    3    0    0  0.54899389738E+00 -0.77226882242E+00 -0.12666297325E+01  0.15818168585E+01  0.51100000000E-03 0.  1.
         12    1    3    3    0    0 -0.22676908412E+02 -0.15028879943E+02  0.35266148751E+01  0.27432579535E+02  0.00000000000E+00 0. -1.
</event>
<event>
 7    1  0.7596051E-010  0.4778727E+02  0.7816164E-02  0.1312668E+00
        -11   -1    0    0    0    0  0.00000000000E+00  0.00000000000E+00  0.45593999997E+02  0.45594000000E+02  0.51100000000E-03 0.  1.
         11   -1    0    0    0    0 -0.00000000000E+00 -0.00000000000E+00 -0.45593999997E+02  0.45594000000E+02  0.51100000000E-03 0. -1.
    9900012    2    1    2    0    0 -0.19024747198E+02  0.38801683184E+02  0.40139263312E+01  0.47787271568E+02  0.20000002387E+02 0.  0.
         12    1    1    2    0    0  0.19024747198E+02 -0.38801683184E+02 -0.40139263312E+01  0.43400728432E+02  0.00000000000E+00 0. -1.
         11    1    3    3    0    0 -0.18001853855E+01  0.46588525632E+01 -0.20447481276E+01  0.53969037229E+01  0.51100000000E-03 0. -1.
        -11    1    3    3    0    0 -0.16319468242E+02  0.18416618703E+02 -0.20157257960E+01  0.24689269712E+02  0.51100000000E-03 0.  1.
         12    1    3    3    0    0 -0.90509356993E+00  0.15726211917E+02  0.80744002548E+01  0.17701098133E+02  0.00000000000E+00 0. -1.
</event>
<event>
 7    1  0.7596051E-010  0.4778726E+02  0.7816164E-02  0.1312668E+00
        -11   -1    0    0    0    0  0.00000000000E+00  0.00000000000E+00  0.45593999997E+02  0.45594000000E+02  0.51100000000E-03 0. -1.
         11   -1    0    0    0    0 -0.00000000000E+00 -0.00000000000E+00 -0.45593999997E+02  0.45594000000E+02  0.51100000000E-03 0.  1.
    9900012    2    1    2    0    0  0.22463782993E+02  0.20380493279E+01  0.37078956073E+02  0.47787260665E+02  0.19999952675E+02 0.  0.
        -12    1    1    2    0    0 -0.22463782993E+02 -0.20380493279E+01 -0.37078956073E+02  0.43400739335E+02  0.00000000000E+00 0.  1.
         11    1    3    3    0    0  0.45470890887E+01  0.38649526259E+01  0.32521836121E+01  0.67963649467E+01  0.51100000000E-03 0. -1.
        -11    1    3    3    0    0  0.65555460058E+01  0.60936072432E+01  0.16867978881E+02  0.19095443029E+02  0.51100000000E-03 0.  1.
        -12    1    3    3    0    0  0.11361147898E+02 -0.79205105412E+01  0.16958793580E+02  0.21895452689E+02  0.00000000000E+00 0.  1.
</event>
<event>
 7    1  0.7596051E-010  0.4778728E+02  0.7816164E-02  0.1312668E+00
        -11   -1    0    0    0    0  0.00000000000E+00  0.00000000000E+00  0.45593999997E+02  0.45594000000E+02  0.51100000000E-03 0. -1.
         11   -1    0    0    0    0 -0.00000000000E+00 -0.00000000000E+00 -0.45593999997E+02  0.45594000000E+02  0.51100000000E-03 0.  1.
    9900012    2    1    2    0    0 -0.10823274558E+02  0.23668883430E+02 -0.34731304183E+02  0.47787276443E+02  0.20000024615E+02 0.  0.
         12    1    1    2    0    0  0.10823274558E+02 -0.23668883430E+02  0.34731304183E+02  0.43400723557E+02  0.00000000000E+00 0. -1.
         11    1    3    3    0    0  0.16503999458E+01 -0.12787153840E+01 -0.20795110036E+01  0.29467438453E+01  0.51100000000E-03 0. -1.
        -11    1    3    3    0    0 -0.11359244402E+01  0.11427554496E+02 -0.20228833792E+02  0.23261234768E+02  0.51100000000E-03 0.  1.
        -12    1    3    3    0    0 -0.11337750064E+02  0.13520044318E+02 -0.12422959388E+02  0.21579297830E+02  0.00000000000E+00 0.  1.
</event>
<event>
 7    1  0.7596051E-010  0.4778727E+02  0.7816164E-02  0.1312668E+00
        -11   -1    0    0    0    0  0.00000000000E+00  0.00000000000E+00  0.45593999997E+02  0.45594000000E+02  0.51100000000E-03 0. -1.
         11   -1    0    0    0    0 -0.00000000000E+00 -0.00000000000E+00 -0.45593999997E+02  0.45594000000E+02  0.51100000000E-03 0.  1.
    9900012    2    1    2    0    0  0.11566181075E+02  0.27148734587E+02  0.31824403787E+02  0.47787274076E+02  0.20000013822E+02 0.  0.
        -12    1    1    2    0    0 -0.11566181075E+02 -0.27148734587E+02 -0.31824403787E+02  0.43400725924E+02  0.00000000000E+00 0.  1.
         11    1    3    3    0    0  0.14671121474E+01  0.12471046598E+02  0.17125236457E+02  0.21235657401E+02  0.51100000000E-03 0. -1.
        -11    1    3    3    0    0  0.90093545110E+01  0.51013909667E+01  0.13234106224E+02  0.16802804120E+02  0.51100000000E-03 0.  1.
        -12    1    3    3    0    0  0.10897144170E+01  0.95762970228E+01  0.14650611058E+01  0.97488125545E+01  0.00000000000E+00 0.  1.
</event>
<event>
 7    1  0.7596051E-010  0.4778728E+02  0.7816164E-02  0.1312668E+00
        -11   -1    0    0    0    0  0.00000000000E+00  0.00000000000E+00  0.45593999997E+02  0.45594000000E+02  0.51100000000E-03 0. -1.
         11   -1    0    0    0    0 -0.00000000000E+00 -0.00000000000E+00 -0.45593999997E+02  0.45594000000E+02  0.51100000000E-03 0.  1.
    9900012    2    1    2    0    0 -0.14228965268E+02 -0.38836630105E+02  0.13148203031E+02  0.47787279574E+02  0.20000038892E+02 0.  0.
        -12    1    1    2    0    0  0.14228965268E+02  0.38836630105E+02 -0.13148203031E+02  0.43400720426E+02  0.00000000000E+00 0.  1.
         11    1    3    3    0    0 -0.82566965774E+01 -0.41035042043E+01  0.66295285945E+01  0.11356162854E+02  0.51100000000E-03 0. -1.
        -11    1    3    3    0    0  0.14175621740E+01 -0.57250298672E+01  0.74452969655E+00  0.59447265899E+01  0.51100000000E-03 0.  1.
         12    1    3    3    0    0 -0.73898308648E+01 -0.29008096033E+02  0.57741447399E+01  0.30486390130E+02  0.00000000000E+00 0. -1.
</event>
<event>
 7    1  0.7596051E-010  0.4778727E+02  0.7816164E-02  0.1312668E+00
        -11   -1    0    0    0    0  0.00000000000E+00  0.00000000000E+00  0.45593999997E+02  0.45594000000E+02  0.51100000000E-03 0. -1.
         11   -1    0    0    0    0 -0.00000000000E+00 -0.00000000000E+00 -0.45593999997E+02  0.45594000000E+02  0.51100000000E-03 0.  1.
    9900012    2    1    2    0    0 -0.11876755425E+01 -0.18385812723E+02 -0.39295991462E+02  0.47787266969E+02  0.19999981417E+02 0.  0.
         12    1    1    2    0    0  0.11876755425E+01  0.18385812723E+02  0.39295991462E+02  0.43400733031E+02  0.00000000000E+00 0. -1.
         11    1    3    3    0    0 -0.61637233649E+00 -0.54235722635E+01 -0.23016964459E+02  0.23655352547E+02  0.51100000000E-03 0. -1.
        -11    1    3    3    0    0 -0.54534062666E+01 -0.64626726387E+01 -0.12682105513E+02  0.15242754936E+02  0.51100000000E-03 0.  1.
         12    1    3    3    0    0  0.48821030606E+01 -0.64995678212E+01 -0.35969214905E+01  0.88891594858E+01  0.00000000000E+00 0. -1.
</event>
<event>
 7    1  0.7596051E-010  0.4778727E+02  0.7816164E-02  0.1312668E+00
        -11   -1    0    0    0    0  0.00000000000E+00  0.00000000000E+00  0.45593999997E+02  0.45594000000E+02  0.51100000000E-03 0. -1.
         11   -1    0    0    0    0 -0.00000000000E+00 -0.00000000000E+00 -0.45593999997E+02  0.45594000000E+02  0.51100000000E-03 0.  1.
    9900012    2    1    2    0    0 -0.35693248068E+01 -0.40733109951E+02  0.14549811181E+02  0.47787270383E+02  0.19999996986E+02 0.  0.
        -12    1    1    2    0    0  0.35693248068E+01  0.40733109951E+02 -0.14549811181E+02  0.43400729617E+02  0.00000000000E+00 0.  1.
         11    1    3    3    0    0 -0.14913963216E+01 -0.22453616096E+02  0.14477796727E+02  0.26758096665E+02  0.51100000000E-03 0. -1.
        -11    1    3    3    0    0  0.30449705447E+01 -0.93906118805E+01  0.30741010004E+01  0.10339513254E+02  0.51100000000E-03 0.  1.
         12    1    3    3    0    0 -0.51228990299E+01 -0.88888819739E+01 -0.30020865459E+01  0.10689660465E+02  0.00000000000E+00 0. -1.
</event>
<event>
 7    1  0.7596051E-010  0.4778727E+02  0.7816164E-02  0.1312668E+00
        -11   -1    0    0    0    0  0.00000000000E+00  0.00000000000E+00  0.45593999997E+02  0.45594000000E+02  0.51100000000E-03 0. -1.
         11   -1    0    0    0    0 -0.00000000000E+00 -0.00000000000E+00 -0.45593999997E+02  0.45594000000E+02  0.51100000000E-03 0.  1.
    9900012    2    1    2    0    0  0.32556138753E+02 -0.20775085820E+02 -0.19801942953E+02  0.47787270673E+02  0.19999998308E+02 0.  0.
         12    1    1    2    0    0 -0.32556138753E+02  0.20775085820E+02  0.19801942953E+02  0.43400729327E+02  0.00000000000E+00 0. -1.
         11    1    3    3    0    0  0.51930008472E+01 -0.84524304896E+01 -0.52418222790E+01  0.11219961678E+02  0.51100000000E-03 0. -1.
        -11    1    3    3    0    0  0.26740358749E+02 -0.12742256570E+02 -0.16904678528E+02  0.34105425447E+02  0.51100000000E-03 0.  1.
         12    1    3    3    0    0  0.62277915692E+00  0.41960123920E+00  0.23445578538E+01  0.24618835489E+01  0.00000000000E+00 0. -1.
</event>
<event>
 7    1  0.7596051E-010  0.4778728E+02  0.7816164E-02  0.1312668E+00
        -11   -1    0    0    0    0  0.00000000000E+00  0.00000000000E+00  0.45593999997E+02  0.45594000000E+02  0.51100000000E-03 0. -1.
         11   -1    0    0    0    0 -0.00000000000E+00 -0.00000000000E+00 -0.45593999997E+02  0.45594000000E+02  0.51100000000E-03 0.  1.
    9900012    2    1    2    0    0  0.14544217470E+02 -0.11708293035E+02 -0.39179132678E+02  0.47787276216E+02  0.20000023577E+02 0.  0.
         12    1    1    2    0    0 -0.14544217470E+02  0.11708293035E+02  0.39179132678E+02  0.43400723784E+02  0.00000000000E+00 0. -1.
         11    1    3    3    0    0  0.83019240466E+01 -0.40355603913E+01 -0.81766835361E+01  0.12331498062E+02  0.51100000000E-03 0. -1.
        -11    1    3    3    0    0 -0.75402833880E+00  0.19836373558E+01  0.12160816270E+00  0.21255974928E+01  0.51100000000E-03 0.  1.
        -12    1    3    3    0    0  0.69963217625E+01 -0.96563699999E+01 -0.31124057304E+02  0.33330180661E+02  0.00000000000E+00 0.  1.
</event>
<event>
 7    1  0.7596051E-010  0.4778726E+02  0.7816164E-02  0.1312668E+00
        -11   -1    0    0    0    0  0.00000000000E+00  0.00000000000E+00  0.45593999997E+02  0.45594000000E+02  0.51100000000E-03 0. -1.
         11   -1    0    0    0    0 -0.00000000000E+00 -0.00000000000E+00 -0.45593999997E+02  0.45594000000E+02  0.51100000000E-03 0.  1.
    9900012    2    1    2    0    0 -0.20240454150E+02 -0.47699346672E+01  0.38094565310E+02  0.47787260754E+02  0.19999953083E+02 0.  0.
        -12    1    1    2    0    0  0.20240454150E+02  0.47699346672E+01 -0.38094565310E+02  0.43400739246E+02  0.00000000000E+00 0.  1.
         11    1    3    3    0    0 -0.61761875603E+01  0.10443950775E+01  0.14522491594E+02  0.15815777446E+02  0.51100000000E-03 0. -1.
        -11    1    3    3    0    0 -0.14200605677E+02 -0.14740542175E+01  0.23653604631E+02  0.27628301608E+02  0.51100000000E-03 0.  1.
        -12    1    3    3    0    0  0.13633908729E+00 -0.43402755272E+01 -0.81530914600E-01  0.43431817011E+01  0.00000000000E+00 0.  1.
</event>
<event>
 7    1  0.7596051E-010  0.4778727E+02  0.7816164E-02  0.1312668E+00
        -11   -1    0    0    0    0  0.00000000000E+00  0.00000000000E+00  0.45593999997E+02  0.45594000000E+02  0.51100000000E-03 0.  1.
         11   -1    0    0    0    0 -0.00000000000E+00 -0.00000000000E+00 -0.45593999997E+02  0.45594000000E+02  0.51100000000E-03 0. -1.
    9900012    2    1    2    0    0  0.31946299699E+02  0.11011774987E+02 -0.27235975734E+02  0.47787266976E+02  0.19999981448E+02 0.  0.
         12    1    1    2    0    0 -0.31946299699E+02 -0.11011774987E+02  0.27235975734E+02  0.43400733024E+02  0.00000000000E+00 0. -1.
         11    1    3    3    0    0  0.30538134176E+01 -0.38968573953E+00 -0.63989238331E+01  0.71009758378E+01  0.51100000000E-03 0. -1.
        -11    1    3    3    0    0  0.96345942603E+01 -0.12664286157E+01 -0.13224638407E+02  0.16410981362E+02  0.51100000000E-03 0.  1.
         12    1    3    3    0    0  0.19257892021E+02  0.12667889343E+02 -0.76124134938E+01  0.24275309776E+02  0.00000000000E+00 0. -1.
</event>
<event>
 7    1  0.7596051E-010  0.4778727E+02  0.7816164E-02  0.1312668E+00
        -11   -1    0    0    0    0  0.00000000000E+00  0.00000000000E+00  0.45593999997E+02  0.45594000000E+02  0.51100000000E-03 0. -1.
         11   -1    0    0    0    0 -0.00000000000E+00 -0.00000000000E+00 -0.45593999997E+02  0.45594000000E+02  0.51100000000E-03 0.  1.
    9900012    2    1    2    0    0  0.32216874625E+02 -0.25130694886E+02 -0.14633676383E+02  0.47787270506E+02  0.19999997546E+02 0.  0.
         12    1    1    2    0    0 -0.32216874625E+02  0.25130694886E+02  0.14633676383E+02  0.43400729494E+02  0.00000000000E+00 0. -1.
         11    1    3    3    0    0  0.30169418533E+01 -0.93670696756E+01  0.11961652766E+01  0.99133618961E+01  0.51100000000E-03 0. -1.
        -11    1    3    3    0    0  0.80080629952E+01 -0.39149347122E+01 -0.43931793150E-01  0.89139058218E+01  0.51100000000E-03 0.  1.
        -12    1    3    3    0    0  0.21191869777E+02 -0.11848690499E+02 -0.15785909867E+02  0.28960002788E+02  0.00000000000E+00 0.  1.
</event>
<event>
 7    1  0.7596051E-010  0.4778727E+02  0.7816164E-02  0.1312668E+00
        -11   -1    0    0    0    0  0.00000000000E+00  0.00000000000E+00  0.45593999997E+02  0.45594000000E+02  0.51100000000E-03 0. -1.
         11   -1    0    0    0    0 -0.00000000000E+00 -0.00000000000E+00 -0.45593999997E+02  0.45594000000E+02  0.51100000000E-03 0.  1.
    9900012    2    1    2    0    0  0.32695136077E+02 -0.78061086680E+01 -0.27453890741E+02  0.47787269909E+02  0.19999994823E+02 0.  0.
         12    1    1    2    0    0 -0.32695136077E+02  0.78061086680E+01  0.27453890741E+02  0.43400730091E+02  0.00000000000E+00 0. -1.
         11    1    3    3    0    0  0.12807687372E+02 -0.57894112186E+01 -0.17315652264E+01  0.14161654440E+02  0.51100000000E-03 0. -1.
        -11    1    3    3    0    0  0.82116594674E+01 -0.10870479159E+01 -0.46043701032E+01  0.94769852110E+01  0.51100000000E-03 0.  1.
        -12    1    3    3    0    0  0.11675789237E+02 -0.92964953355E+00 -0.21117955412E+02  0.24148630258E+02  0.00000000000E+00 0.  1.
</event>
<event>
 7    1  0.7596051E-010  0.4778727E+02  0.7816164E-02  0.1312668E+00
        -11   -1    0    0    0    0  0.00000000000E+00  0.00000000000E+00  0.45593999997E+02  0.45594000000E+02  0.51100000000E-03 0. -1.
         11   -1    0    0    0    0 -0.00000000000E+00 -0.00000000000E+00 -0.45593999997E+02  0.45594000000E+02  0.51100000000E-03 0.  1.
    9900012    2    1    2    0    0 -0.16627969588E+02  0.40046557714E+02  0.18458344518E+01  0.47787271179E+02  0.20000000613E+02 0.  0.
         12    1    1    2    0    0  0.16627969588E+02 -0.40046557714E+02 -0.18458344518E+01  0.43400728821E+02  0.00000000000E+00 0. -1.
         11    1    3    3    0    0 -0.35665256525E+01  0.16405092741E+02  0.53942405579E+01  0.17633632766E+02  0.51100000000E-03 0. -1.
        -11    1    3    3    0    0  0.18198829892E+01  0.46332749935E+01  0.20317872993E+01  0.53765575558E+01  0.51100000000E-03 0.  1.
        -12    1    3    3    0    0 -0.14881326925E+02  0.19008189980E+02 -0.55801934054E+01  0.24777080857E+02  0.00000000000E+00 0.  1.
</event>
<event>
 7    1  0.7596051E-010  0.4778727E+02  0.7816164E-02  0.1312668E+00
        -11   -1    0    0    0    0  0.00000000000E+00  0.00000000000E+00  0.45593999997E+02  0.45594000000E+02  0.51100000000E-03 0. -1.
         11   -1    0    0    0    0 -0.00000000000E+00 -0.00000000000E+00 -0.45593999997E+02  0.45594000000E+02  0.51100000000E-03 0.  1.
    9900012    2    1    2    0    0  0.30956646535E+02  0.10343604637E+02 -0.28606277879E+02  0.47787271254E+02  0.20000000957E+02 0.  0.
         12    1    1    2    0    0 -0.30956646535E+02 -0.10343604637E+02  0.28606277879E+02  0.43400728746E+02  0.00000000000E+00 0. -1.
         11    1    3    3    0    0  0.35513413022E+00 -0.74553145941E+00  0.81293265481E+00  0.11587912538E+01  0.51100000000E-03 0. -1.
        -11    1    3    3    0    0  0.53143469271E+01 -0.38020810014E+01 -0.78197124475E+01  0.10190486064E+02  0.51100000000E-03 0.  1.
        -12    1    3    3    0    0  0.25287165477E+02  0.14891217097E+02 -0.21599498086E+02  0.36437993936E+02  0.00000000000E+00 0.  1.
</event>
<event>
 7    1  0.7596051E-010  0.4778727E+02  0.7816164E-02  0.1312668E+00
        -11   -1    0    0    0    0  0.00000000000E+00  0.00000000000E+00  0.45593999997E+02  0.45594000000E+02  0.51100000000E-03 0. -1.
         11   -1    0    0    0    0 -0.00000000000E+00 -0.00000000000E+00 -0.45593999997E+02  0.45594000000E+02  0.51100000000E-03 0.  1.
    9900012    2    1    2    0    0 -0.32295334611E+02  0.27023171046E+02 -0.10506328355E+02  0.47787270208E+02  0.19999996184E+02 0.  0.
         12    1    1    2    0    0  0.32295334611E+02 -0.27023171046E+02  0.10506328355E+02  0.43400729792E+02  0.00000000000E+00 0. -1.
         11    1    3    3    0    0 -0.49218887365E+01  0.42259995644E+01 -0.60319745878E+01  0.88582604805E+01  0.51100000000E-03 0. -1.
        -11    1    3    3    0    0 -0.23024623587E+02  0.20893480787E+02 -0.90025541207E+01  0.32368453959E+02  0.51100000000E-03 0.  1.
         12    1    3    3    0    0 -0.43488222876E+01  0.19036906946E+01  0.45282003534E+01  0.65605557684E+01  0.00000000000E+00 0. -1.
</event>
<event>
 7    1  0.7596051E-010  0.4778727E+02  0.7816164E-02  0.1312668E+00
        -11   -1    0    0    0    0  0.00000000000E+00  0.00000000000E+00  0.45593999997E+02  0.45594000000E+02  0.51100000000E-03 0. -1.
         11   -1    0    0    0    0 -0.00000000000E+00 -0.00000000000E+00 -0.45593999997E+02  0.45594000000E+02  0.51100000000E-03 0.  1.
    9900012    2    1    2    0    0  0.20950231051E+02  0.16967689414E+02  0.34011886790E+02  0.47787272954E+02  0.20000008704E+02 0.  0.
        -12    1    1    2    0    0 -0.20950231051E+02 -0.16967689414E+02 -0.34011886790E+02  0.43400727046E+02  0.00000000000E+00 0.  1.
         11    1    3    3    0    0  0.20107552324E+02  0.16876997720E+02  0.18427578199E+02  0.32073701861E+02  0.51100000000E-03 0. -1.
        -11    1    3    3    0    0 -0.43690802703E+00 -0.48556872652E-01  0.13193138067E+01  0.13906241676E+01  0.51100000000E-03 0.  1.
         12    1    3    3    0    0  0.12795867533E+01  0.13924856704E+00  0.14264994784E+02  0.14322946925E+02  0.00000000000E+00 0. -1.
</event>
<event>
 7    1  0.7596051E-010  0.4778727E+02  0.7816164E-02  0.1312668E+00
        -11   -1    0    0    0    0  0.00000000000E+00  0.00000000000E+00  0.45593999997E+02  0.45594000000E+02  0.51100000000E-03 0. -1.
         11   -1    0    0    0    0 -0.00000000000E+00 -0.00000000000E+00 -0.45593999997E+02  0.45594000000E+02  0.51100000000E-03 0.  1.
    9900012    2    1    2    0    0 -0.10850323315E+02  0.20116437972E+02 -0.36894747198E+02  0.47787274619E+02  0.20000016299E+02 0.  0.
         12    1    1    2    0    0  0.10850323315E+02 -0.20116437972E+02  0.36894747198E+02  0.43400725381E+02  0.00000000000E+00 0. -1.
         11    1    3    3    0    0 -0.11145241905E+01  0.62665721547E+01 -0.25894866616E+00  0.63701762467E+01  0.51100000000E-03 0. -1.
        -11    1    3    3    0    0 -0.19014775910E+01  0.28398854000E+01 -0.14257977389E+01  0.37031696650E+01  0.51100000000E-03 0.  1.
        -12    1    3    3    0    0 -0.78343215337E+01  0.11009980418E+02 -0.35210000793E+02  0.37713928708E+02  0.00000000000E+00 0.  1.
</event>
<event>
 7    1  0.7596051E-010  0.4778727E+02  0.7816164E-02  0.1312668E+00
        -11   -1    0    0    0    0  0.00000000000E+00  0.00000000000E+00  0.45593999997E+02  0.45594000000E+02  0.51100000000E-03 0.  1.
         11   -1    0    0    0    0 -0.00000000000E+00 -0.00000000000E+00 -0.45593999997E+02  0.45594000000E+02  0.51100000000E-03 0. -1.
    9900012    2    1    2    0    0 -0.37877631128E+02  0.89102940514E+01 -0.19222769752E+02  0.47787272392E+02  0.20000006143E+02 0.  0.
         12    1    1    2    0    0  0.37877631128E+02 -0.89102940514E+01  0.19222769752E+02  0.43400727608E+02  0.00000000000E+00 0. -1.
         11    1    3    3    0    0 -0.75226064094E+01  0.98659888197E+01 -0.57400107454E+01  0.13670225536E+02  0.51100000000E-03 0. -1.
        -11    1    3    3    0    0 -0.11201237454E+02  0.24685386806E+01 -0.77129876455E+01  0.13822141021E+02  0.51100000000E-03 0.  1.
         12    1    3    3    0    0 -0.19153787264E+02 -0.34242334489E+01 -0.57697713615E+01  0.20294905835E+02  0.00000000000E+00 0. -1.
</event>
<event>
 7    1  0.7596051E-010  0.4778727E+02  0.7816164E-02  0.1312668E+00
        -11   -1    0    0    0    0  0.00000000000E+00  0.00000000000E+00  0.45593999997E+02  0.45594000000E+02  0.51100000000E-03 0. -1.
         11   -1    0    0    0    0 -0.00000000000E+00 -0.00000000000E+00 -0.45593999997E+02  0.45594000000E+02  0.51100000000E-03 0.  1.
    9900012    2    1    2    0    0 -0.27549691516E+02 -0.28285903995E+02  0.18015138777E+02  0.47787273133E+02  0.20000009521E+02 0.  0.
        -12    1    1    2    0    0  0.27549691516E+02  0.28285903995E+02 -0.18015138777E+02  0.43400726867E+02  0.00000000000E+00 0.  1.
         11    1    3    3    0    0 -0.67170981761E+01  0.32835107992E+00  0.59236355938E+01  0.89619574451E+01  0.51100000000E-03 0. -1.
        -11    1    3    3    0    0 -0.28726102039E+01 -0.90373073674E+01  0.69702261841E+01  0.11768979019E+02  0.51100000000E-03 0.  1.
         12    1    3    3    0    0 -0.17959983136E+02 -0.19576947708E+02  0.51212769991E+01  0.27056336668E+02  0.00000000000E+00 0. -1.
</event>
<event>
 7    1  0.7596051E-010  0.4778729E+02  0.7816164E-02  0.1312668E+00
        -11   -1    0    0    0    0  0.00000000000E+00  0.00000000000E+00  0.45593999997E+02  0.45594000000E+02  0.51100000000E-03 0. -1.
         11   -1    0    0    0    0 -0.00000000000E+00 -0.00000000000E+00 -0.45593999997E+02  0.45594000000E+02  0.51100000000E-03 0.  1.
    9900012    2    1    2    0    0 -0.10077005615E+02  0.21391234528E+02  0.36393554530E+02  0.47787288391E+02  0.20000079091E+02 0.  0.
        -12    1    1    2    0    0  0.10077005615E+02 -0.21391234528E+02 -0.36393554530E+02  0.43400711609E+02  0.00000000000E+00 0.  1.
         11    1    3    3    0    0  0.39580537637E+01  0.97099736298E+01  0.19487458575E+02  0.22129410735E+02  0.51100000000E-03 0. -1.
        -11    1    3    3    0    0 -0.79173947128E+01  0.10152895060E+02  0.12654385112E+02  0.18052697304E+02  0.51100000000E-03 0.  1.
         12    1    3    3    0    0 -0.61176646656E+01  0.15283658380E+01  0.42517108435E+01  0.76051803524E+01  0.00000000000E+00 0. -1.
</event>
<event>
 7    1  0.7596051E-010  0.4778727E+02  0.7816164E-02  0.1312668E+00
        -11   -1    0    0    0    0  0.00000000000E+00  0.00000000000E+00  0.45593999997E+02  0.45594000000E+02  0.51100000000E-03 0. -1.
         11   -1    0    0    0    0 -0.00000000000E+00 -0.00000000000E+00 -0.45593999997E+02  0.45594000000E+02  0.51100000000E-03 0.  1.
    9900012    2    1    2    0    0  0.28372855897E+02 -0.30693236050E+02 -0.11684586001E+02  0.47787271423E+02  0.20000001727E+02 0.  0.
         12    1    1    2    0    0 -0.28372855897E+02  0.30693236050E+02  0.11684586001E+02  0.43400728577E+02  0.00000000000E+00 0. -1.
         11    1    3    3    0    0  0.31103444642E+01  0.11834857879E+01 -0.36275191648E+01  0.49227814138E+01  0.51100000000E-03 0. -1.
        -11    1    3    3    0    0  0.12240995289E+02 -0.74104139051E+01 -0.39637561463E+01  0.14848150153E+02  0.51100000000E-03 0.  1.
        -12    1    3    3    0    0  0.13021516143E+02 -0.24466307933E+02 -0.40933106903E+01  0.28016339856E+02  0.00000000000E+00 0.  1.
</event>
<event>
 7    1  0.7596051E-010  0.4778727E+02  0.7816164E-02  0.1312668E+00
        -11   -1    0    0    0    0  0.00000000000E+00  0.00000000000E+00  0.45593999997E+02  0.45594000000E+02  0.51100000000E-03 0. -1.
         11   -1    0    0    0    0 -0.00000000000E+00 -0.00000000000E+00 -0.45593999997E+02  0.45594000000E+02  0.51100000000E-03 0.  1.
    9900012    2    1    2    0    0 -0.10735123782E+02  0.43132421515E+01  0.41830331933E+02  0.47787267171E+02  0.19999982339E+02 0.  0.
        -12    1    1    2    0    0  0.10735123782E+02 -0.43132421515E+01 -0.41830331933E+02  0.43400732829E+02  0.00000000000E+00 0.  1.
         11    1    3    3    0    0 -0.37396772123E+00 -0.22991888895E+01  0.15636184320E+01  0.28055345779E+01  0.51100000000E-03 0. -1.
        -11    1    3    3    0    0 -0.23137784621E+00 -0.37999250013E+00  0.26543284607E+02  0.26547012789E+02  0.51100000000E-03 0.  1.
         12    1    3    3    0    0 -0.10129778215E+02  0.69924235411E+01  0.13723428894E+02  0.18434719804E+02  0.00000000000E+00 0. -1.
</event>
<event>
 7    1  0.7596051E-010  0.4778727E+02  0.7816164E-02  0.1312668E+00
        -11   -1    0    0    0    0  0.00000000000E+00  0.00000000000E+00  0.45593999997E+02  0.45594000000E+02  0.51100000000E-03 0. -1.
         11   -1    0    0    0    0 -0.00000000000E+00 -0.00000000000E+00 -0.45593999997E+02  0.45594000000E+02  0.51100000000E-03 0.  1.
    9900012    2    1    2    0    0 -0.13825145049E+02 -0.31659591501E+02 -0.26270877311E+02  0.47787270002E+02  0.19999995248E+02 0.  0.
         12    1    1    2    0    0  0.13825145049E+02  0.31659591501E+02  0.26270877311E+02  0.43400729998E+02  0.00000000000E+00 0. -1.
         11    1    3    3    0    0  0.22402567015E+01 -0.10219075624E+01 -0.28034283675E+01  0.37312539484E+01  0.51100000000E-03 0. -1.
        -11    1    3    3    0    0 -0.75065810462E+01 -0.99887023672E+01 -0.16390473165E+02  0.20609962271E+02  0.51100000000E-03 0.  1.
        -12    1    3    3    0    0 -0.85588207048E+01 -0.20648981572E+02 -0.70769757781E+01  0.23446053783E+02  0.00000000000E+00 0.  1.
</event>
<event>
 7    1  0.7596051E-010  0.4778727E+02  0.7816164E-02  0.1312668E+00
        -11   -1    0    0    0    0  0.00000000000E+00  0.00000000000E+00  0.45593999997E+02  0.45594000000E+02  0.51100000000E-03 0. -1.
         11   -1    0    0    0    0 -0.00000000000E+00 -0.00000000000E+00 -0.45593999997E+02  0.45594000000E+02  0.51100000000E-03 0.  1.
    9900012    2    1    2    0    0  0.84681748960E+01  0.42364513558E+02  0.41426123656E+01  0.47787271524E+02  0.20000002185E+02 0.  0.
        -12    1    1    2    0    0 -0.84681748960E+01 -0.42364513558E+02 -0.41426123656E+01  0.43400728476E+02  0.00000000000E+00 0.  1.
         11    1    3    3    0    0  0.21399972859E+01  0.49591908543E+01 -0.16484114597E+01  0.56471606065E+01  0.51100000000E-03 0. -1.
        -11    1    3    3    0    0 -0.39217789104E+01  0.92325265786E+01 -0.37039858156E+01  0.10692960677E+02  0.51100000000E-03 0.  1.
         12    1    3    3    0    0  0.10249956520E+02  0.28172796125E+02  0.94950096409E+01  0.31447150241E+02  0.00000000000E+00 0. -1.
</event>
<event>
 7    1  0.7596051E-010  0.4778727E+02  0.7816164E-02  0.1312668E+00
        -11   -1    0    0    0    0  0.00000000000E+00  0.00000000000E+00  0.45593999997E+02  0.45594000000E+02  0.51100000000E-03 0. -1.
         11   -1    0    0    0    0 -0.00000000000E+00 -0.00000000000E+00 -0.45593999997E+02  0.45594000000E+02  0.51100000000E-03 0.  1.
    9900012    2    1    2    0    0  0.23191004099E+02 -0.36528569109E+02 -0.33859358242E+01  0.47787267360E+02  0.19999983203E+02 0.  0.
        -12    1    1    2    0    0 -0.23191004099E+02  0.36528569109E+02  0.33859358242E+01  0.43400732640E+02  0.00000000000E+00 0.  1.
         11    1    3    3    0    0  0.46536140647E+01 -0.16855072005E+02 -0.89396344711E+01  0.19638397106E+02  0.51100000000E-03 0.  1.
        -11    1    3    3    0    0  0.25230228859E+00 -0.24798232422E+01  0.36837063976E+00  0.25196977888E+01  0.51100000000E-03 0. -1.
         12    1    3    3    0    0  0.18285087746E+02 -0.17193673862E+02  0.51853280072E+01  0.25629172466E+02  0.00000000000E+00 0. -1.
</event>
<event>
 7    1  0.7596051E-010  0.4778727E+02  0.7816164E-02  0.1312668E+00
        -11   -1    0    0    0    0  0.00000000000E+00  0.00000000000E+00  0.45593999997E+02  0.45594000000E+02  0.51100000000E-03 0. -1.
         11   -1    0    0    0    0 -0.00000000000E+00 -0.00000000000E+00 -0.45593999997E+02  0.45594000000E+02  0.51100000000E-03 0.  1.
    9900012    2    1    2    0    0  0.24021908461E+02 -0.15506464202E+02  0.32651502014E+02  0.47787273025E+02  0.20000009029E+02 0.  0.
        -12    1    1    2    0    0 -0.24021908461E+02  0.15506464202E+02 -0.32651502014E+02  0.43400726975E+02  0.00000000000E+00 0.  1.
         11    1    3    3    0    0  0.46664444755E+01 -0.42024446502E+01  0.10972636056E+01  0.63749692361E+01  0.51100000000E-03 0. -1.
        -11    1    3    3    0    0  0.36157027008E+00 -0.58432853789E+01  0.27207382861E+01  0.64557830015E+01  0.51100000000E-03 0.  1.
         12    1    3    3    0    0  0.18993893716E+02 -0.54607341732E+01  0.28833500123E+02  0.34956520787E+02  0.00000000000E+00 0. -1.
</event>
<event>
 7    1  0.7596051E-010  0.4778727E+02  0.7816164E-02  0.1312668E+00
        -11   -1    0    0    0    0  0.00000000000E+00  0.00000000000E+00  0.45593999997E+02  0.45594000000E+02  0.51100000000E-03 0. -1.
         11   -1    0    0    0    0 -0.00000000000E+00 -0.00000000000E+00 -0.45593999997E+02  0.45594000000E+02  0.51100000000E-03 0.  1.
    9900012    2    1    2    0    0 -0.14268701076E+02 -0.32926166499E+02 -0.24410967773E+02  0.47787267076E+02  0.19999981907E+02 0.  0.
         12    1    1    2    0    0  0.14268701076E+02  0.32926166499E+02  0.24410967773E+02  0.43400732924E+02  0.00000000000E+00 0. -1.
         11    1    3    3    0    0  0.10066253776E+01  0.60991950308E+00 -0.52265232665E+01  0.53574100242E+01  0.51100000000E-03 0. -1.
        -11    1    3    3    0    0  0.75542375410E+00 -0.54736157702E+01 -0.26897571812E+01  0.61453989784E+01  0.51100000000E-03 0.  1.
        -12    1    3    3    0    0 -0.16030750208E+02 -0.28062470232E+02 -0.16494687326E+02  0.36284458074E+02  0.00000000000E+00 0.  1.
</event>
<event>
 7    1  0.7596051E-010  0.4778727E+02  0.7816164E-02  0.1312668E+00
        -11   -1    0    0    0    0  0.00000000000E+00  0.00000000000E+00  0.45593999997E+02  0.45594000000E+02  0.51100000000E-03 0. -1.
         11   -1    0    0    0    0 -0.00000000000E+00 -0.00000000000E+00 -0.45593999997E+02  0.45594000000E+02  0.51100000000E-03 0.  1.
    9900012    2    1    2    0    0 -0.18392510064E+02 -0.38553620701E+02  0.76783424647E+01  0.47787273755E+02  0.20000012357E+02 0.  0.
        -12    1    1    2    0    0  0.18392510064E+02  0.38553620701E+02 -0.76783424647E+01  0.43400726245E+02  0.00000000000E+00 0.  1.
         11    1    3    3    0    0  0.60996595408E+00 -0.17525238629E+01  0.20600781078E+01  0.27726017432E+01  0.51100000000E-03 0. -1.
        -11    1    3    3    0    0 -0.74421812571E+01 -0.15120077026E+02  0.10648319076E+02  0.19934630434E+02  0.51100000000E-03 0.  1.
         12    1    3    3    0    0 -0.11560294761E+02 -0.21681019812E+02 -0.50300547190E+01  0.25080041578E+02  0.00000000000E+00 0. -1.
</event>
<event>
 7    1  0.7596051E-010  0.4778727E+02  0.7816164E-02  0.1312668E+00
        -11   -1    0    0    0    0  0.00000000000E+00  0.00000000000E+00  0.45593999997E+02  0.45594000000E+02  0.51100000000E-03 0. -1.
         11   -1    0    0    0    0 -0.00000000000E+00 -0.00000000000E+00 -0.45593999997E+02  0.45594000000E+02  0.51100000000E-03 0.  1.
    9900012    2    1    2    0    0  0.89495121001E+01 -0.16328524265E+02  0.39203430489E+02  0.47787269204E+02  0.19999991611E+02 0.  0.
        -12    1    1    2    0    0 -0.89495121001E+01  0.16328524265E+02 -0.39203430489E+02  0.43400730796E+02  0.00000000000E+00 0.  1.
         11    1    3    3    0    0  0.19510957941E+01 -0.58733021016E+01  0.16870682068E+02  0.17970040792E+02  0.51100000000E-03 0. -1.
        -11    1    3    3    0    0  0.88366347576E+01 -0.11336868088E+02  0.23440736169E+02  0.27496887174E+02  0.51100000000E-03 0.  1.
        -12    1    3    3    0    0 -0.18382184517E+01  0.88164592375E+00 -0.11079877483E+01  0.23203412381E+01  0.00000000000E+00 0.  1.
</event>
<event>
 7    1  0.7596051E-010  0.4778727E+02  0.7816164E-02  0.1312668E+00
        -11   -1    0    0    0    0  0.00000000000E+00  0.00000000000E+00  0.45593999997E+02  0.45594000000E+02  0.51100000000E-03 0.  1.
         11   -1    0    0    0    0 -0.00000000000E+00 -0.00000000000E+00 -0.45593999997E+02  0.45594000000E+02  0.51100000000E-03 0. -1.
    9900012    2    1    2    0    0 -0.39344006244E+02 -0.10659660913E+02  0.14901135310E+02  0.47787273835E+02  0.20000012725E+02 0.  0.
        -12    1    1    2    0    0  0.39344006244E+02  0.10659660913E+02 -0.14901135310E+02  0.43400726165E+02  0.00000000000E+00 0.  1.
         11    1    3    3    0    0 -0.50348093454E+01 -0.40808033454E+01 -0.90523643694E+00  0.65438302512E+01  0.51100000000E-03 0. -1.
        -11    1    3    3    0    0 -0.64222683248E+01 -0.11803772679E+01  0.10473778049E+02  0.12342562449E+02  0.51100000000E-03 0.  1.
         12    1    3    3    0    0 -0.27886928574E+02 -0.53984802999E+01  0.53325936975E+01  0.28900881135E+02  0.00000000000E+00 0. -1.
</event>
<event>
 7    1  0.7596051E-010  0.4778727E+02  0.7816164E-02  0.1312668E+00
        -11   -1    0    0    0    0  0.00000000000E+00  0.00000000000E+00  0.45593999997E+02  0.45594000000E+02  0.51100000000E-03 0.  1.
         11   -1    0    0    0    0 -0.00000000000E+00 -0.00000000000E+00 -0.45593999997E+02  0.45594000000E+02  0.51100000000E-03 0. -1.
    9900012    2    1    2    0    0  0.39078070599E+02 -0.11682757698E+02 -0.14833783522E+02  0.47787267716E+02  0.19999984824E+02 0.  0.
         12    1    1    2    0    0 -0.39078070599E+02  0.11682757698E+02  0.14833783522E+02  0.43400732284E+02  0.00000000000E+00 0. -1.
         11    1    3    3    0    0  0.18062146954E+02 -0.59813384581E+01 -0.54569177617E+01  0.19793825149E+02  0.51100000000E-03 0. -1.
        -11    1    3    3    0    0  0.14809840066E+02 -0.10251661218E+02 -0.93583698521E+01  0.20297955737E+02  0.51100000000E-03 0.  1.
         12    1    3    3    0    0  0.62060835792E+01  0.45502419781E+01 -0.18495908542E-01  0.76954868299E+01  0.00000000000E+00 0. -1.
</event>
<event>
 7    1  0.7596051E-010  0.4778727E+02  0.7816164E-02  0.1312668E+00
        -11   -1    0    0    0    0  0.00000000000E+00  0.00000000000E+00  0.45593999997E+02  0.45594000000E+02  0.51100000000E-03 0. -1.
         11   -1    0    0    0    0 -0.00000000000E+00 -0.00000000000E+00 -0.45593999997E+02  0.45594000000E+02  0.51100000000E-03 0.  1.
    9900012    2    1    2    0    0  0.23747013317E+02 -0.73616322138E+01 -0.35573992946E+02  0.47787271383E+02  0.20000001545E+02 0.  0.
         12    1    1    2    0    0 -0.23747013317E+02  0.73616322138E+01  0.35573992946E+02  0.43400728617E+02  0.00000000000E+00 0. -1.
         11    1    3    3    0    0  0.94740922919E+01  0.28014248106E+01 -0.49993463736E+01  0.11072482565E+02  0.51100000000E-03 0.  1.
        -11    1    3    3    0    0  0.18200884255E+01  0.84574930874E+00 -0.10894003193E+00  0.20099457608E+01  0.51100000000E-03 0. -1.
        -12    1    3    3    0    0  0.12452832600E+02 -0.11008806333E+02 -0.30465706541E+02  0.34704843058E+02  0.00000000000E+00 0.  1.
</event>
<event>
 7    1  0.7596051E-010  0.4778727E+02  0.7816164E-02  0.1312668E+00
        -11   -1    0    0    0    0  0.00000000000E+00  0.00000000000E+00  0.45593999997E+02  0.45594000000E+02  0.51100000000E-03 0. -1.
         11   -1    0    0    0    0 -0.00000000000E+00 -0.00000000000E+00 -0.45593999997E+02  0.45594000000E+02  0.51100000000E-03 0.  1.
    9900012    2    1    2    0    0  0.14680197054E+02 -0.82215897238E+01 -0.40006502551E+02  0.47787274551E+02  0.20000015987E+02 0.  0.
         12    1    1    2    0    0 -0.14680197054E+02  0.82215897238E+01  0.40006502551E+02  0.43400725449E+02  0.00000000000E+00 0. -1.
         11    1    3    3    0    0  0.62623838595E+01  0.20943205072E+01 -0.75600568101E+01  0.10037832895E+02  0.51100000000E-03 0. -1.
        -11    1    3    3    0    0  0.56576810712E+00  0.32956406904E+01 -0.82071767509E+01  0.88622283650E+01  0.51100000000E-03 0.  1.
         12    1    3    3    0    0  0.78520450874E+01 -0.13611550921E+02 -0.24239268990E+02  0.28887213291E+02  0.00000000000E+00 0. -1.
</event>
<event>
 7    1  0.7596051E-010  0.4778726E+02  0.7816164E-02  0.1312668E+00
        -11   -1    0    0    0    0  0.00000000000E+00  0.00000000000E+00  0.45593999997E+02  0.45594000000E+02  0.51100000000E-03 0. -1.
         11   -1    0    0    0    0 -0.00000000000E+00 -0.00000000000E+00 -0.45593999997E+02  0.45594000000E+02  0.51100000000E-03 0.  1.
    9900012    2    1    2    0    0  0.15304618475E+02  0.38170506464E+02 -0.13871009548E+02  0.47787264796E+02  0.19999971511E+02 0.  0.
         12    1    1    2    0    0 -0.15304618475E+02 -0.38170506464E+02  0.13871009548E+02  0.43400735204E+02  0.00000000000E+00 0. -1.
         11    1    3    3    0    0 -0.64945726850E+00  0.10866179816E+02 -0.10888840924E+01  0.10939896132E+02  0.51100000000E-03 0. -1.
        -11    1    3    3    0    0  0.33552525091E+01  0.19395778327E+02 -0.73299755509E+01  0.21004344268E+02  0.51100000000E-03 0.  1.
         12    1    3    3    0    0  0.12598823234E+02  0.79085483205E+01 -0.54521499045E+01  0.15843024396E+02  0.00000000000E+00 0. -1.
</event>
<event>
 7    1  0.7596051E-010  0.4778727E+02  0.7816164E-02  0.1312668E+00
        -11   -1    0    0    0    0  0.00000000000E+00  0.00000000000E+00  0.45593999997E+02  0.45594000000E+02  0.51100000000E-03 0. -1.
         11   -1    0    0    0    0 -0.00000000000E+00 -0.00000000000E+00 -0.45593999997E+02  0.45594000000E+02  0.51100000000E-03 0.  1.
    9900012    2    1    2    0    0  0.22126021148E+02 -0.57373447524E+01 -0.36893702229E+02  0.47787271886E+02  0.20000003835E+02 0.  0.
         12    1    1    2    0    0 -0.22126021148E+02  0.57373447524E+01  0.36893702229E+02  0.43400728114E+02  0.00000000000E+00 0. -1.
         11    1    3    3    0    0  0.45224081933E+01 -0.65370595361E+01 -0.93582058438E+01  0.12278490955E+02  0.51100000000E-03 0. -1.
        -11    1    3    3    0    0  0.17950058427E+01  0.53845422828E+01 -0.97009238704E+01  0.11239362338E+02  0.51100000000E-03 0.  1.
        -12    1    3    3    0    0  0.15808607112E+02 -0.45848274990E+01 -0.17834572515E+02  0.24269418593E+02  0.00000000000E+00 0.  1.
</event>
<event>
 7    1  0.7596051E-010  0.4778727E+02  0.7816164E-02  0.1312668E+00
        -11   -1    0    0    0    0  0.00000000000E+00  0.00000000000E+00  0.45593999997E+02  0.45594000000E+02  0.51100000000E-03 0.  1.
         11   -1    0    0    0    0 -0.00000000000E+00 -0.00000000000E+00 -0.45593999997E+02  0.45594000000E+02  0.51100000000E-03 0. -1.
    9900012    2    1    2    0    0 -0.39090793227E+01 -0.40662871145E+02  0.14658560111E+02  0.47787269874E+02  0.19999994666E+02 0.  0.
        -12    1    1    2    0    0  0.39090793227E+01  0.40662871145E+02 -0.14658560111E+02  0.43400730126E+02  0.00000000000E+00 0.  1.
         11    1    3    3    0    0 -0.35793243453E+00 -0.11505532934E+01  0.17025566491E+01  0.20858062981E+01  0.51100000000E-03 0. -1.
        -11    1    3    3    0    0  0.13080025525E+01 -0.12650059607E+02  0.13299080186E+02  0.18401098141E+02  0.51100000000E-03 0.  1.
         12    1    3    3    0    0 -0.48591494407E+01 -0.26862258244E+02 -0.34307672374E+00  0.27300365436E+02  0.00000000000E+00 0. -1.
</event>
<event>
 7    1  0.7596051E-010  0.4778728E+02  0.7816164E-02  0.1312668E+00
        -11   -1    0    0    0    0  0.00000000000E+00  0.00000000000E+00  0.45593999997E+02  0.45594000000E+02  0.51100000000E-03 0. -1.
         11   -1    0    0    0    0 -0.00000000000E+00 -0.00000000000E+00 -0.45593999997E+02  0.45594000000E+02  0.51100000000E-03 0.  1.
    9900012    2    1    2    0    0 -0.15931255384E+02  0.40277918603E+02  0.27399040764E+01  0.47787277662E+02  0.20000030172E+02 0.  0.
         12    1    1    2    0    0  0.15931255384E+02 -0.40277918603E+02 -0.27399040764E+01  0.43400722338E+02  0.00000000000E+00 0. -1.
         11    1    3    3    0    0 -0.33348993593E+01  0.11252524303E+01  0.17987323582E+01  0.39526175031E+01  0.51100000000E-03 0. -1.
        -11    1    3    3    0    0 -0.13883205228E+02  0.34022752450E+02  0.51105652614E+01  0.37099985838E+02  0.51100000000E-03 0.  1.
        -12    1    3    3    0    0  0.12868492038E+01  0.51299137233E+01 -0.41693935432E+01  0.67346743203E+01  0.00000000000E+00 0.  1.
</event>
<event>
 7    1  0.7596051E-010  0.4778727E+02  0.7816164E-02  0.1312668E+00
        -11   -1    0    0    0    0  0.00000000000E+00  0.00000000000E+00  0.45593999997E+02  0.45594000000E+02  0.51100000000E-03 0. -1.
         11   -1    0    0    0    0 -0.00000000000E+00 -0.00000000000E+00 -0.45593999997E+02  0.45594000000E+02  0.51100000000E-03 0.  1.
    9900012    2    1    2    0    0 -0.28512256840E+01  0.25227137804E+01  0.43233434162E+02  0.47787269566E+02  0.19999993261E+02 0.  0.
        -12    1    1    2    0    0  0.28512256840E+01 -0.25227137804E+01 -0.43233434162E+02  0.43400730434E+02  0.00000000000E+00 0.  1.
         11    1    3    3    0    0 -0.98580680676E+00  0.27980938291E+00  0.18738752767E+02  0.18766751554E+02  0.51100000000E-03 0. -1.
        -11    1    3    3    0    0 -0.61299502524E+01  0.21538876328E+01  0.23834551748E+02  0.24704278563E+02  0.51100000000E-03 0.  1.
        -12    1    3    3    0    0  0.42645313752E+01  0.89016764707E-01  0.66012964697E+00  0.43162394495E+01  0.00000000000E+00 0.  1.
</event>
<event>
 7    1  0.7596051E-010  0.4778727E+02  0.7816164E-02  0.1312668E+00
        -11   -1    0    0    0    0  0.00000000000E+00  0.00000000000E+00  0.45593999997E+02  0.45594000000E+02  0.51100000000E-03 0. -1.
         11   -1    0    0    0    0 -0.00000000000E+00 -0.00000000000E+00 -0.45593999997E+02  0.45594000000E+02  0.51100000000E-03 0.  1.
    9900012    2    1    2    0    0 -0.29353109157E+02 -0.40458149633E+01 -0.31711976726E+02  0.47787273004E+02  0.20000008936E+02 0.  0.
         12    1    1    2    0    0  0.29353109157E+02  0.40458149633E+01  0.31711976726E+02  0.43400726996E+02  0.00000000000E+00 0. -1.
         11    1    3    3    0    0 -0.11696286835E+01  0.43199679967E+00 -0.10749810076E+01  0.16462797210E+01  0.51100000000E-03 0. -1.
        -11    1    3    3    0    0 -0.53412632476E+01 -0.69758472820E+01 -0.17725794446E+02  0.19783713690E+02  0.51100000000E-03 0.  1.
        -12    1    3    3    0    0 -0.22842217226E+02  0.24980355190E+01 -0.12911201273E+02  0.26357279593E+02  0.00000000000E+00 0.  1.
</event>
<event>
 7    1  0.7596051E-010  0.4778726E+02  0.7816164E-02  0.1312668E+00
        -11   -1    0    0    0    0  0.00000000000E+00  0.00000000000E+00  0.45593999997E+02  0.45594000000E+02  0.51100000000E-03 0. -1.
         11   -1    0    0    0    0 -0.00000000000E+00 -0.00000000000E+00 -0.45593999997E+02  0.45594000000E+02  0.51100000000E-03 0.  1.
    9900012    2    1    2    0    0 -0.32902752179E+01 -0.19361434282E+02 -0.38703141459E+02  0.47787260291E+02  0.19999950971E+02 0.  0.
         12    1    1    2    0    0  0.32902752179E+01  0.19361434282E+02  0.38703141459E+02  0.43400739709E+02  0.00000000000E+00 0. -1.
         11    1    3    3    0    0 -0.56187527804E+01 -0.70548970460E+00 -0.88890553451E+01  0.10539611175E+02  0.51100000000E-03 0. -1.
        -11    1    3    3    0    0 -0.16006031088E+01 -0.50853304133E+01 -0.18181232447E+02  0.18946760390E+02  0.51100000000E-03 0.  1.
        -12    1    3    3    0    0  0.39290806712E+01 -0.13570614165E+02 -0.11632853667E+02  0.18300888726E+02  0.00000000000E+00 0.  1.
</event>
<event>
 7    1  0.7596051E-010  0.4778724E+02  0.7816164E-02  0.1312668E+00
        -11   -1    0    0    0    0  0.00000000000E+00  0.00000000000E+00  0.45593999997E+02  0.45594000000E+02  0.51100000000E-03 0. -1.
         11   -1    0    0    0    0 -0.00000000000E+00 -0.00000000000E+00 -0.45593999997E+02  0.45594000000E+02  0.51100000000E-03 0.  1.
    9900012    2    1    2    0    0  0.21387266282E+02  0.80545169880E+01 -0.36896282227E+02  0.47787239118E+02  0.19999854436E+02 0.  0.
         12    1    1    2    0    0 -0.21387266282E+02 -0.80545169880E+01  0.36896282227E+02  0.43400760882E+02  0.00000000000E+00 0. -1.
         11    1    3    3    0    0  0.96160457310E+01  0.47706385507E+01 -0.14892109564E+02  0.18357621175E+02  0.51100000000E-03 0. -1.
        -11    1    3    3    0    0  0.77184554324E+01  0.35471208910E+00 -0.23058997784E+02  0.24319082096E+02  0.51100000000E-03 0.  1.
         12    1    3    3    0    0  0.40527651191E+01  0.29291663482E+01  0.10548251218E+01  0.51105358470E+01  0.00000000000E+00 0. -1.
</event>
<event>
 7    1  0.7596051E-010  0.4778727E+02  0.7816164E-02  0.1312668E+00
        -11   -1    0    0    0    0  0.00000000000E+00  0.00000000000E+00  0.45593999997E+02  0.45594000000E+02  0.51100000000E-03 0. -1.
         11   -1    0    0    0    0 -0.00000000000E+00 -0.00000000000E+00 -0.45593999997E+02  0.45594000000E+02  0.51100000000E-03 0.  1.
    9900012    2    1    2    0    0  0.27815970014E+02  0.73034862543E+01  0.32504679721E+02  0.47787270708E+02  0.19999998468E+02 0.  0.
        -12    1    1    2    0    0 -0.27815970014E+02 -0.73034862543E+01 -0.32504679721E+02  0.43400729292E+02  0.00000000000E+00 0.  1.
         11    1    3    3    0    0  0.13292824317E+02  0.32614193696E+01  0.15834713211E+02  0.20930221627E+02  0.51100000000E-03 0. -1.
        -11    1    3    3    0    0  0.15919446645E+02  0.68678471055E+01  0.16087559535E+02  0.23651758442E+02  0.51100000000E-03 0.  1.
        -12    1    3    3    0    0 -0.13963009485E+01 -0.28257802208E+01  0.58240697481E+00  0.32052906388E+01  0.00000000000E+00 0.  1.
</event>
<event>
 7    1  0.7596051E-010  0.4778727E+02  0.7816164E-02  0.1312668E+00
        -11   -1    0    0    0    0  0.00000000000E+00  0.00000000000E+00  0.45593999997E+02  0.45594000000E+02  0.51100000000E-03 0. -1.
         11   -1    0    0    0    0 -0.00000000000E+00 -0.00000000000E+00 -0.45593999997E+02  0.45594000000E+02  0.51100000000E-03 0.  1.
    9900012    2    1    2    0    0 -0.28078982315E+02  0.32596964121E+02 -0.57124629479E+01  0.47787267856E+02  0.19999985463E+02 0.  0.
         12    1    1    2    0    0  0.28078982315E+02 -0.32596964121E+02  0.57124629479E+01  0.43400732144E+02  0.00000000000E+00 0. -1.
         11    1    3    3    0    0 -0.37997553389E+01  0.21715133438E+01  0.27943278975E+01  0.51924829800E+01  0.51100000000E-03 0. -1.
        -11    1    3    3    0    0 -0.10518050950E+02  0.46860373031E+01  0.17727781597E+01  0.11650368408E+02  0.51100000000E-03 0.  1.
        -12    1    3    3    0    0 -0.13761176026E+02  0.25739413474E+02 -0.10279569005E+02  0.30944416468E+02  0.00000000000E+00 0.  1.
</event>
<event>
 7    1  0.7596051E-010  0.4778728E+02  0.7816164E-02  0.1312668E+00
        -11   -1    0    0    0    0  0.00000000000E+00  0.00000000000E+00  0.45593999997E+02  0.45594000000E+02  0.51100000000E-03 0. -1.
         11   -1    0    0    0    0 -0.00000000000E+00 -0.00000000000E+00 -0.45593999997E+02  0.45594000000E+02  0.51100000000E-03 0.  1.
    9900012    2    1    2    0    0  0.26865323650E+02  0.14376399916E+02 -0.30906247496E+02  0.47787278536E+02  0.20000034156E+02 0.  0.
         12    1    1    2    0    0 -0.26865323650E+02 -0.14376399916E+02  0.30906247496E+02  0.43400721464E+02  0.00000000000E+00 0. -1.
         11    1    3    3    0    0 -0.25667290288E+01  0.88640945791E+00 -0.79815518731E-01  0.27166505871E+01  0.51100000000E-03 0. -1.
        -11    1    3    3    0    0  0.25059704521E+01  0.11068857026E+01 -0.73817934449E+00  0.28372509355E+01  0.51100000000E-03 0.  1.
         12    1    3    3    0    0  0.26926082226E+02  0.12383104756E+02 -0.30088252633E+02  0.42233377013E+02  0.00000000000E+00 0. -1.
</event>
<event>
 7    1  0.7596051E-010  0.4778727E+02  0.7816164E-02  0.1312668E+00
        -11   -1    0    0    0    0  0.00000000000E+00  0.00000000000E+00  0.45593999997E+02  0.45594000000E+02  0.51100000000E-03 0. -1.
         11   -1    0    0    0    0 -0.00000000000E+00 -0.00000000000E+00 -0.45593999997E+02  0.45594000000E+02  0.51100000000E-03 0.  1.
    9900012    2    1    2    0    0  0.98456101033E+01  0.60632973169E+01  0.41832089594E+02  0.47787270369E+02  0.19999996922E+02 0.  0.
        -12    1    1    2    0    0 -0.98456101033E+01 -0.60632973169E+01 -0.41832089594E+02  0.43400729631E+02  0.00000000000E+00 0.  1.
         11    1    3    3    0    0  0.14371384988E+01  0.37834687130E+01  0.41415060799E+01  0.57906886843E+01  0.51100000000E-03 0. -1.
        -11    1    3    3    0    0  0.13385704463E+01  0.86328684430E+01  0.14422672671E+02  0.16862137339E+02  0.51100000000E-03 0.  1.
         12    1    3    3    0    0  0.70699011582E+01 -0.63530398391E+01  0.23267910843E+02  0.25134444346E+02  0.00000000000E+00 0. -1.
</event>
<event>
 7    1  0.7596051E-010  0.4778727E+02  0.7816164E-02  0.1312668E+00
        -11   -1    0    0    0    0  0.00000000000E+00  0.00000000000E+00  0.45593999997E+02  0.45594000000E+02  0.51100000000E-03 0. -1.
         11   -1    0    0    0    0 -0.00000000000E+00 -0.00000000000E+00 -0.45593999997E+02  0.45594000000E+02  0.51100000000E-03 0.  1.
    9900012    2    1    2    0    0 -0.33236269015E+02  0.69505572495E+01 -0.27030793473E+02  0.47787267058E+02  0.19999981826E+02 0.  0.
         12    1    1    2    0    0  0.33236269015E+02 -0.69505572495E+01  0.27030793473E+02  0.43400732942E+02  0.00000000000E+00 0. -1.
         11    1    3    3    0    0 -0.38747687373E+01 -0.80811287693E+00 -0.86274496599E+01  0.94920897111E+01  0.51100000000E-03 0. -1.
        -11    1    3    3    0    0 -0.14848347106E+02  0.27904995095E+00 -0.15935042856E+02  0.21782490026E+02  0.51100000000E-03 0.  1.
         12    1    3    3    0    0 -0.14513153171E+02  0.74796201755E+01 -0.24683009567E+01  0.16512687321E+02  0.00000000000E+00 0. -1.
</event>
<event>
 7    1  0.7596051E-010  0.4778727E+02  0.7816164E-02  0.1312668E+00
        -11   -1    0    0    0    0  0.00000000000E+00  0.00000000000E+00  0.45593999997E+02  0.45594000000E+02  0.51100000000E-03 0.  1.
         11   -1    0    0    0    0 -0.00000000000E+00 -0.00000000000E+00 -0.45593999997E+02  0.45594000000E+02  0.51100000000E-03 0. -1.
    9900012    2    1    2    0    0  0.37314623888E+02  0.19231263771E+02  0.11018196237E+02  0.47787270623E+02  0.19999998078E+02 0.  0.
        -12    1    1    2    0    0 -0.37314623888E+02 -0.19231263771E+02 -0.11018196237E+02  0.43400729377E+02  0.00000000000E+00 0.  1.
         11    1    3    3    0    0  0.18677296772E+02  0.24897445113E+01  0.10182316929E+02  0.21417745464E+02  0.51100000000E-03 0. -1.
        -11    1    3    3    0    0  0.17455552757E+02  0.11653968912E+02  0.17730097743E+01  0.21063116516E+02  0.51100000000E-03 0.  1.
        -12    1    3    3    0    0  0.11817743590E+01  0.50875503478E+01 -0.93713046634E+00  0.53064086431E+01  0.00000000000E+00 0.  1.
</event>
<event>
 7    1  0.7596051E-010  0.4778733E+02  0.7816164E-02  0.1312667E+00
        -11   -1    0    0    0    0  0.00000000000E+00  0.00000000000E+00  0.45593999997E+02  0.45594000000E+02  0.51100000000E-03 0. -1.
         11   -1    0    0    0    0 -0.00000000000E+00 -0.00000000000E+00 -0.45593999997E+02  0.45594000000E+02  0.51100000000E-03 0.  1.
    9900012    2    1    2    0    0 -0.80239872729E+01  0.38701521444E+02 -0.17928351031E+02  0.47787332902E+02  0.20000282031E+02 0.  0.
         12    1    1    2    0    0  0.80239872729E+01 -0.38701521444E+02  0.17928351031E+02  0.43400667098E+02  0.00000000000E+00 0. -1.
         11    1    3    3    0    0 -0.79584091822E+01  0.98030889396E+01 -0.73077964653E+01  0.14589061619E+02  0.51100000000E-03 0. -1.
        -11    1    3    3    0    0 -0.59453970983E+01  0.17839888649E+02 -0.78124805232E+01  0.20362814782E+02  0.51100000000E-03 0.  1.
         12    1    3    3    0    0  0.58798190077E+01  0.11058543856E+02 -0.28080740426E+01  0.12835456502E+02  0.00000000000E+00 0. -1.
</event>
<event>
 7    1  0.7596051E-010  0.4778728E+02  0.7816164E-02  0.1312668E+00
        -11   -1    0    0    0    0  0.00000000000E+00  0.00000000000E+00  0.45593999997E+02  0.45594000000E+02  0.51100000000E-03 0. -1.
         11   -1    0    0    0    0 -0.00000000000E+00 -0.00000000000E+00 -0.45593999997E+02  0.45594000000E+02  0.51100000000E-03 0.  1.
    9900012    2    1    2    0    0 -0.32477206577E+02 -0.25246931197E+02  0.13836413111E+02  0.47787276392E+02  0.20000024381E+02 0.  0.
        -12    1    1    2    0    0  0.32477206577E+02  0.25246931197E+02 -0.13836413111E+02  0.43400723608E+02  0.00000000000E+00 0.  1.
         11    1    3    3    0    0  0.20894281302E+00 -0.27835353091E+00  0.43977921572E+00  0.56084205173E+00  0.51100000000E-03 0.  1.
        -11    1    3    3    0    0 -0.59036211178E+01  0.60015027831E+00  0.77648700988E+01  0.97727238051E+01  0.51100000000E-03 0. -1.
         12    1    3    3    0    0 -0.26782528272E+02 -0.25568727945E+02  0.56317637967E+01  0.37453710535E+02  0.00000000000E+00 0. -1.
</event>
<event>
 7    1  0.7596051E-010  0.4778727E+02  0.7816164E-02  0.1312668E+00
        -11   -1    0    0    0    0  0.00000000000E+00  0.00000000000E+00  0.45593999997E+02  0.45594000000E+02  0.51100000000E-03 0. -1.
         11   -1    0    0    0    0 -0.00000000000E+00 -0.00000000000E+00 -0.45593999997E+02  0.45594000000E+02  0.51100000000E-03 0.  1.
    9900012    2    1    2    0    0 -0.83263182510E+01  0.24741870232E+02 -0.34671828213E+02  0.47787269709E+02  0.19999993911E+02 0.  0.
         12    1    1    2    0    0  0.83263182510E+01 -0.24741870232E+02  0.34671828213E+02  0.43400730291E+02  0.00000000000E+00 0. -1.
         11    1    3    3    0    0  0.23858268696E+01  0.53066670154E+01 -0.53262703401E+01  0.78880948689E+01  0.51100000000E-03 0. -1.
        -11    1    3    3    0    0 -0.75651911211E+01  0.74886750435E+01 -0.34202466048E+01  0.11180807561E+02  0.51100000000E-03 0.  1.
        -12    1    3    3    0    0 -0.31469539995E+01  0.11946528173E+02 -0.25925311268E+02  0.28718367279E+02  0.00000000000E+00 0.  1.
</event>
<event>
 7    1  0.7596051E-010  0.4778727E+02  0.7816164E-02  0.1312668E+00
        -11   -1    0    0    0    0  0.00000000000E+00  0.00000000000E+00  0.45593999997E+02  0.45594000000E+02  0.51100000000E-03 0. -1.
         11   -1    0    0    0    0 -0.00000000000E+00 -0.00000000000E+00 -0.45593999997E+02  0.45594000000E+02  0.51100000000E-03 0.  1.
    9900012    2    1    2    0    0 -0.12305619311E+01  0.23266353848E+02  0.36616746054E+02  0.47787267338E+02  0.19999983099E+02 0.  0.
        -12    1    1    2    0    0  0.12305619311E+01 -0.23266353848E+02 -0.36616746054E+02  0.43400732662E+02  0.00000000000E+00 0.  1.
         11    1    3    3    0    0  0.46158876600E+01  0.21081030987E+01  0.98112753566E+01  0.11045888011E+02  0.51100000000E-03 0. -1.
        -11    1    3    3    0    0  0.36445799533E+01  0.89512128908E+01  0.10392896974E+02  0.14192233193E+02  0.51100000000E-03 0.  1.
        -12    1    3    3    0    0 -0.94910295443E+01  0.12207037859E+02  0.16412573724E+02  0.22549146133E+02  0.00000000000E+00 0.  1.
</event>
<event>
 7    1  0.7596051E-010  0.4778727E+02  0.7816164E-02  0.1312668E+00
        -11   -1    0    0    0    0  0.00000000000E+00  0.00000000000E+00  0.45593999997E+02  0.45594000000E+02  0.51100000000E-03 0.  1.
         11   -1    0    0    0    0 -0.00000000000E+00 -0.00000000000E+00 -0.45593999997E+02  0.45594000000E+02  0.51100000000E-03 0. -1.
    9900012    2    1    2    0    0 -0.17158682015E+02 -0.34578797030E+02  0.19837081786E+02  0.47787269749E+02  0.19999994093E+02 0.  0.
        -12    1    1    2    0    0  0.17158682015E+02  0.34578797030E+02 -0.19837081786E+02  0.43400730251E+02  0.00000000000E+00 0.  1.
         11    1    3    3    0    0 -0.26222619872E+01 -0.20294258781E+02  0.12112089145E+02  0.23778896129E+02  0.51100000000E-03 0. -1.
        -11    1    3    3    0    0 -0.93665011112E+00 -0.74533617685E+01  0.26356548776E+01  0.79609416514E+01  0.51100000000E-03 0.  1.
        -12    1    3    3    0    0 -0.13599769917E+02 -0.68311764800E+01  0.50893377636E+01  0.16047431968E+02  0.00000000000E+00 0.  1.
</event>
<event>
 7    1  0.7596051E-010  0.4778727E+02  0.7816164E-02  0.1312668E+00
        -11   -1    0    0    0    0  0.00000000000E+00  0.00000000000E+00  0.45593999997E+02  0.45594000000E+02  0.51100000000E-03 0.  1.
         11   -1    0    0    0    0 -0.00000000000E+00 -0.00000000000E+00 -0.45593999997E+02  0.45594000000E+02  0.51100000000E-03 0. -1.
    9900012    2    1    2    0    0  0.13488885965E+01 -0.42341069915E+02  0.94359633415E+01  0.47787272977E+02  0.20000008810E+02 0.  0.
         12    1    1    2    0    0 -0.13488885965E+01  0.42341069915E+02 -0.94359633415E+01  0.43400727023E+02  0.00000000000E+00 0. -1.
         11    1    3    3    0    0 -0.59433201140E+01 -0.29879330783E+02  0.14184121130E+01  0.30497694260E+02  0.51100000000E-03 0. -1.
        -11    1    3    3    0    0 -0.79440350405E-01 -0.43572835711E+01  0.24762060907E+01  0.50123674799E+01  0.51100000000E-03 0.  1.
         12    1    3    3    0    0  0.73716490609E+01 -0.81044555609E+01  0.55413451377E+01  0.12277211237E+02  0.00000000000E+00 0. -1.
</event>
<event>
 7    1  0.7596051E-010  0.4778727E+02  0.7816164E-02  0.1312668E+00
        -11   -1    0    0    0    0  0.00000000000E+00  0.00000000000E+00  0.45593999997E+02  0.45594000000E+02  0.51100000000E-03 0. -1.
         11   -1    0    0    0    0 -0.00000000000E+00 -0.00000000000E+00 -0.45593999997E+02  0.45594000000E+02  0.51100000000E-03 0.  1.
    9900012    2    1    2    0    0  0.84107515286E+01 -0.17899533754E+01 -0.42540313770E+02  0.47787274545E+02  0.20000015959E+02 0.  0.
         12    1    1    2    0    0 -0.84107515286E+01  0.17899533754E+01  0.42540313770E+02  0.43400725455E+02  0.00000000000E+00 0. -1.
         11    1    3    3    0    0  0.34040973870E+01 -0.55413188605E+00 -0.70780672495E+01  0.78736254303E+01  0.51100000000E-03 0. -1.
        -11    1    3    3    0    0 -0.60106416028E+01  0.23209063030E+01 -0.94058183741E+01  0.11401045482E+02  0.51100000000E-03 0.  1.
        -12    1    3    3    0    0  0.11017295744E+02 -0.35567277924E+01 -0.26056428147E+02  0.28512603632E+02  0.00000000000E+00 0.  1.
</event>
<event>
 7    1  0.7596051E-010  0.4778727E+02  0.7816164E-02  0.1312668E+00
        -11   -1    0    0    0    0  0.00000000000E+00  0.00000000000E+00  0.45593999997E+02  0.45594000000E+02  0.51100000000E-03 0. -1.
         11   -1    0    0    0    0 -0.00000000000E+00 -0.00000000000E+00 -0.45593999997E+02  0.45594000000E+02  0.51100000000E-03 0.  1.
    9900012    2    1    2    0    0  0.18101307878E+02 -0.48199101755E+01 -0.39150152561E+02  0.47787270437E+02  0.19999997233E+02 0.  0.
         12    1    1    2    0    0 -0.18101307878E+02  0.48199101755E+01  0.39150152561E+02  0.43400729563E+02  0.00000000000E+00 0. -1.
         11    1    3    3    0    0 -0.17611802616E+01 -0.46359864506E+01 -0.10509153688E+02  0.11620517966E+02  0.51100000000E-03 0. -1.
        -11    1    3    3    0    0  0.99821445175E+01 -0.46506235619E+01 -0.17027118286E+02  0.20277925586E+02  0.51100000000E-03 0.  1.
         12    1    3    3    0    0  0.98803436216E+01  0.44666998370E+01 -0.11613880587E+02  0.15888826885E+02  0.00000000000E+00 0. -1.
</event>
<event>
 7    1  0.7596051E-010  0.4778727E+02  0.7816164E-02  0.1312668E+00
        -11   -1    0    0    0    0  0.00000000000E+00  0.00000000000E+00  0.45593999997E+02  0.45594000000E+02  0.51100000000E-03 0.  1.
         11   -1    0    0    0    0 -0.00000000000E+00 -0.00000000000E+00 -0.45593999997E+02  0.45594000000E+02  0.51100000000E-03 0. -1.
    9900012    2    1    2    0    0  0.89965084336E+01  0.38957271945E+02 -0.16882453457E+02  0.47787269175E+02  0.19999991478E+02 0.  0.
         12    1    1    2    0    0 -0.89965084336E+01 -0.38957271945E+02  0.16882453457E+02  0.43400730825E+02  0.00000000000E+00 0. -1.
         11    1    3    3    0    0  0.70287015045E+01  0.17284489175E+02 -0.30183330017E+01  0.18901495847E+02  0.51100000000E-03 0.  1.
        -11    1    3    3    0    0  0.73668755375E+01  0.10131937730E+02 -0.57797549157E+01  0.13796107585E+02  0.51100000000E-03 0. -1.
         12    1    3    3    0    0 -0.53990686084E+01  0.11540845040E+02 -0.80843655400E+01  0.15089665744E+02  0.00000000000E+00 0. -1.
</event>
<event>
 7    1  0.7596051E-010  0.4778727E+02  0.7816164E-02  0.1312668E+00
        -11   -1    0    0    0    0  0.00000000000E+00  0.00000000000E+00  0.45593999997E+02  0.45594000000E+02  0.51100000000E-03 0.  1.
         11   -1    0    0    0    0 -0.00000000000E+00 -0.00000000000E+00 -0.45593999997E+02  0.45594000000E+02  0.51100000000E-03 0. -1.
    9900012    2    1    2    0    0  0.26948394796E+02 -0.13766719154E+02  0.31110844551E+02  0.47787272045E+02  0.20000004563E+02 0.  0.
        -12    1    1    2    0    0 -0.26948394796E+02  0.13766719154E+02 -0.31110844551E+02  0.43400727955E+02  0.00000000000E+00 0.  1.
         11    1    3    3    0    0  0.11881230813E+02 -0.53243337070E+01  0.92254630533E+01  0.15956858835E+02  0.51100000000E-03 0. -1.
        -11    1    3    3    0    0  0.11514153786E+02 -0.16594105667E+01  0.21149749287E+02  0.24137963377E+02  0.51100000000E-03 0.  1.
        -12    1    3    3    0    0  0.35530101969E+01 -0.67829748801E+01  0.73563221029E+00  0.76924498330E+01  0.00000000000E+00 0.  1.
</event>
<event>
 7    1  0.7596051E-010  0.4778727E+02  0.7816164E-02  0.1312668E+00
        -11   -1    0    0    0    0  0.00000000000E+00  0.00000000000E+00  0.45593999997E+02  0.45594000000E+02  0.51100000000E-03 0.  1.
         11   -1    0    0    0    0 -0.00000000000E+00 -0.00000000000E+00 -0.45593999997E+02  0.45594000000E+02  0.51100000000E-03 0. -1.
    9900012    2    1    2    0    0 -0.39344482410E+02 -0.15481628322E+02  0.97956300297E+01  0.47787268678E+02  0.19999989209E+02 0.  0.
         12    1    1    2    0    0  0.39344482410E+02  0.15481628322E+02 -0.97956300297E+01  0.43400731322E+02  0.00000000000E+00 0. -1.
         11    1    3    3    0    0 -0.44131604444E+01 -0.48026283060E+01  0.49497711417E+01  0.81878848533E+01  0.51100000000E-03 0. -1.
        -11    1    3    3    0    0 -0.13950666646E+02 -0.88395297764E+00  0.81953148110E+01  0.16203877864E+02  0.51100000000E-03 0.  1.
         12    1    3    3    0    0 -0.20980655320E+02 -0.97950470386E+01 -0.33494559230E+01  0.23395505960E+02  0.00000000000E+00 0. -1.
</event>
<event>
 7    1  0.7596051E-010  0.4778727E+02  0.7816164E-02  0.1312668E+00
        -11   -1    0    0    0    0  0.00000000000E+00  0.00000000000E+00  0.45593999997E+02  0.45594000000E+02  0.51100000000E-03 0. -1.
         11   -1    0    0    0    0 -0.00000000000E+00 -0.00000000000E+00 -0.45593999997E+02  0.45594000000E+02  0.51100000000E-03 0.  1.
    9900012    2    1    2    0    0  0.25343719975E+02 -0.69438887107E+00 -0.35225522629E+02  0.47787265415E+02  0.19999974332E+02 0.  0.
         12    1    1    2    0    0 -0.25343719975E+02  0.69438887107E+00  0.35225522629E+02  0.43400734585E+02  0.00000000000E+00 0. -1.
         11    1    3    3    0    0  0.56450637467E+01  0.91427527714E+00 -0.15957710997E+02  0.16951436060E+02  0.51100000000E-03 0. -1.
        -11    1    3    3    0    0  0.17380288532E+02 -0.54056853005E+01 -0.19100007216E+02  0.26383823433E+02  0.51100000000E-03 0.  1.
         12    1    3    3    0    0  0.23183676964E+01  0.37970211523E+01 -0.16780441617E+00  0.44520059219E+01  0.00000000000E+00 0. -1.
</event>
<event>
 7    1  0.7596051E-010  0.4778728E+02  0.7816164E-02  0.1312668E+00
        -11   -1    0    0    0    0  0.00000000000E+00  0.00000000000E+00  0.45593999997E+02  0.45594000000E+02  0.51100000000E-03 0. -1.
         11   -1    0    0    0    0 -0.00000000000E+00 -0.00000000000E+00 -0.45593999997E+02  0.45594000000E+02  0.51100000000E-03 0.  1.
    9900012    2    1    2    0    0  0.18306185162E+02  0.38926802578E+01  0.39158058320E+02  0.47787275281E+02  0.20000019315E+02 0.  0.
        -12    1    1    2    0    0 -0.18306185162E+02 -0.38926802578E+01 -0.39158058320E+02  0.43400724719E+02  0.00000000000E+00 0.  1.
         11    1    3    3    0    0  0.17150338319E+02 -0.79388049355E+00  0.21223820336E+02  0.27298624518E+02  0.51100000000E-03 0. -1.
        -11    1    3    3    0    0 -0.10721298748E+00 -0.23065354270E+01  0.20518278967E+01  0.30889477625E+01  0.51100000000E-03 0.  1.
        -12    1    3    3    0    0  0.12630598308E+01  0.69930961784E+01  0.15882410087E+02  0.17399703000E+02  0.00000000000E+00 0.  1.
</event>
<event>
 7    1  0.7596051E-010  0.4778727E+02  0.7816164E-02  0.1312668E+00
        -11   -1    0    0    0    0  0.00000000000E+00  0.00000000000E+00  0.45593999997E+02  0.45594000000E+02  0.51100000000E-03 0. -1.
         11   -1    0    0    0    0 -0.00000000000E+00 -0.00000000000E+00 -0.45593999997E+02  0.45594000000E+02  0.51100000000E-03 0.  1.
    9900012    2    1    2    0    0  0.19081338871E+02 -0.26799503868E+02 -0.28307461348E+02  0.47787271105E+02  0.20000000275E+02 0.  0.
         12    1    1    2    0    0 -0.19081338871E+02  0.26799503868E+02  0.28307461348E+02  0.43400728895E+02  0.00000000000E+00 0. -1.
         11    1    3    3    0    0 -0.16287600990E+01 -0.76108057398E+00  0.61663789405E+00  0.19006171770E+01  0.51100000000E-03 0. -1.
        -11    1    3    3    0    0  0.35330051021E+01 -0.12489793990E+02 -0.15508529487E+02  0.20223539900E+02  0.51100000000E-03 0.  1.
         12    1    3    3    0    0  0.17177093868E+02 -0.13548629304E+02 -0.13415569755E+02  0.25663114028E+02  0.00000000000E+00 0. -1.
</event>
<event>
 7    1  0.7596051E-010  0.4778724E+02  0.7816164E-02  0.1312668E+00
        -11   -1    0    0    0    0  0.00000000000E+00  0.00000000000E+00  0.45593999997E+02  0.45594000000E+02  0.51100000000E-03 0. -1.
         11   -1    0    0    0    0 -0.00000000000E+00 -0.00000000000E+00 -0.45593999997E+02  0.45594000000E+02  0.51100000000E-03 0.  1.
    9900012    2    1    2    0    0 -0.11653969744E+02 -0.25222047115E+02 -0.33341549257E+02  0.47787244496E+02  0.19999878953E+02 0.  0.
         12    1    1    2    0    0  0.11653969744E+02  0.25222047115E+02  0.33341549257E+02  0.43400755504E+02  0.00000000000E+00 0. -1.
         11    1    3    3    0    0  0.10996984231E+01 -0.29892667918E+01  0.93393185519E+00  0.33192290589E+01  0.51100000000E-03 0. -1.
        -11    1    3    3    0    0 -0.62064774403E+01 -0.16952587341E+01 -0.11005794887E+02  0.12748403263E+02  0.51100000000E-03 0.  1.
        -12    1    3    3    0    0 -0.65471907271E+01 -0.20537521589E+02 -0.23269686225E+02  0.31719612174E+02  0.00000000000E+00 0.  1.
</event>
<event>
 7    1  0.7596051E-010  0.4778727E+02  0.7816164E-02  0.1312668E+00
        -11   -1    0    0    0    0  0.00000000000E+00  0.00000000000E+00  0.45593999997E+02  0.45594000000E+02  0.51100000000E-03 0. -1.
         11   -1    0    0    0    0 -0.00000000000E+00 -0.00000000000E+00 -0.45593999997E+02  0.45594000000E+02  0.51100000000E-03 0.  1.
    9900012    2    1    2    0    0  0.28218323127E+02  0.18628460367E+02  0.27209003500E+02  0.47787272273E+02  0.20000005603E+02 0.  0.
        -12    1    1    2    0    0 -0.28218323127E+02 -0.18628460367E+02 -0.27209003500E+02  0.43400727727E+02  0.00000000000E+00 0.  1.
         11    1    3    3    0    0  0.16837232355E+01  0.17378294103E+01  0.10610423955E+02  0.10882833811E+02  0.51100000000E-03 0.  1.
        -11    1    3    3    0    0  0.14910754069E+01  0.39463020091E+01  0.57587460027E-01  0.42189953772E+01  0.51100000000E-03 0. -1.
         12    1    3    3    0    0  0.25043524484E+02  0.12944328948E+02  0.16540992085E+02  0.32685443085E+02  0.00000000000E+00 0. -1.
</event>
<event>
 7    1  0.7596051E-010  0.4778726E+02  0.7816164E-02  0.1312668E+00
        -11   -1    0    0    0    0  0.00000000000E+00  0.00000000000E+00  0.45593999997E+02  0.45594000000E+02  0.51100000000E-03 0. -1.
         11   -1    0    0    0    0 -0.00000000000E+00 -0.00000000000E+00 -0.45593999997E+02  0.45594000000E+02  0.51100000000E-03 0.  1.
    9900012    2    1    2    0    0  0.20276687972E+02 -0.11417215295E+02  0.36635050857E+02  0.47787264620E+02  0.19999970710E+02 0.  0.
        -12    1    1    2    0    0 -0.20276687972E+02  0.11417215295E+02 -0.36635050857E+02  0.43400735380E+02  0.00000000000E+00 0.  1.
         11    1    3    3    0    0  0.99916076514E+01 -0.23601123731E+01  0.15360659227E+02  0.18475719364E+02  0.51100000000E-03 0. -1.
        -11    1    3    3    0    0  0.99974244248E+01  0.91900821775E+00  0.12414693900E+02  0.15966142181E+02  0.51100000000E-03 0.  1.
        -12    1    3    3    0    0  0.28765589581E+00 -0.99761111398E+01  0.88596977292E+01  0.13345403075E+02  0.00000000000E+00 0.  1.
</event>
<event>
 7    1  0.7596051E-010  0.4778727E+02  0.7816164E-02  0.1312668E+00
        -11   -1    0    0    0    0  0.00000000000E+00  0.00000000000E+00  0.45593999997E+02  0.45594000000E+02  0.51100000000E-03 0. -1.
         11   -1    0    0    0    0 -0.00000000000E+00 -0.00000000000E+00 -0.45593999997E+02  0.45594000000E+02  0.51100000000E-03 0.  1.
    9900012    2    1    2    0    0 -0.12989685121E+02  0.40428869242E+02  0.89664881578E+01  0.47787270771E+02  0.19999998754E+02 0.  0.
        -12    1    1    2    0    0  0.12989685121E+02 -0.40428869242E+02 -0.89664881578E+01  0.43400729229E+02  0.00000000000E+00 0.  1.
         11    1    3    3    0    0  0.50880488990E+01  0.85589877033E+01  0.22885748159E+01  0.10216755212E+02  0.51100000000E-03 0.  1.
        -11    1    3    3    0    0 -0.43742818759E+01  0.11791756741E+02  0.10636470245E+01  0.12621854627E+02  0.51100000000E-03 0. -1.
        -12    1    3    3    0    0 -0.13703452144E+02  0.20078124798E+02  0.56142663174E+01  0.24948660933E+02  0.00000000000E+00 0.  1.
</event>
<event>
 7    1  0.7596051E-010  0.4778724E+02  0.7816164E-02  0.1312668E+00
        -11   -1    0    0    0    0  0.00000000000E+00  0.00000000000E+00  0.45593999997E+02  0.45594000000E+02  0.51100000000E-03 0. -1.
         11   -1    0    0    0    0 -0.00000000000E+00 -0.00000000000E+00 -0.45593999997E+02  0.45594000000E+02  0.51100000000E-03 0.  1.
    9900012    2    1    2    0    0  0.96389988942E+01 -0.25115072647E+01 -0.42242258078E+02  0.47787235768E+02  0.19999839159E+02 0.  0.
         12    1    1    2    0    0 -0.96389988942E+01  0.25115072647E+01  0.42242258078E+02  0.43400764232E+02  0.00000000000E+00 0. -1.
         11    1    3    3    0    0  0.74295842331E+01 -0.14743413344E+01 -0.23933673653E+02  0.25103647923E+02  0.51100000000E-03 0. -1.
        -11    1    3    3    0    0  0.39698695436E+01 -0.33624306933E+01 -0.18988981952E+02  0.19688759235E+02  0.51100000000E-03 0.  1.
         12    1    3    3    0    0 -0.17604548825E+01  0.23252647630E+01  0.68039752697E+00  0.29948286104E+01  0.00000000000E+00 0. -1.
</event>
<event>
 7    1  0.7596051E-010  0.4778727E+02  0.7816164E-02  0.1312668E+00
        -11   -1    0    0    0    0  0.00000000000E+00  0.00000000000E+00  0.45593999997E+02  0.45594000000E+02  0.51100000000E-03 0. -1.
         11   -1    0    0    0    0 -0.00000000000E+00 -0.00000000000E+00 -0.45593999997E+02  0.45594000000E+02  0.51100000000E-03 0.  1.
    9900012    2    1    2    0    0  0.10288434056E+02 -0.40242754371E+02  0.12581426215E+02  0.47787269127E+02  0.19999991260E+02 0.  0.
        -12    1    1    2    0    0 -0.10288434056E+02  0.40242754371E+02 -0.12581426215E+02  0.43400730873E+02  0.00000000000E+00 0.  1.
         11    1    3    3    0    0  0.36996970354E+01 -0.25712000174E+01  0.36017641118E+01  0.57681481137E+01  0.51100000000E-03 0. -1.
        -11    1    3    3    0    0  0.57556894884E+01 -0.30598470124E+02  0.13113924279E+02  0.33784158206E+02  0.51100000000E-03 0.  1.
        -12    1    3    3    0    0  0.83304753256E+00 -0.70730842290E+01 -0.41342621762E+01  0.82349628077E+01  0.00000000000E+00 0.  1.
</event>
<event>
 7    1  0.7596051E-010  0.4778727E+02  0.7816164E-02  0.1312668E+00
        -11   -1    0    0    0    0  0.00000000000E+00  0.00000000000E+00  0.45593999997E+02  0.45594000000E+02  0.51100000000E-03 0. -1.
         11   -1    0    0    0    0 -0.00000000000E+00 -0.00000000000E+00 -0.45593999997E+02  0.45594000000E+02  0.51100000000E-03 0.  1.
    9900012    2    1    2    0    0  0.27655198651E+02  0.36906555936E+01 -0.33244433672E+02  0.47787270498E+02  0.19999997509E+02 0.  0.
         12    1    1    2    0    0 -0.27655198651E+02 -0.36906555936E+01  0.33244433672E+02  0.43400729502E+02  0.00000000000E+00 0. -1.
         11    1    3    3    0    0  0.14893037596E+02 -0.55135748034E+01 -0.12518557853E+02  0.20221680616E+02  0.51100000000E-03 0. -1.
        -11    1    3    3    0    0 -0.21458659520E+00  0.11675132152E+01  0.60788194000E+00  0.13336623368E+01  0.51100000000E-03 0.  1.
        -12    1    3    3    0    0  0.12976747650E+02  0.80367171818E+01 -0.21333757759E+02  0.26231927546E+02  0.00000000000E+00 0.  1.
</event>
<event>
 7    1  0.7596051E-010  0.4778727E+02  0.7816164E-02  0.1312668E+00
        -11   -1    0    0    0    0  0.00000000000E+00  0.00000000000E+00  0.45593999997E+02  0.45594000000E+02  0.51100000000E-03 0. -1.
         11   -1    0    0    0    0 -0.00000000000E+00 -0.00000000000E+00 -0.45593999997E+02  0.45594000000E+02  0.51100000000E-03 0.  1.
    9900012    2    1    2    0    0  0.56637617905E+00 -0.21962444886E+02  0.37429312155E+02  0.47787272175E+02  0.20000005154E+02 0.  0.
        -12    1    1    2    0    0 -0.56637617905E+00  0.21962444886E+02 -0.37429312155E+02  0.43400727825E+02  0.00000000000E+00 0.  1.
         11    1    3    3    0    0  0.26967158758E+01 -0.51727838953E+01  0.12969962103E+02  0.14221458679E+02  0.51100000000E-03 0. -1.
        -11    1    3    3    0    0 -0.66957779920E+01 -0.15694123491E+02  0.23021883657E+02  0.28655646607E+02  0.51100000000E-03 0.  1.
        -12    1    3    3    0    0  0.45654382952E+01 -0.10955374992E+01  0.14374663950E+01  0.49101668889E+01  0.00000000000E+00 0.  1.
</event>
<event>
 7    1  0.7596051E-010  0.4778727E+02  0.7816164E-02  0.1312668E+00
        -11   -1    0    0    0    0  0.00000000000E+00  0.00000000000E+00  0.45593999997E+02  0.45594000000E+02  0.51100000000E-03 0. -1.
         11   -1    0    0    0    0 -0.00000000000E+00 -0.00000000000E+00 -0.45593999997E+02  0.45594000000E+02  0.51100000000E-03 0.  1.
    9900012    2    1    2    0    0 -0.19762015067E+02 -0.22342699146E+02 -0.31526024482E+02  0.47787266547E+02  0.19999979496E+02 0.  0.
         12    1    1    2    0    0  0.19762015067E+02  0.22342699146E+02  0.31526024482E+02  0.43400733453E+02  0.00000000000E+00 0. -1.
         11    1    3    3    0    0  0.22802035680E+01 -0.35611532385E+01 -0.24288424364E+01  0.48765168452E+01  0.51100000000E-03 0. -1.
        -11    1    3    3    0    0 -0.68873539558E+01 -0.13940445473E+02 -0.15913066241E+02  0.22248535726E+02  0.51100000000E-03 0.  1.
        -12    1    3    3    0    0 -0.15154864679E+02 -0.48411004341E+01 -0.13184115804E+02  0.20662213976E+02  0.00000000000E+00 0.  1.
</event>
<event>
 7    1  0.7596051E-010  0.4778727E+02  0.7816164E-02  0.1312668E+00
        -11   -1    0    0    0    0  0.00000000000E+00  0.00000000000E+00  0.45593999997E+02  0.45594000000E+02  0.51100000000E-03 0. -1.
         11   -1    0    0    0    0 -0.00000000000E+00 -0.00000000000E+00 -0.45593999997E+02  0.45594000000E+02  0.51100000000E-03 0.  1.
    9900012    2    1    2    0    0 -0.20810352527E+02 -0.22167949007E+00 -0.38085478362E+02  0.47787267562E+02  0.19999984120E+02 0.  0.
         12    1    1    2    0    0  0.20810352527E+02  0.22167949007E+00  0.38085478362E+02  0.43400732438E+02  0.00000000000E+00 0. -1.
         11    1    3    3    0    0  0.25987723894E+01  0.15981689646E+01 -0.73739205882E+01  0.79801295149E+01  0.51100000000E-03 0. -1.
        -11    1    3    3    0    0 -0.47340868986E+01 -0.10231391636E+01 -0.13707403860E+02  0.14537926722E+02  0.51100000000E-03 0.  1.
        -12    1    3    3    0    0 -0.18675038018E+02 -0.79670929113E+00 -0.17004153914E+02  0.25269211325E+02  0.00000000000E+00 0.  1.
</event>
<event>
 7    1  0.7596051E-010  0.4778727E+02  0.7816164E-02  0.1312668E+00
        -11   -1    0    0    0    0  0.00000000000E+00  0.00000000000E+00  0.45593999997E+02  0.45594000000E+02  0.51100000000E-03 0. -1.
         11   -1    0    0    0    0 -0.00000000000E+00 -0.00000000000E+00 -0.45593999997E+02  0.45594000000E+02  0.51100000000E-03 0.  1.
    9900012    2    1    2    0    0 -0.34508996783E+02 -0.20945428096E+02 -0.15938678994E+02  0.47787270684E+02  0.19999998355E+02 0.  0.
         12    1    1    2    0    0  0.34508996783E+02  0.20945428096E+02  0.15938678994E+02  0.43400729316E+02  0.00000000000E+00 0. -1.
         11    1    3    3    0    0 -0.36487286662E+01  0.64342895359E+00 -0.33685804157E+01  0.50074500473E+01  0.51100000000E-03 0. -1.
        -11    1    3    3    0    0 -0.14998693133E+02 -0.31328890296E+01 -0.10027539674E+02  0.18311945324E+02  0.51100000000E-03 0.  1.
        -12    1    3    3    0    0 -0.15861574984E+02 -0.18455968020E+02 -0.25425589042E+01  0.24467875313E+02  0.00000000000E+00 0.  1.
</event>
<event>
 7    1  0.7596051E-010  0.4778727E+02  0.7816164E-02  0.1312668E+00
        -11   -1    0    0    0    0  0.00000000000E+00  0.00000000000E+00  0.45593999997E+02  0.45594000000E+02  0.51100000000E-03 0. -1.
         11   -1    0    0    0    0 -0.00000000000E+00 -0.00000000000E+00 -0.45593999997E+02  0.45594000000E+02  0.51100000000E-03 0.  1.
    9900012    2    1    2    0    0 -0.28357463203E+02 -0.18894111037E+01  0.32801031645E+02  0.47787271082E+02  0.20000000173E+02 0.  0.
        -12    1    1    2    0    0  0.28357463203E+02  0.18894111037E+01 -0.32801031645E+02  0.43400728918E+02  0.00000000000E+00 0.  1.
         11    1    3    3    0    0 -0.18278165852E+02 -0.81093954431E+01  0.22383701324E+02  0.30014725163E+02  0.51100000000E-03 0. -1.
        -11    1    3    3    0    0 -0.69477210584E+01  0.43957546858E+00  0.23103517744E+01  0.73349696714E+01  0.51100000000E-03 0.  1.
        -12    1    3    3    0    0 -0.31315762924E+01  0.57804088708E+01  0.81069785462E+01  0.10437576248E+02  0.00000000000E+00 0.  1.
</event>
<event>
 7    1  0.7596051E-010  0.4778727E+02  0.7816164E-02  0.1312668E+00
        -11   -1    0    0    0    0  0.00000000000E+00  0.00000000000E+00  0.45593999997E+02  0.45594000000E+02  0.51100000000E-03 0.  1.
         11   -1    0    0    0    0 -0.00000000000E+00 -0.00000000000E+00 -0.45593999997E+02  0.45594000000E+02  0.51100000000E-03 0. -1.
    9900012    2    1    2    0    0  0.69027315311E+01 -0.40999815867E+02 -0.12449515017E+02  0.47787273879E+02  0.20000012922E+02 0.  0.
         12    1    1    2    0    0 -0.69027315311E+01  0.40999815867E+02  0.12449515017E+02  0.43400726121E+02  0.00000000000E+00 0. -1.
         11    1    3    3    0    0 -0.17904823922E+00 -0.12581579986E+02 -0.79892602452E+01  0.14904915053E+02  0.51100000000E-03 0.  1.
        -11    1    3    3    0    0 -0.91494889824E+00 -0.14623251848E+00  0.25186716132E+01  0.26836956594E+01  0.51100000000E-03 0. -1.
         12    1    3    3    0    0  0.79967286685E+01 -0.28272003363E+02 -0.69789263855E+01  0.30198663166E+02  0.00000000000E+00 0. -1.
</event>
<event>
 7    1  0.7596051E-010  0.4778727E+02  0.7816164E-02  0.1312668E+00
        -11   -1    0    0    0    0  0.00000000000E+00  0.00000000000E+00  0.45593999997E+02  0.45594000000E+02  0.51100000000E-03 0. -1.
         11   -1    0    0    0    0 -0.00000000000E+00 -0.00000000000E+00 -0.45593999997E+02  0.45594000000E+02  0.51100000000E-03 0.  1.
    9900012    2    1    2    0    0 -0.13944360163E+02 -0.33937477138E+02 -0.23182441649E+02  0.47787272637E+02  0.20000007260E+02 0.  0.
         12    1    1    2    0    0  0.13944360163E+02  0.33937477138E+02  0.23182441649E+02  0.43400727363E+02  0.00000000000E+00 0. -1.
         11    1    3    3    0    0 -0.34626208286E+01  0.11326708969E+01 -0.17348936766E+01  0.40351632797E+01  0.51100000000E-03 0. -1.
        -11    1    3    3    0    0  0.19408587907E+01 -0.73926438529E+01 -0.27896763280E+01  0.81363634541E+01  0.51100000000E-03 0.  1.
        -12    1    3    3    0    0 -0.12422598125E+02 -0.27677504182E+02 -0.18657871645E+02  0.35615745903E+02  0.00000000000E+00 0.  1.
</event>
<event>
 7    1  0.7596051E-010  0.4778727E+02  0.7816164E-02  0.1312668E+00
        -11   -1    0    0    0    0  0.00000000000E+00  0.00000000000E+00  0.45593999997E+02  0.45594000000E+02  0.51100000000E-03 0. -1.
         11   -1    0    0    0    0 -0.00000000000E+00 -0.00000000000E+00 -0.45593999997E+02  0.45594000000E+02  0.51100000000E-03 0.  1.
    9900012    2    1    2    0    0  0.24987197857E+02  0.82685017388E+01 -0.34509347877E+02  0.47787271105E+02  0.20000000276E+02 0.  0.
         12    1    1    2    0    0 -0.24987197857E+02 -0.82685017388E+01  0.34509347877E+02  0.43400728895E+02  0.00000000000E+00 0. -1.
         11    1    3    3    0    0  0.35092041392E+01 -0.92816330668E+00 -0.10160315667E+02  0.10789254633E+02  0.51100000000E-03 0. -1.
        -11    1    3    3    0    0  0.17773688869E+02 -0.22389743274E-01 -0.17404858709E+02  0.24876366782E+02  0.51100000000E-03 0.  1.
         12    1    3    3    0    0  0.37043048483E+01  0.92190547888E+01 -0.69441735006E+01  0.12121649690E+02  0.00000000000E+00 0. -1.
</event>
<event>
 7    1  0.7596051E-010  0.4778727E+02  0.7816164E-02  0.1312668E+00
        -11   -1    0    0    0    0  0.00000000000E+00  0.00000000000E+00  0.45593999997E+02  0.45594000000E+02  0.51100000000E-03 0. -1.
         11   -1    0    0    0    0 -0.00000000000E+00 -0.00000000000E+00 -0.45593999997E+02  0.45594000000E+02  0.51100000000E-03 0.  1.
    9900012    2    1    2    0    0 -0.36597976112E+02  0.15323966431E+02  0.17589415184E+02  0.47787270407E+02  0.19999997093E+02 0.  0.
        -12    1    1    2    0    0  0.36597976112E+02 -0.15323966431E+02 -0.17589415184E+02  0.43400729593E+02  0.00000000000E+00 0.  1.
         11    1    3    3    0    0 -0.25513020166E+02  0.10551152350E+02  0.15860586198E+02  0.31840213704E+02  0.51100000000E-03 0. -1.
        -11    1    3    3    0    0 -0.97986038967E+01  0.76415022442E+01  0.25777875323E+01  0.12690554901E+02  0.51100000000E-03 0.  1.
        -12    1    3    3    0    0 -0.12863520495E+01 -0.28686881634E+01 -0.84895854584E+00  0.32565018020E+01  0.00000000000E+00 0.  1.
</event>
<event>
 7    1  0.7596051E-010  0.4778727E+02  0.7816164E-02  0.1312668E+00
        -11   -1    0    0    0    0  0.00000000000E+00  0.00000000000E+00  0.45593999997E+02  0.45594000000E+02  0.51100000000E-03 0.  1.
         11   -1    0    0    0    0 -0.00000000000E+00 -0.00000000000E+00 -0.45593999997E+02  0.45594000000E+02  0.51100000000E-03 0. -1.
    9900012    2    1    2    0    0 -0.36989372022E+02  0.10623922810E+02  0.20063443657E+02  0.47787272473E+02  0.20000006515E+02 0.  0.
        -12    1    1    2    0    0  0.36989372022E+02 -0.10623922810E+02 -0.20063443657E+02  0.43400727527E+02  0.00000000000E+00 0.  1.
         11    1    3    3    0    0 -0.94611010392E+01 -0.71058530410E+00  0.10829017710E+02  0.14397395222E+02  0.51100000000E-03 0. -1.
        -11    1    3    3    0    0 -0.23259377438E+02  0.76829629775E+01  0.11829008970E+02  0.27202058973E+02  0.51100000000E-03 0.  1.
         12    1    3    3    0    0 -0.42688935450E+01  0.36515451368E+01 -0.25945830229E+01  0.61878182784E+01  0.00000000000E+00 0. -1.
</event>
<event>
 7    1  0.7596051E-010  0.4778727E+02  0.7816164E-02  0.1312668E+00
        -11   -1    0    0    0    0  0.00000000000E+00  0.00000000000E+00  0.45593999997E+02  0.45594000000E+02  0.51100000000E-03 0. -1.
         11   -1    0    0    0    0 -0.00000000000E+00 -0.00000000000E+00 -0.45593999997E+02  0.45594000000E+02  0.51100000000E-03 0.  1.
    9900012    2    1    2    0    0 -0.10256078519E+01 -0.19510559324E+02 -0.38754475424E+02  0.47787272333E+02  0.20000005876E+02 0.  0.
         12    1    1    2    0    0  0.10256078519E+01  0.19510559324E+02  0.38754475424E+02  0.43400727667E+02  0.00000000000E+00 0. -1.
         11    1    3    3    0    0  0.58795374897E+01 -0.38393822978E+01 -0.28917878936E+01  0.75942251089E+01  0.51100000000E-03 0. -1.
        -11    1    3    3    0    0 -0.10919534053E+01 -0.83671796579E+01 -0.13004912410E+02  0.15502574132E+02  0.51100000000E-03 0.  1.
         12    1    3    3    0    0 -0.58131919364E+01 -0.73039973687E+01 -0.22857775121E+02  0.24690473093E+02  0.00000000000E+00 0. -1.
</event>
<event>
 7    1  0.7596051E-010  0.4778728E+02  0.7816164E-02  0.1312668E+00
        -11   -1    0    0    0    0  0.00000000000E+00  0.00000000000E+00  0.45593999997E+02  0.45594000000E+02  0.51100000000E-03 0. -1.
         11   -1    0    0    0    0 -0.00000000000E+00 -0.00000000000E+00 -0.45593999997E+02  0.45594000000E+02  0.51100000000E-03 0.  1.
    9900012    2    1    2    0    0 -0.17835652007E+02  0.10264926398E+02  0.38211821892E+02  0.47787279628E+02  0.20000039138E+02 0.  0.
        -12    1    1    2    0    0  0.17835652007E+02 -0.10264926398E+02 -0.38211821892E+02  0.43400720372E+02  0.00000000000E+00 0.  1.
         11    1    3    3    0    0 -0.15482735744E+02  0.12033458772E+02  0.21224753409E+02  0.28896529094E+02  0.51100000000E-03 0. -1.
        -11    1    3    3    0    0 -0.64778864922E+00  0.28236969710E+01  0.95956769023E+01  0.10023467972E+02  0.51100000000E-03 0.  1.
        -12    1    3    3    0    0 -0.17051276136E+01 -0.45922293454E+01  0.73913915808E+01  0.88672825624E+01  0.00000000000E+00 0.  1.
</event>
<event>
 7    1  0.7596051E-010  0.4778727E+02  0.7816164E-02  0.1312668E+00
        -11   -1    0    0    0    0  0.00000000000E+00  0.00000000000E+00  0.45593999997E+02  0.45594000000E+02  0.51100000000E-03 0. -1.
         11   -1    0    0    0    0 -0.00000000000E+00 -0.00000000000E+00 -0.45593999997E+02  0.45594000000E+02  0.51100000000E-03 0.  1.
    9900012    2    1    2    0    0 -0.77945193088E+00  0.16938714920E+02  0.39951166869E+02  0.47787270252E+02  0.19999996389E+02 0.  0.
        -12    1    1    2    0    0  0.77945193088E+00 -0.16938714920E+02 -0.39951166869E+02  0.43400729748E+02  0.00000000000E+00 0.  1.
         11    1    3    3    0    0  0.44229566848E+00  0.66957272755E+01  0.17020056310E+02  0.18295100609E+02  0.51100000000E-03 0. -1.
        -11    1    3    3    0    0  0.57563383644E+01  0.48282709833E+01  0.37976076925E+01  0.84183998777E+01  0.51100000000E-03 0.  1.
        -12    1    3    3    0    0 -0.69780859637E+01  0.54147166608E+01  0.19133502866E+02  0.21073769766E+02  0.00000000000E+00 0.  1.
</event>
<event>
 7    1  0.7596051E-010  0.4778727E+02  0.7816164E-02  0.1312668E+00
        -11   -1    0    0    0    0  0.00000000000E+00  0.00000000000E+00  0.45593999997E+02  0.45594000000E+02  0.51100000000E-03 0. -1.
         11   -1    0    0    0    0 -0.00000000000E+00 -0.00000000000E+00 -0.45593999997E+02  0.45594000000E+02  0.51100000000E-03 0.  1.
    9900012    2    1    2    0    0 -0.52914766699E+01 -0.28255237773E+02  0.32515613340E+02  0.47787270768E+02  0.19999998740E+02 0.  0.
        -12    1    1    2    0    0  0.52914766699E+01  0.28255237773E+02 -0.32515613340E+02  0.43400729232E+02  0.00000000000E+00 0.  1.
         11    1    3    3    0    0  0.17890966612E+01 -0.12663917187E+02  0.10990025034E+02  0.16862867961E+02  0.51100000000E-03 0.  1.
        -11    1    3    3    0    0 -0.66458332121E+01 -0.17999182878E+02  0.16384372132E+02  0.25230642754E+02  0.51100000000E-03 0. -1.
        -12    1    3    3    0    0 -0.43474011899E+00  0.24078622914E+01  0.51412161745E+01  0.56937600528E+01  0.00000000000E+00 0.  1.
</event>
<event>
 7    1  0.7596051E-010  0.4778727E+02  0.7816164E-02  0.1312668E+00
        -11   -1    0    0    0    0  0.00000000000E+00  0.00000000000E+00  0.45593999997E+02  0.45594000000E+02  0.51100000000E-03 0. -1.
         11   -1    0    0    0    0 -0.00000000000E+00 -0.00000000000E+00 -0.45593999997E+02  0.45594000000E+02  0.51100000000E-03 0.  1.
    9900012    2    1    2    0    0 -0.25991510953E+02  0.31705406423E+02 -0.14241910063E+02  0.47787269127E+02  0.19999991259E+02 0.  0.
         12    1    1    2    0    0  0.25991510953E+02 -0.31705406423E+02  0.14241910063E+02  0.43400730873E+02  0.00000000000E+00 0. -1.
         11    1    3    3    0    0 -0.16948644642E+02  0.13589390553E+02 -0.69822973964E+01  0.22818426063E+02  0.51100000000E-03 0. -1.
        -11    1    3    3    0    0 -0.10539415447E+02  0.17287075146E+02 -0.31146581466E+01  0.20484709925E+02  0.51100000000E-03 0.  1.
         12    1    3    3    0    0  0.14965491359E+01  0.82894072337E+00 -0.41449545201E+01  0.44841331395E+01  0.00000000000E+00 0. -1.
</event>
<event>
 7    1  0.7596051E-010  0.4778727E+02  0.7816164E-02  0.1312668E+00
        -11   -1    0    0    0    0  0.00000000000E+00  0.00000000000E+00  0.45593999997E+02  0.45594000000E+02  0.51100000000E-03 0. -1.
         11   -1    0    0    0    0 -0.00000000000E+00 -0.00000000000E+00 -0.45593999997E+02  0.45594000000E+02  0.51100000000E-03 0.  1.
    9900012    2    1    2    0    0 -0.12082685749E+02  0.13233494203E+02 -0.39528556509E+02  0.47787269091E+02  0.19999991095E+02 0.  0.
         12    1    1    2    0    0  0.12082685749E+02 -0.13233494203E+02  0.39528556509E+02  0.43400730909E+02  0.00000000000E+00 0. -1.
         11    1    3    3    0    0 -0.18006859187E+01  0.81148798952E+01 -0.81717277243E+01  0.11656366490E+02  0.51100000000E-03 0. -1.
        -11    1    3    3    0    0 -0.49716213197E+01  0.64631130911E+01 -0.58323723866E+01  0.10025239014E+02  0.51100000000E-03 0.  1.
         12    1    3    3    0    0 -0.53103785102E+01 -0.13444987834E+01 -0.25524456398E+02  0.26105663587E+02  0.00000000000E+00 0. -1.
</event>
<event>
 7    1  0.7596051E-010  0.4778727E+02  0.7816164E-02  0.1312668E+00
        -11   -1    0    0    0    0  0.00000000000E+00  0.00000000000E+00  0.45593999997E+02  0.45594000000E+02  0.51100000000E-03 0. -1.
         11   -1    0    0    0    0 -0.00000000000E+00 -0.00000000000E+00 -0.45593999997E+02  0.45594000000E+02  0.51100000000E-03 0.  1.
    9900012    2    1    2    0    0  0.12292987220E+02  0.52296396388E+00  0.41620094728E+02  0.47787270613E+02  0.19999998034E+02 0.  0.
        -12    1    1    2    0    0 -0.12292987220E+02 -0.52296396388E+00 -0.41620094728E+02  0.43400729387E+02  0.00000000000E+00 0.  1.
         11    1    3    3    0    0 -0.44094176767E+01  0.20965087923E+00  0.15968727661E+02  0.16567654665E+02  0.51100000000E-03 0. -1.
        -11    1    3    3    0    0  0.26570109416E+01 -0.16856772154E+01  0.78456773449E+01  0.84531572847E+01  0.51100000000E-03 0.  1.
        -12    1    3    3    0    0  0.14045393955E+02  0.19989903001E+01  0.17805689723E+02  0.22766458663E+02  0.00000000000E+00 0.  1.
</event>
<event>
 7    1  0.7596051E-010  0.4778725E+02  0.7816164E-02  0.1312668E+00
        -11   -1    0    0    0    0  0.00000000000E+00  0.00000000000E+00  0.45593999997E+02  0.45594000000E+02  0.51100000000E-03 0. -1.
         11   -1    0    0    0    0 -0.00000000000E+00 -0.00000000000E+00 -0.45593999997E+02  0.45594000000E+02  0.51100000000E-03 0.  1.
    9900012    2    1    2    0    0  0.10093148889E+02 -0.89778160298E+01  0.41245028704E+02  0.47787248533E+02  0.19999897360E+02 0.  0.
        -12    1    1    2    0    0 -0.10093148889E+02  0.89778160298E+01 -0.41245028704E+02  0.43400751467E+02  0.00000000000E+00 0.  1.
         11    1    3    3    0    0  0.71970773535E+01 -0.21564002966E+01  0.25705185906E+02  0.26780675260E+02  0.51100000000E-03 0. -1.
        -11    1    3    3    0    0 -0.18961877237E+01  0.27827753656E+01  0.43507206192E+01  0.55016485517E+01  0.51100000000E-03 0.  1.
        -12    1    3    3    0    0  0.47922592592E+01 -0.96041910988E+01  0.11189122178E+02  0.15504924721E+02  0.00000000000E+00 0.  1.
</event>
<event>
 7    1  0.7596051E-010  0.4778727E+02  0.7816164E-02  0.1312668E+00
        -11   -1    0    0    0    0  0.00000000000E+00  0.00000000000E+00  0.45593999997E+02  0.45594000000E+02  0.51100000000E-03 0. -1.
         11   -1    0    0    0    0 -0.00000000000E+00 -0.00000000000E+00 -0.45593999997E+02  0.45594000000E+02  0.51100000000E-03 0.  1.
    9900012    2    1    2    0    0  0.82761309626E+01  0.32693757221E+01  0.42478700204E+02  0.47787272675E+02  0.20000007435E+02 0.  0.
        -12    1    1    2    0    0 -0.82761309626E+01 -0.32693757221E+01 -0.42478700204E+02  0.43400727325E+02  0.00000000000E+00 0.  1.
         11    1    3    3    0    0  0.48495906884E+01  0.11454527264E+01  0.10445049341E+02  0.11572797752E+02  0.51100000000E-03 0.  1.
        -11    1    3    3    0    0  0.91786558011E+01  0.21162742707E+01  0.26911294771E+02  0.28512175042E+02  0.51100000000E-03 0. -1.
        -12    1    3    3    0    0 -0.57521155269E+01  0.76487249754E-02  0.51223560911E+01  0.77022998813E+01  0.00000000000E+00 0.  1.
</event>
<event>
 7    1  0.7596051E-010  0.4778727E+02  0.7816164E-02  0.1312668E+00
        -11   -1    0    0    0    0  0.00000000000E+00  0.00000000000E+00  0.45593999997E+02  0.45594000000E+02  0.51100000000E-03 0. -1.
         11   -1    0    0    0    0 -0.00000000000E+00 -0.00000000000E+00 -0.45593999997E+02  0.45594000000E+02  0.51100000000E-03 0.  1.
    9900012    2    1    2    0    0 -0.18307304321E+02 -0.23161145955E+01  0.39282331528E+02  0.47787270183E+02  0.19999996073E+02 0.  0.
        -12    1    1    2    0    0  0.18307304321E+02  0.23161145955E+01 -0.39282331528E+02  0.43400729817E+02  0.00000000000E+00 0.  1.
         11    1    3    3    0    0 -0.51176495766E+01  0.91538140140E+00  0.18872141145E+02  0.19575136575E+02  0.51100000000E-03 0. -1.
        -11    1    3    3    0    0 -0.87601641059E+01  0.49891952038E+01  0.11675439938E+02  0.15425577524E+02  0.51100000000E-03 0.  1.
         12    1    3    3    0    0 -0.44294906387E+01 -0.82206912007E+01  0.87347504453E+01  0.12786556083E+02  0.00000000000E+00 0. -1.
</event>
<event>
 7    1  0.7596051E-010  0.4778727E+02  0.7816164E-02  0.1312668E+00
        -11   -1    0    0    0    0  0.00000000000E+00  0.00000000000E+00  0.45593999997E+02  0.45594000000E+02  0.51100000000E-03 0. -1.
         11   -1    0    0    0    0 -0.00000000000E+00 -0.00000000000E+00 -0.45593999997E+02  0.45594000000E+02  0.51100000000E-03 0.  1.
    9900012    2    1    2    0    0 -0.32184279978E+01  0.37273960009E+02 -0.21998114262E+02  0.47787269538E+02  0.19999993134E+02 0.  0.
         12    1    1    2    0    0  0.32184279978E+01 -0.37273960009E+02  0.21998114262E+02  0.43400730462E+02  0.00000000000E+00 0. -1.
         11    1    3    3    0    0 -0.61494153938E+00 -0.13963502474E+00  0.10373129381E+01  0.12139478694E+01  0.51100000000E-03 0. -1.
        -11    1    3    3    0    0 -0.58035274537E+01  0.17859988730E+02 -0.18257760489E+02  0.26191715230E+02  0.51100000000E-03 0.  1.
        -12    1    3    3    0    0  0.32000409953E+01  0.19553606303E+02 -0.47776667110E+01  0.20381606439E+02  0.00000000000E+00 0.  1.
</event>
<event>
 7    1  0.7596051E-010  0.4778727E+02  0.7816164E-02  0.1312668E+00
        -11   -1    0    0    0    0  0.00000000000E+00  0.00000000000E+00  0.45593999997E+02  0.45594000000E+02  0.51100000000E-03 0. -1.
         11   -1    0    0    0    0 -0.00000000000E+00 -0.00000000000E+00 -0.45593999997E+02  0.45594000000E+02  0.51100000000E-03 0.  1.
    9900012    2    1    2    0    0 -0.22604327752E+02  0.16737215683E+02  0.33053495877E+02  0.47787267153E+02  0.19999982258E+02 0.  0.
        -12    1    1    2    0    0  0.22604327752E+02 -0.16737215683E+02 -0.33053495877E+02  0.43400732847E+02  0.00000000000E+00 0.  1.
         11    1    3    3    0    0 -0.12280968209E+02  0.35041104079E+00  0.13866886245E+02  0.18526616055E+02  0.51100000000E-03 0. -1.
        -11    1    3    3    0    0 -0.99312517907E+01  0.58562030367E+01  0.10716631977E+02  0.15740745768E+02  0.51100000000E-03 0.  1.
        -12    1    3    3    0    0 -0.39210775251E+00  0.10530601606E+02  0.84699776544E+01  0.13519905330E+02  0.00000000000E+00 0.  1.
</event>
<event>
 7    1  0.7596051E-010  0.4778727E+02  0.7816164E-02  0.1312668E+00
        -11   -1    0    0    0    0  0.00000000000E+00  0.00000000000E+00  0.45593999997E+02  0.45594000000E+02  0.51100000000E-03 0. -1.
         11   -1    0    0    0    0 -0.00000000000E+00 -0.00000000000E+00 -0.45593999997E+02  0.45594000000E+02  0.51100000000E-03 0.  1.
    9900012    2    1    2    0    0  0.36627945861E+01 -0.75719363244E+01 -0.42577844031E+02  0.47787273206E+02  0.20000009856E+02 0.  0.
         12    1    1    2    0    0 -0.36627945861E+01  0.75719363244E+01  0.42577844031E+02  0.43400726794E+02  0.00000000000E+00 0. -1.
         11    1    3    3    0    0  0.16730840866E+01 -0.28801828117E+01 -0.37898915721E+01  0.50455863662E+01  0.51100000000E-03 0. -1.
        -11    1    3    3    0    0  0.22575786298E+01  0.58640700780E+01 -0.22249852095E+02  0.23120118894E+02  0.51100000000E-03 0.  1.
        -12    1    3    3    0    0 -0.26786813025E+00 -0.10555823591E+02 -0.16538100364E+02  0.19621567946E+02  0.00000000000E+00 0.  1.
</event>
<event>
 7    1  0.7596051E-010  0.4778725E+02  0.7816164E-02  0.1312668E+00
        -11   -1    0    0    0    0  0.00000000000E+00  0.00000000000E+00  0.45593999997E+02  0.45594000000E+02  0.51100000000E-03 0. -1.
         11   -1    0    0    0    0 -0.00000000000E+00 -0.00000000000E+00 -0.45593999997E+02  0.45594000000E+02  0.51100000000E-03 0.  1.
    9900012    2    1    2    0    0 -0.17816181647E+02  0.27099433464E+01 -0.39482465675E+02  0.47787248657E+02  0.19999897925E+02 0.  0.
         12    1    1    2    0    0  0.17816181647E+02 -0.27099433464E+01  0.39482465675E+02  0.43400751343E+02  0.00000000000E+00 0. -1.
         11    1    3    3    0    0 -0.16465444464E+02 -0.35718331070E+00 -0.22733839404E+02  0.28072511387E+02  0.51100000000E-03 0. -1.
        -11    1    3    3    0    0 -0.12198110839E+01 -0.75018292493E+00  0.87750858609E+00  0.16795044153E+01  0.51100000000E-03 0.  1.
        -12    1    3    3    0    0 -0.13092609904E+00  0.38173095820E+01 -0.17626134857E+02  0.18035232854E+02  0.00000000000E+00 0.  1.
</event>
<event>
 7    1  0.7596051E-010  0.4778727E+02  0.7816164E-02  0.1312668E+00
        -11   -1    0    0    0    0  0.00000000000E+00  0.00000000000E+00  0.45593999997E+02  0.45594000000E+02  0.51100000000E-03 0. -1.
         11   -1    0    0    0    0 -0.00000000000E+00 -0.00000000000E+00 -0.45593999997E+02  0.45594000000E+02  0.51100000000E-03 0.  1.
    9900012    2    1    2    0    0 -0.22431610836E+02  0.35088592103E+02 -0.12216249255E+02  0.47787271822E+02  0.20000003547E+02 0.  0.
         12    1    1    2    0    0  0.22431610836E+02 -0.35088592103E+02  0.12216249255E+02  0.43400728178E+02  0.00000000000E+00 0. -1.
         11    1    3    3    0    0  0.19062126736E+01  0.82345034992E+00  0.34693929980E+00  0.21052516179E+01  0.51100000000E-03 0. -1.
        -11    1    3    3    0    0 -0.56234113528E+01  0.14716455200E+02  0.21197934315E+00  0.15755689271E+02  0.51100000000E-03 0.  1.
         12    1    3    3    0    0 -0.18714412157E+02  0.19548686554E+02 -0.12775167898E+02  0.29926330934E+02  0.00000000000E+00 0. -1.
</event>
<event>
 7    1  0.7596051E-010  0.4778732E+02  0.7816164E-02  0.1312668E+00
        -11   -1    0    0    0    0  0.00000000000E+00  0.00000000000E+00  0.45593999997E+02  0.45594000000E+02  0.51100000000E-03 0. -1.
         11   -1    0    0    0    0 -0.00000000000E+00 -0.00000000000E+00 -0.45593999997E+02  0.45594000000E+02  0.51100000000E-03 0.  1.
    9900012    2    1    2    0    0 -0.70228376145E+01 -0.48072425229E+01  0.42558072034E+02  0.47787316548E+02  0.20000207467E+02 0.  0.
        -12    1    1    2    0    0  0.70228376145E+01  0.48072425229E+01 -0.42558072034E+02  0.43400683452E+02  0.00000000000E+00 0.  1.
         11    1    3    3    0    0 -0.38047142868E+01 -0.49306786668E+01  0.86155262041E+01  0.10630838864E+02  0.51100000000E-03 0. -1.
        -11    1    3    3    0    0 -0.90964494267E+01 -0.91802100217E+00  0.20117963814E+02  0.22097977804E+02  0.51100000000E-03 0.  1.
         12    1    3    3    0    0  0.58783260990E+01  0.10414571461E+01  0.13824582016E+02  0.15058499880E+02  0.00000000000E+00 0. -1.
</event>
<event>
 7    1  0.7596051E-010  0.4778727E+02  0.7816164E-02  0.1312668E+00
        -11   -1    0    0    0    0  0.00000000000E+00  0.00000000000E+00  0.45593999997E+02  0.45594000000E+02  0.51100000000E-03 0. -1.
         11   -1    0    0    0    0 -0.00000000000E+00 -0.00000000000E+00 -0.45593999997E+02  0.45594000000E+02  0.51100000000E-03 0.  1.
    9900012    2    1    2    0    0  0.13844145069E+02 -0.97214255512E+00 -0.41121992467E+02  0.47787266385E+02  0.19999978756E+02 0.  0.
         12    1    1    2    0    0 -0.13844145069E+02  0.97214255512E+00  0.41121992467E+02  0.43400733615E+02  0.00000000000E+00 0. -1.
         11    1    3    3    0    0 -0.14283555973E+01  0.87982858482E-01  0.54814755246E-02  0.14310733746E+01  0.51100000000E-03 0. -1.
        -11    1    3    3    0    0  0.11136357748E+02 -0.53565618525E+01 -0.14418932758E+02  0.18989914190E+02  0.51100000000E-03 0.  1.
        -12    1    3    3    0    0  0.41361429182E+01  0.42964364389E+01 -0.26708541184E+02  0.27366278821E+02  0.00000000000E+00 0.  1.
</event>
<event>
 7    1  0.7596051E-010  0.4778727E+02  0.7816164E-02  0.1312668E+00
        -11   -1    0    0    0    0  0.00000000000E+00  0.00000000000E+00  0.45593999997E+02  0.45594000000E+02  0.51100000000E-03 0. -1.
         11   -1    0    0    0    0 -0.00000000000E+00 -0.00000000000E+00 -0.45593999997E+02  0.45594000000E+02  0.51100000000E-03 0.  1.
    9900012    2    1    2    0    0  0.75326465233E+01  0.30660376412E+02  0.29779587982E+02  0.47787270677E+02  0.19999998327E+02 0.  0.
        -12    1    1    2    0    0 -0.75326465233E+01 -0.30660376412E+02 -0.29779587982E+02  0.43400729323E+02  0.00000000000E+00 0.  1.
         11    1    3    3    0    0  0.10993392698E+00  0.20766222583E+02  0.17031449426E+02  0.26857370602E+02  0.51100000000E-03 0. -1.
        -11    1    3    3    0    0 -0.25178161986E+01  0.31493531774E+01  0.57643155039E+01  0.70345687385E+01  0.51100000000E-03 0.  1.
        -12    1    3    3    0    0  0.99405287949E+01  0.67448006520E+01  0.69838230517E+01  0.13895331337E+02  0.00000000000E+00 0.  1.
</event>
<event>
 7    1  0.7596051E-010  0.4778727E+02  0.7816164E-02  0.1312668E+00
        -11   -1    0    0    0    0  0.00000000000E+00  0.00000000000E+00  0.45593999997E+02  0.45594000000E+02  0.51100000000E-03 0. -1.
         11   -1    0    0    0    0 -0.00000000000E+00 -0.00000000000E+00 -0.45593999997E+02  0.45594000000E+02  0.51100000000E-03 0.  1.
    9900012    2    1    2    0    0 -0.29208853078E+02  0.13258516438E+02 -0.29234874083E+02  0.47787271677E+02  0.20000002885E+02 0.  0.
         12    1    1    2    0    0  0.29208853078E+02 -0.13258516438E+02  0.29234874083E+02  0.43400728323E+02  0.00000000000E+00 0. -1.
         11    1    3    3    0    0  0.10142529921E+01 -0.90146585531E+00  0.99846565045E+00  0.16847206702E+01  0.51100000000E-03 0. -1.
        -11    1    3    3    0    0 -0.58249737315E+01  0.64980341787E+01 -0.44810414046E+01  0.98099184243E+01  0.51100000000E-03 0.  1.
        -12    1    3    3    0    0 -0.24398132339E+02  0.76619481145E+01 -0.25752298329E+02  0.36292632583E+02  0.00000000000E+00 0.  1.
</event>
<event>
 7    1  0.7596051E-010  0.4778727E+02  0.7816164E-02  0.1312668E+00
        -11   -1    0    0    0    0  0.00000000000E+00  0.00000000000E+00  0.45593999997E+02  0.45594000000E+02  0.51100000000E-03 0. -1.
         11   -1    0    0    0    0 -0.00000000000E+00 -0.00000000000E+00 -0.45593999997E+02  0.45594000000E+02  0.51100000000E-03 0.  1.
    9900012    2    1    2    0    0  0.85622517300E+01  0.64719596731E+01  0.42052646565E+02  0.47787268441E+02  0.19999988131E+02 0.  0.
        -12    1    1    2    0    0 -0.85622517300E+01 -0.64719596731E+01 -0.42052646565E+02  0.43400731559E+02  0.00000000000E+00 0.  1.
         11    1    3    3    0    0  0.13477546050E+01  0.29655157987E+01  0.23845139541E+02  0.24066603550E+02  0.51100000000E-03 0. -1.
        -11    1    3    3    0    0  0.23356616524E+01  0.73939238919E+01  0.14555509712E+02  0.16492067460E+02  0.51100000000E-03 0.  1.
        -12    1    3    3    0    0  0.48788354726E+01 -0.38874800176E+01  0.36519973123E+01  0.72285974314E+01  0.00000000000E+00 0.  1.
</event>
<event>
 7    1  0.7596051E-010  0.4778727E+02  0.7816164E-02  0.1312668E+00
        -11   -1    0    0    0    0  0.00000000000E+00  0.00000000000E+00  0.45593999997E+02  0.45594000000E+02  0.51100000000E-03 0. -1.
         11   -1    0    0    0    0 -0.00000000000E+00 -0.00000000000E+00 -0.45593999997E+02  0.45594000000E+02  0.51100000000E-03 0.  1.
    9900012    2    1    2    0    0 -0.17490673802E+01  0.55517308422E+01  0.43008630841E+02  0.47787270987E+02  0.19999999737E+02 0.  0.
        -12    1    1    2    0    0  0.17490673802E+01 -0.55517308422E+01 -0.43008630841E+02  0.43400729013E+02  0.00000000000E+00 0.  1.
         11    1    3    3    0    0  0.84481349578E+00 -0.40093272632E+00  0.40028888466E+01  0.41106661593E+01  0.51100000000E-03 0. -1.
        -11    1    3    3    0    0 -0.61424340903E+01 -0.17459994460E+01  0.32139002021E+02  0.32767262043E+02  0.51100000000E-03 0.  1.
        -12    1    3    3    0    0  0.35485532143E+01  0.76986630145E+01  0.68667399733E+01  0.10909342784E+02  0.00000000000E+00 0.  1.
</event>
<event>
 7    1  0.9593111E-010  0.4778727E+02  0.7816164E-02  0.1312668E+00
        -11   -1    0    0    0    0  0.00000000000E+00  0.00000000000E+00  0.45593999997E+02  0.45594000000E+02  0.51100000000E-03 0. -1.
         11   -1    0    0    0    0 -0.00000000000E+00 -0.00000000000E+00 -0.45593999997E+02  0.45594000000E+02  0.51100000000E-03 0.  1.
    9900012    2    1    2    0    0 -0.56521039735E+01 -0.32584431475E+02  0.28105728801E+02  0.47787269069E+02  0.19999990993E+02 0.  0.
        -12    1    1    2    0    0  0.56521039735E+01  0.32584431475E+02 -0.28105728801E+02  0.43400730931E+02  0.00000000000E+00 0.  1.
         11    1    3    3    0    0  0.14845632013E+01 -0.10018473321E+01 -0.17655214255E+01  0.25148940614E+01  0.51100000000E-03 0. -1.
        -11    1    3    3    0    0 -0.40111762937E+01 -0.12654017805E+02  0.57874049602E+01  0.14481289939E+02  0.51100000000E-03 0.  1.
         12    1    3    3    0    0 -0.31254908810E+01 -0.18928566338E+02  0.24083845266E+02  0.30791085068E+02  0.00000000000E+00 0. -1.
</event>
<event>
 7    1  0.7596051E-010  0.4778727E+02  0.7816164E-02  0.1312668E+00
        -11   -1    0    0    0    0  0.00000000000E+00  0.00000000000E+00  0.45593999997E+02  0.45594000000E+02  0.51100000000E-03 0. -1.
         11   -1    0    0    0    0 -0.00000000000E+00 -0.00000000000E+00 -0.45593999997E+02  0.45594000000E+02  0.51100000000E-03 0.  1.
    9900012    2    1    2    0    0 -0.63141195531E+01  0.23774713384E+02  0.35756373324E+02  0.47787270334E+02  0.19999996763E+02 0.  0.
        -12    1    1    2    0    0  0.63141195531E+01 -0.23774713384E+02 -0.35756373324E+02  0.43400729666E+02  0.00000000000E+00 0.  1.
         11    1    3    3    0    0  0.53867854980E+00  0.47460014939E+01  0.82309046975E+01  0.95164330062E+01  0.51100000000E-03 0. -1.
        -11    1    3    3    0    0 -0.99753263969E+01  0.18295989252E+02  0.15902213624E+02  0.26213179087E+02  0.51100000000E-03 0.  1.
         12    1    3    3    0    0  0.31225282940E+01  0.73272263780E+00  0.11623255003E+02  0.12057658242E+02  0.00000000000E+00 0. -1.
</event>
<event>
 7    1  0.7596051E-010  0.4778728E+02  0.7816164E-02  0.1312668E+00
        -11   -1    0    0    0    0  0.00000000000E+00  0.00000000000E+00  0.45593999997E+02  0.45594000000E+02  0.51100000000E-03 0. -1.
         11   -1    0    0    0    0 -0.00000000000E+00 -0.00000000000E+00 -0.45593999997E+02  0.45594000000E+02  0.51100000000E-03 0.  1.
    9900012    2    1    2    0    0  0.93620172131E+01  0.25931890896E+02 -0.33518836839E+02  0.47787277025E+02  0.20000027268E+02 0.  0.
         12    1    1    2    0    0 -0.93620172131E+01 -0.25931890896E+02  0.33518836839E+02  0.43400722975E+02  0.00000000000E+00 0. -1.
         11    1    3    3    0    0 -0.26416372902E+01  0.38575379437E+01 -0.68497766387E+01  0.82932675600E+01  0.51100000000E-03 0. -1.
        -11    1    3    3    0    0 -0.32590181984E+01  0.37165182665E+01 -0.25681689009E+01  0.55703859299E+01  0.51100000000E-03 0.  1.
        -12    1    3    3    0    0  0.15262672702E+02  0.18357834686E+02 -0.24100891299E+02  0.33923623535E+02  0.00000000000E+00 0.  1.
</event>
<event>
 7    1  0.1521414E-009  0.4778726E+02  0.7816164E-02  0.1312668E+00
        -11   -1    0    0    0    0  0.00000000000E+00  0.00000000000E+00  0.45593999997E+02  0.45594000000E+02  0.51100000000E-03 0. -1.
         11   -1    0    0    0    0 -0.00000000000E+00 -0.00000000000E+00 -0.45593999997E+02  0.45594000000E+02  0.51100000000E-03 0.  1.
    9900012    2    1    2    0    0 -0.19708946552E+02 -0.23977606066E+02  0.30335717331E+02  0.47787263683E+02  0.19999966437E+02 0.  0.
        -12    1    1    2    0    0  0.19708946552E+02  0.23977606066E+02 -0.30335717331E+02  0.43400736317E+02  0.00000000000E+00 0.  1.
         11    1    3    3    0    0 -0.18211009440E+00 -0.69077661880E+01  0.44361441110E+01  0.82115633487E+01  0.51100000000E-03 0. -1.
        -11    1    3    3    0    0 -0.64556454889E+01 -0.21493833152E+01 -0.18378957075E+00  0.68065399566E+01  0.51100000000E-03 0.  1.
         12    1    3    3    0    0 -0.13071190969E+02 -0.14920456563E+02  0.26083362791E+02  0.32769160378E+02  0.00000000000E+00 0. -1.
</event>
<event>
 7    1  0.7596051E-010  0.4778727E+02  0.7816164E-02  0.1312668E+00
        -11   -1    0    0    0    0  0.00000000000E+00  0.00000000000E+00  0.45593999997E+02  0.45594000000E+02  0.51100000000E-03 0. -1.
         11   -1    0    0    0    0 -0.00000000000E+00 -0.00000000000E+00 -0.45593999997E+02  0.45594000000E+02  0.51100000000E-03 0.  1.
    9900012    2    1    2    0    0  0.10813683751E+02  0.11081137661E+02 -0.40544985475E+02  0.47787271719E+02  0.20000003075E+02 0.  0.
         12    1    1    2    0    0 -0.10813683751E+02 -0.11081137661E+02  0.40544985475E+02  0.43400728281E+02  0.00000000000E+00 0. -1.
         11    1    3    3    0    0  0.10041668728E+02  0.32075838928E+01 -0.29487833983E+02  0.31315428442E+02  0.51100000000E-03 0.  1.
        -11    1    3    3    0    0  0.11796431898E+01 -0.14454723885E+01 -0.50331743455E+01  0.53678480543E+01  0.51100000000E-03 0. -1.
        -12    1    3    3    0    0 -0.40762816611E+00  0.93190261565E+01 -0.60239771471E+01  0.11103995222E+02  0.00000000000E+00 0.  1.
</event>
<event>
 7    1  0.7596051E-010  0.4778727E+02  0.7816164E-02  0.1312668E+00
        -11   -1    0    0    0    0  0.00000000000E+00  0.00000000000E+00  0.45593999997E+02  0.45594000000E+02  0.51100000000E-03 0. -1.
         11   -1    0    0    0    0 -0.00000000000E+00 -0.00000000000E+00 -0.45593999997E+02  0.45594000000E+02  0.51100000000E-03 0.  1.
    9900012    2    1    2    0    0 -0.16654453495E+02  0.14850749656E+01 -0.40050555077E+02  0.47787271540E+02  0.20000002260E+02 0.  0.
         12    1    1    2    0    0  0.16654453495E+02 -0.14850749656E+01  0.40050555077E+02  0.43400728460E+02  0.00000000000E+00 0. -1.
         11    1    3    3    0    0 -0.52783733260E+01 -0.78175501435E+01 -0.15928930060E+02  0.18512323688E+02  0.51100000000E-03 0. -1.
        -11    1    3    3    0    0 -0.73780861647E+01  0.20843663197E+01 -0.15768017319E+02  0.17533143153E+02  0.51100000000E-03 0.  1.
         12    1    3    3    0    0 -0.39979940044E+01  0.72182587895E+01 -0.83536076982E+01  0.11741804699E+02  0.00000000000E+00 0. -1.
</event>
<event>
 7    1  0.7596051E-010  0.4778727E+02  0.7816164E-02  0.1312668E+00
        -11   -1    0    0    0    0  0.00000000000E+00  0.00000000000E+00  0.45593999997E+02  0.45594000000E+02  0.51100000000E-03 0. -1.
         11   -1    0    0    0    0 -0.00000000000E+00 -0.00000000000E+00 -0.45593999997E+02  0.45594000000E+02  0.51100000000E-03 0.  1.
    9900012    2    1    2    0    0 -0.22452118533E+02 -0.89594333569E+01  0.36045173121E+02  0.47787267541E+02  0.19999984025E+02 0.  0.
        -12    1    1    2    0    0  0.22452118533E+02  0.89594333569E+01 -0.36045173121E+02  0.43400732459E+02  0.00000000000E+00 0.  1.
         11    1    3    3    0    0  0.39334706149E+00  0.31657092731E+01  0.55682352489E+01  0.64172954709E+01  0.51100000000E-03 0. -1.
        -11    1    3    3    0    0 -0.87396881694E+01  0.65421527775E+00  0.75153252116E+01  0.11545140113E+02  0.51100000000E-03 0.  1.
         12    1    3    3    0    0 -0.14105777425E+02 -0.12779357908E+02  0.22961612660E+02  0.29824831957E+02  0.00000000000E+00 0. -1.
</event>
<event>
 7    1  0.7596051E-010  0.4778728E+02  0.7816164E-02  0.1312668E+00
        -11   -1    0    0    0    0  0.00000000000E+00  0.00000000000E+00  0.45593999997E+02  0.45594000000E+02  0.51100000000E-03 0. -1.
         11   -1    0    0    0    0 -0.00000000000E+00 -0.00000000000E+00 -0.45593999997E+02  0.45594000000E+02  0.51100000000E-03 0.  1.
    9900012    2    1    2    0    0 -0.19035400892E+02  0.75293121386E+01 -0.38269904241E+02  0.47787278819E+02  0.20000035447E+02 0.  0.
         12    1    1    2    0    0  0.19035400892E+02 -0.75293121386E+01  0.38269904241E+02  0.43400721181E+02  0.00000000000E+00 0. -1.
         11    1    3    3    0    0  0.38201655427E+01  0.36444119796E+00 -0.23773407114E+01  0.45142254352E+01  0.51100000000E-03 0.  1.
        -11    1    3    3    0    0 -0.59954257938E+01  0.95939708282E+00 -0.11147706506E+02  0.12693972342E+02  0.51100000000E-03 0. -1.
        -12    1    3    3    0    0 -0.16860140641E+02  0.62054738578E+01 -0.24744857024E+02  0.30579081042E+02  0.00000000000E+00 0.  1.
</event>
<event>
 7    1  0.7596051E-010  0.4778727E+02  0.7816164E-02  0.1312668E+00
        -11   -1    0    0    0    0  0.00000000000E+00  0.00000000000E+00  0.45593999997E+02  0.45594000000E+02  0.51100000000E-03 0. -1.
         11   -1    0    0    0    0 -0.00000000000E+00 -0.00000000000E+00 -0.45593999997E+02  0.45594000000E+02  0.51100000000E-03 0.  1.
    9900012    2    1    2    0    0 -0.38369885476E+02  0.17362193620E+02 -0.10484722686E+02  0.47787270876E+02  0.19999999232E+02 0.  0.
         12    1    1    2    0    0  0.38369885476E+02 -0.17362193620E+02  0.10484722686E+02  0.43400729124E+02  0.00000000000E+00 0. -1.
         11    1    3    3    0    0 -0.15296434403E+02  0.77847489022E+01  0.83544336972E+00  0.17183747752E+02  0.51100000000E-03 0. -1.
        -11    1    3    3    0    0 -0.16537650773E+02  0.56721809529E+01 -0.64990564823E+00  0.17495425330E+02  0.51100000000E-03 0.  1.
        -12    1    3    3    0    0 -0.65358002989E+01  0.39052637649E+01 -0.10670260407E+02  0.13108097794E+02  0.00000000000E+00 0.  1.
</event>
<event>
 7    1  0.7596051E-010  0.4778727E+02  0.7816164E-02  0.1312668E+00
        -11   -1    0    0    0    0  0.00000000000E+00  0.00000000000E+00  0.45593999997E+02  0.45594000000E+02  0.51100000000E-03 0. -1.
         11   -1    0    0    0    0 -0.00000000000E+00 -0.00000000000E+00 -0.45593999997E+02  0.45594000000E+02  0.51100000000E-03 0.  1.
    9900012    2    1    2    0    0  0.62885019849E+00 -0.34822143879E+02  0.25896835205E+02  0.47787271543E+02  0.20000002275E+02 0.  0.
        -12    1    1    2    0    0 -0.62885019849E+00  0.34822143879E+02 -0.25896835205E+02  0.43400728457E+02  0.00000000000E+00 0.  1.
         11    1    3    3    0    0  0.14133654428E+01 -0.21305306600E+02  0.19807082415E+02  0.29124460600E+02  0.51100000000E-03 0. -1.
        -11    1    3    3    0    0 -0.35851187902E+01 -0.42096459401E+01  0.69776573907E+01  0.89029151745E+01  0.51100000000E-03 0.  1.
         12    1    3    3    0    0  0.28006035459E+01 -0.93071913389E+01 -0.88790459997E+00  0.97598957688E+01  0.00000000000E+00 0. -1.
</event>
<event>
 7    1  0.7596051E-010  0.4778727E+02  0.7816164E-02  0.1312668E+00
        -11   -1    0    0    0    0  0.00000000000E+00  0.00000000000E+00  0.45593999997E+02  0.45594000000E+02  0.51100000000E-03 0. -1.
         11   -1    0    0    0    0 -0.00000000000E+00 -0.00000000000E+00 -0.45593999997E+02  0.45594000000E+02  0.51100000000E-03 0.  1.
    9900012    2    1    2    0    0 -0.27337410811E+02 -0.19983198520E+02 -0.27147022082E+02  0.47787273498E+02  0.20000011187E+02 0.  0.
         12    1    1    2    0    0  0.27337410811E+02  0.19983198520E+02  0.27147022082E+02  0.43400726502E+02  0.00000000000E+00 0. -1.
         11    1    3    3    0    0 -0.95790885700E+01 -0.70522175686E+00 -0.67803065465E+01  0.11757075856E+02  0.51100000000E-03 0. -1.
        -11    1    3    3    0    0 -0.14599931353E+02 -0.82449132420E+01 -0.63849180899E+01  0.17941676877E+02  0.51100000000E-03 0.  1.
        -12    1    3    3    0    0 -0.31583908889E+01 -0.11033063521E+02 -0.13981797446E+02  0.18088520765E+02  0.00000000000E+00 0.  1.
</event>
<event>
 7    1  0.7596051E-010  0.4778728E+02  0.7816164E-02  0.1312668E+00
        -11   -1    0    0    0    0  0.00000000000E+00  0.00000000000E+00  0.45593999997E+02  0.45594000000E+02  0.51100000000E-03 0. -1.
         11   -1    0    0    0    0 -0.00000000000E+00 -0.00000000000E+00 -0.45593999997E+02  0.45594000000E+02  0.51100000000E-03 0.  1.
    9900012    2    1    2    0    0 -0.21008826886E+02  0.31022778418E+02  0.21905233813E+02  0.47787275855E+02  0.20000021933E+02 0.  0.
        -12    1    1    2    0    0  0.21008826886E+02 -0.31022778418E+02 -0.21905233813E+02  0.43400724145E+02  0.00000000000E+00 0.  1.
         11    1    3    3    0    0 -0.39131476702E+01  0.57012102894E+01 -0.32668473931E+00  0.69226618170E+01  0.51100000000E-03 0. -1.
        -11    1    3    3    0    0 -0.19970649415E+01  0.15455774689E+02  0.63348459758E+01  0.16822589379E+02  0.51100000000E-03 0.  1.
         12    1    3    3    0    0 -0.15098614274E+02  0.98657934398E+01  0.15897072576E+02  0.24042024659E+02  0.00000000000E+00 0. -1.
</event>
<event>
 7    1  0.7596051E-010  0.4778727E+02  0.7816164E-02  0.1312668E+00
        -11   -1    0    0    0    0  0.00000000000E+00  0.00000000000E+00  0.45593999997E+02  0.45594000000E+02  0.51100000000E-03 0. -1.
         11   -1    0    0    0    0 -0.00000000000E+00 -0.00000000000E+00 -0.45593999997E+02  0.45594000000E+02  0.51100000000E-03 0.  1.
    9900012    2    1    2    0    0 -0.24943699752E+01  0.48394997491E+01  0.43057871691E+02  0.47787274730E+02  0.20000016803E+02 0.  0.
        -12    1    1    2    0    0  0.24943699752E+01 -0.48394997491E+01 -0.43057871691E+02  0.43400725270E+02  0.00000000000E+00 0.  1.
         11    1    3    3    0    0 -0.33642254871E+01  0.33039563019E+00  0.10048178147E+01  0.35265895002E+01  0.51100000000E-03 0. -1.
        -11    1    3    3    0    0 -0.56954253410E+01  0.37052127058E+01  0.16037270001E+02  0.17417247210E+02  0.51100000000E-03 0.  1.
        -12    1    3    3    0    0  0.65652808530E+01  0.80389141307E+00  0.26015783875E+02  0.26843438020E+02  0.00000000000E+00 0.  1.
</event>
<event>
 7    1  0.7596051E-010  0.4778727E+02  0.7816164E-02  0.1312668E+00
        -11   -1    0    0    0    0  0.00000000000E+00  0.00000000000E+00  0.45593999997E+02  0.45594000000E+02  0.51100000000E-03 0. -1.
         11   -1    0    0    0    0 -0.00000000000E+00 -0.00000000000E+00 -0.45593999997E+02  0.45594000000E+02  0.51100000000E-03 0.  1.
    9900012    2    1    2    0    0 -0.33434976265E+02  0.24300284936E+02 -0.13237130656E+02  0.47787272888E+02  0.20000008406E+02 0.  0.
         12    1    1    2    0    0  0.33434976265E+02 -0.24300284936E+02  0.13237130656E+02  0.43400727112E+02  0.00000000000E+00 0. -1.
         11    1    3    3    0    0 -0.27132497232E+01  0.25305382518E+01 -0.49759961331E+01  0.62069224002E+01  0.51100000000E-03 0. -1.
        -11    1    3    3    0    0 -0.26084791950E+02  0.23563614754E+02 -0.95849243331E+01  0.36435300000E+02  0.51100000000E-03 0.  1.
         12    1    3    3    0    0 -0.46369345915E+01 -0.17938680698E+01  0.13237898099E+01  0.51450504875E+01  0.00000000000E+00 0. -1.
</event>
<event>
 7    1  0.7596051E-010  0.4778728E+02  0.7816164E-02  0.1312668E+00
        -11   -1    0    0    0    0  0.00000000000E+00  0.00000000000E+00  0.45593999997E+02  0.45594000000E+02  0.51100000000E-03 0. -1.
         11   -1    0    0    0    0 -0.00000000000E+00 -0.00000000000E+00 -0.45593999997E+02  0.45594000000E+02  0.51100000000E-03 0.  1.
    9900012    2    1    2    0    0 -0.24522252788E+02 -0.38444470584E+01  0.35601997193E+02  0.47787275823E+02  0.20000021785E+02 0.  0.
        -12    1    1    2    0    0  0.24522252788E+02  0.38444470584E+01 -0.35601997193E+02  0.43400724177E+02  0.00000000000E+00 0.  1.
         11    1    3    3    0    0 -0.47817660254E+01  0.17330461600E+01  0.22673967027E+01  0.55686464587E+01  0.51100000000E-03 0. -1.
        -11    1    3    3    0    0 -0.70868417207E+01  0.15155446964E+01  0.17399676060E+01  0.74530321905E+01  0.51100000000E-03 0.  1.
         12    1    3    3    0    0 -0.12653645042E+02 -0.70930379148E+01  0.31594632885E+02  0.34765597173E+02  0.00000000000E+00 0. -1.
</event>
<event>
 7    1  0.7596051E-010  0.4778727E+02  0.7816164E-02  0.1312668E+00
        -11   -1    0    0    0    0  0.00000000000E+00  0.00000000000E+00  0.45593999997E+02  0.45594000000E+02  0.51100000000E-03 0. -1.
         11   -1    0    0    0    0 -0.00000000000E+00 -0.00000000000E+00 -0.45593999997E+02  0.45594000000E+02  0.51100000000E-03 0.  1.
    9900012    2    1    2    0    0  0.13764401826E+02  0.33168979833E+01  0.41026371905E+02  0.47787265426E+02  0.19999974383E+02 0.  0.
        -12    1    1    2    0    0 -0.13764401826E+02 -0.33168979833E+01 -0.41026371905E+02  0.43400734574E+02  0.00000000000E+00 0.  1.
         11    1    3    3    0    0  0.85183655749E+01  0.53343357694E+01  0.20157744394E+02  0.22524483335E+02  0.51100000000E-03 0. -1.
        -11    1    3    3    0    0  0.60289369956E+01  0.69966964834E-01  0.21338166770E+01  0.63957916278E+01  0.51100000000E-03 0.  1.
         12    1    3    3    0    0 -0.78290074422E+00 -0.20874047509E+01  0.18734810834E+02  0.18866990463E+02  0.00000000000E+00 0. -1.
</event>
<event>
 7    1  0.7596051E-010  0.4778727E+02  0.7816164E-02  0.1312668E+00
        -11   -1    0    0    0    0  0.00000000000E+00  0.00000000000E+00  0.45593999997E+02  0.45594000000E+02  0.51100000000E-03 0. -1.
         11   -1    0    0    0    0 -0.00000000000E+00 -0.00000000000E+00 -0.45593999997E+02  0.45594000000E+02  0.51100000000E-03 0.  1.
    9900012    2    1    2    0    0 -0.17952873590E+02 -0.35353284726E+02 -0.17648315453E+02  0.47787269022E+02  0.19999990780E+02 0.  0.
         12    1    1    2    0    0  0.17952873590E+02  0.35353284726E+02  0.17648315453E+02  0.43400730978E+02  0.00000000000E+00 0. -1.
         11    1    3    3    0    0 -0.98867431318E+01 -0.23354563033E+02 -0.37992842845E+01  0.25644061019E+02  0.51100000000E-03 0. -1.
        -11    1    3    3    0    0 -0.68719837935E+01 -0.12132601334E+02 -0.78020461902E+01  0.15977988028E+02  0.51100000000E-03 0.  1.
         12    1    3    3    0    0 -0.11941466642E+01  0.13387964123E+00 -0.60469849785E+01  0.61652199753E+01  0.00000000000E+00 0. -1.
</event>
<event>
 7    1  0.7596051E-010  0.4778727E+02  0.7816164E-02  0.1312668E+00
        -11   -1    0    0    0    0  0.00000000000E+00  0.00000000000E+00  0.45593999997E+02  0.45594000000E+02  0.51100000000E-03 0. -1.
         11   -1    0    0    0    0 -0.00000000000E+00 -0.00000000000E+00 -0.45593999997E+02  0.45594000000E+02  0.51100000000E-03 0.  1.
    9900012    2    1    2    0    0 -0.19902531764E+02  0.29631042145E+01  0.38454297568E+02  0.47787265460E+02  0.19999974537E+02 0.  0.
        -12    1    1    2    0    0  0.19902531764E+02 -0.29631042145E+01 -0.38454297568E+02  0.43400734540E+02  0.00000000000E+00 0.  1.
         11    1    3    3    0    0  0.15626234813E+01 -0.42641106973E+01  0.98455743600E+01  0.10842498186E+02  0.51100000000E-03 0. -1.
        -11    1    3    3    0    0  0.23995594028E+00 -0.31674236339E+00  0.46292912722E+00  0.61008869518E+00  0.51100000000E-03 0.  1.
        -12    1    3    3    0    0 -0.21705111185E+02  0.75439572752E+01  0.28145794081E+02  0.36334678578E+02  0.00000000000E+00 0.  1.
</event>
<event>
 7    1  0.7596051E-010  0.4778727E+02  0.7816164E-02  0.1312668E+00
        -11   -1    0    0    0    0  0.00000000000E+00  0.00000000000E+00  0.45593999997E+02  0.45594000000E+02  0.51100000000E-03 0. -1.
         11   -1    0    0    0    0 -0.00000000000E+00 -0.00000000000E+00 -0.45593999997E+02  0.45594000000E+02  0.51100000000E-03 0.  1.
    9900012    2    1    2    0    0  0.13546757854E+02  0.11875461348E+02  0.39485210947E+02  0.47787272885E+02  0.20000008392E+02 0.  0.
        -12    1    1    2    0    0 -0.13546757854E+02 -0.11875461348E+02 -0.39485210947E+02  0.43400727115E+02  0.00000000000E+00 0.  1.
         11    1    3    3    0    0 -0.20905232800E+01 -0.96856303932E+00  0.90129058706E+01  0.93027347828E+01  0.51100000000E-03 0. -1.
        -11    1    3    3    0    0  0.33573293273E+01 -0.21837546395E+01  0.39987936214E+01  0.56595755340E+01  0.51100000000E-03 0.  1.
        -12    1    3    3    0    0  0.12279951807E+02  0.15027779027E+02  0.26473511455E+02  0.32824962568E+02  0.00000000000E+00 0.  1.
</event>
<event>
 7    1  0.7596051E-010  0.4778727E+02  0.7816164E-02  0.1312668E+00
        -11   -1    0    0    0    0  0.00000000000E+00  0.00000000000E+00  0.45593999997E+02  0.45594000000E+02  0.51100000000E-03 0. -1.
         11   -1    0    0    0    0 -0.00000000000E+00 -0.00000000000E+00 -0.45593999997E+02  0.45594000000E+02  0.51100000000E-03 0.  1.
    9900012    2    1    2    0    0 -0.11767374595E+02 -0.24390539471E+02  0.33915393920E+02  0.47787268840E+02  0.19999989949E+02 0.  0.
        -12    1    1    2    0    0  0.11767374595E+02  0.24390539471E+02 -0.33915393920E+02  0.43400731160E+02  0.00000000000E+00 0.  1.
         11    1    3    3    0    0  0.11578069888E+01 -0.94421926782E+01  0.22875206637E+02  0.24774394010E+02  0.51100000000E-03 0. -1.
        -11    1    3    3    0    0 -0.80054973290E+01 -0.12090613671E+02  0.80577873355E+01  0.16589118826E+02  0.51100000000E-03 0.  1.
         12    1    3    3    0    0 -0.49196842546E+01 -0.28577331216E+01  0.29823999470E+01  0.64237560043E+01  0.00000000000E+00 0. -1.
</event>
<event>
 7    1  0.7596051E-010  0.4778728E+02  0.7816164E-02  0.1312668E+00
        -11   -1    0    0    0    0  0.00000000000E+00  0.00000000000E+00  0.45593999997E+02  0.45594000000E+02  0.51100000000E-03 0. -1.
         11   -1    0    0    0    0 -0.00000000000E+00 -0.00000000000E+00 -0.45593999997E+02  0.45594000000E+02  0.51100000000E-03 0.  1.
    9900012    2    1    2    0    0  0.53251242691E+01 -0.39648321182E+01  0.42889927675E+02  0.47787277216E+02  0.20000028138E+02 0.  0.
        -12    1    1    2    0    0 -0.53251242691E+01  0.39648321182E+01 -0.42889927675E+02  0.43400722784E+02  0.00000000000E+00 0.  1.
         11    1    3    3    0    0 -0.80614218590E+00 -0.21030217994E+00  0.46944006913E+00  0.95627740243E+00  0.51100000000E-03 0. -1.
        -11    1    3    3    0    0  0.76242869521E+01 -0.69141442421E+01  0.10441073348E+02  0.14661212605E+02  0.51100000000E-03 0.  1.
         12    1    3    3    0    0 -0.14930204971E+01  0.31596143038E+01  0.31979414258E+02  0.32169787208E+02  0.00000000000E+00 0. -1.
</event>
<event>
 7    1  0.7596051E-010  0.4778729E+02  0.7816164E-02  0.1312668E+00
        -11   -1    0    0    0    0  0.00000000000E+00  0.00000000000E+00  0.45593999997E+02  0.45594000000E+02  0.51100000000E-03 0. -1.
         11   -1    0    0    0    0 -0.00000000000E+00 -0.00000000000E+00 -0.45593999997E+02  0.45594000000E+02  0.51100000000E-03 0.  1.
    9900012    2    1    2    0    0  0.36433678369E+01 -0.41448320457E+02 -0.12344417355E+02  0.47787285285E+02  0.20000064930E+02 0.  0.
         12    1    1    2    0    0 -0.36433678369E+01  0.41448320457E+02  0.12344417355E+02  0.43400714715E+02  0.00000000000E+00 0. -1.
         11    1    3    3    0    0 -0.12401582109E+01 -0.43339845936E+01  0.16241540843E+01  0.47915854992E+01  0.51100000000E-03 0. -1.
        -11    1    3    3    0    0  0.78678667349E+01 -0.20076578388E+02 -0.13889736498E+01  0.21607905377E+02  0.51100000000E-03 0.  1.
         12    1    3    3    0    0 -0.29843406870E+01 -0.17037757475E+02 -0.12579597790E+02  0.21387794409E+02  0.00000000000E+00 0. -1.
</event>
<event>
 7    1  0.7596051E-010  0.4778727E+02  0.7816164E-02  0.1312668E+00
        -11   -1    0    0    0    0  0.00000000000E+00  0.00000000000E+00  0.45593999997E+02  0.45594000000E+02  0.51100000000E-03 0. -1.
         11   -1    0    0    0    0 -0.00000000000E+00 -0.00000000000E+00 -0.45593999997E+02  0.45594000000E+02  0.51100000000E-03 0.  1.
    9900012    2    1    2    0    0 -0.20488411658E+02  0.38079662068E+02 -0.37131507229E+01  0.47787272313E+02  0.20000005783E+02 0.  0.
         12    1    1    2    0    0  0.20488411658E+02 -0.38079662068E+02  0.37131507229E+01  0.43400727687E+02  0.00000000000E+00 0. -1.
         11    1    3    3    0    0  0.13422621429E+01  0.15459685161E+02 -0.57883492155E+00  0.15528637515E+02  0.51100000000E-03 0. -1.
        -11    1    3    3    0    0 -0.10730243898E+01  0.92924636987E+00  0.12820884798E+01  0.19127548950E+01  0.51100000000E-03 0.  1.
        -12    1    3    3    0    0 -0.20757649411E+02  0.21690730537E+02 -0.44164042812E+01  0.30345879903E+02  0.00000000000E+00 0.  1.
</event>
<event>
 7    1  0.7596051E-010  0.4778727E+02  0.7816164E-02  0.1312668E+00
        -11   -1    0    0    0    0  0.00000000000E+00  0.00000000000E+00  0.45593999997E+02  0.45594000000E+02  0.51100000000E-03 0. -1.
         11   -1    0    0    0    0 -0.00000000000E+00 -0.00000000000E+00 -0.45593999997E+02  0.45594000000E+02  0.51100000000E-03 0.  1.
    9900012    2    1    2    0    0 -0.47315450845E+01 -0.75223766605E+01  0.42481167019E+02  0.47787271656E+02  0.20000002787E+02 0.  0.
        -12    1    1    2    0    0  0.47315450845E+01  0.75223766605E+01 -0.42481167019E+02  0.43400728344E+02  0.00000000000E+00 0.  1.
         11    1    3    3    0    0  0.11875147049E+01 -0.74894021074E+00  0.27407688420E+01  0.30794344805E+01  0.51100000000E-03 0. -1.
        -11    1    3    3    0    0  0.38531784275E+01  0.87988402083E+00  0.25553819409E+02  0.25857665528E+02  0.51100000000E-03 0.  1.
         12    1    3    3    0    0 -0.97722382169E+01 -0.76533204706E+01  0.14186578768E+02  0.18850171647E+02  0.00000000000E+00 0. -1.
</event>
<event>
 7    1  0.7596051E-010  0.4778726E+02  0.7816164E-02  0.1312668E+00
        -11   -1    0    0    0    0  0.00000000000E+00  0.00000000000E+00  0.45593999997E+02  0.45594000000E+02  0.51100000000E-03 0. -1.
         11   -1    0    0    0    0 -0.00000000000E+00 -0.00000000000E+00 -0.45593999997E+02  0.45594000000E+02  0.51100000000E-03 0.  1.
    9900012    2    1    2    0    0  0.19367268728E+02  0.28508636173E+02 -0.26377854270E+02  0.47787255417E+02  0.19999928747E+02 0.  0.
         12    1    1    2    0    0 -0.19367268728E+02 -0.28508636173E+02  0.26377854270E+02  0.43400744583E+02  0.00000000000E+00 0. -1.
         11    1    3    3    0    0 -0.22693972311E+00  0.60260095355E+01 -0.69919437947E+01  0.92331777222E+01  0.51100000000E-03 0. -1.
        -11    1    3    3    0    0  0.15915948371E+02  0.24375236371E+02 -0.17811495921E+02  0.34127978960E+02  0.51100000000E-03 0.  1.
         12    1    3    3    0    0  0.36782600804E+01 -0.18926097328E+01 -0.15744145546E+01  0.44260987347E+01  0.00000000000E+00 0. -1.
</event>
<event>
 7    1  0.7596051E-010  0.4778727E+02  0.7816164E-02  0.1312668E+00
        -11   -1    0    0    0    0  0.00000000000E+00  0.00000000000E+00  0.45593999997E+02  0.45594000000E+02  0.51100000000E-03 0. -1.
         11   -1    0    0    0    0 -0.00000000000E+00 -0.00000000000E+00 -0.45593999997E+02  0.45594000000E+02  0.51100000000E-03 0.  1.
    9900012    2    1    2    0    0 -0.11714719111E+02  0.22249383411E+02  0.35374478436E+02  0.47787269238E+02  0.19999991766E+02 0.  0.
        -12    1    1    2    0    0  0.11714719111E+02 -0.22249383411E+02 -0.35374478436E+02  0.43400730762E+02  0.00000000000E+00 0.  1.
         11    1    3    3    0    0 -0.19083296515E+01  0.14854595848E+01  0.70139323037E+01  0.74191346436E+01  0.51100000000E-03 0. -1.
        -11    1    3    3    0    0 -0.10631142357E+02  0.53392985101E+01  0.18654677265E+02  0.22125240802E+02  0.51100000000E-03 0.  1.
         12    1    3    3    0    0  0.82475289801E+00  0.15424625316E+02  0.97058688672E+01  0.18242893793E+02  0.00000000000E+00 0. -1.
</event>
<event>
 7    1  0.7596051E-010  0.4778727E+02  0.7816164E-02  0.1312668E+00
        -11   -1    0    0    0    0  0.00000000000E+00  0.00000000000E+00  0.45593999997E+02  0.45594000000E+02  0.51100000000E-03 0. -1.
         11   -1    0    0    0    0 -0.00000000000E+00 -0.00000000000E+00 -0.45593999997E+02  0.45594000000E+02  0.51100000000E-03 0.  1.
    9900012    2    1    2    0    0 -0.83731090503E+01  0.17247903178E+02 -0.38936151660E+02  0.47787273908E+02  0.20000013057E+02 0.  0.
         12    1    1    2    0    0  0.83731090503E+01 -0.17247903178E+02  0.38936151660E+02  0.43400726092E+02  0.00000000000E+00 0. -1.
         11    1    3    3    0    0  0.92954482391E-01  0.73723953120E+01 -0.38599867742E+01  0.83222804165E+01  0.51100000000E-03 0. -1.
        -11    1    3    3    0    0 -0.66205121595E+01  0.37097566258E+01 -0.59701434937E+01  0.96558836506E+01  0.51100000000E-03 0.  1.
         12    1    3    3    0    0 -0.18455513731E+01  0.61657512401E+01 -0.29106021392E+02  0.29809109841E+02  0.00000000000E+00 0. -1.
</event>
<event>
 7    1  0.7596051E-010  0.4778727E+02  0.7816164E-02  0.1312668E+00
        -11   -1    0    0    0    0  0.00000000000E+00  0.00000000000E+00  0.45593999997E+02  0.45594000000E+02  0.51100000000E-03 0.  1.
         11   -1    0    0    0    0 -0.00000000000E+00 -0.00000000000E+00 -0.45593999997E+02  0.45594000000E+02  0.51100000000E-03 0. -1.
    9900012    2    1    2    0    0  0.36083713206E+02  0.21078333552E+02  0.11717201578E+02  0.47787270549E+02  0.19999997742E+02 0.  0.
        -12    1    1    2    0    0 -0.36083713206E+02 -0.21078333552E+02 -0.11717201578E+02  0.43400729451E+02  0.00000000000E+00 0.  1.
         11    1    3    3    0    0  0.16852050925E+02  0.74681212752E+01  0.12895474500E+02  0.22495726674E+02  0.51100000000E-03 0. -1.
        -11    1    3    3    0    0  0.10448358562E+02  0.10609277119E+02  0.28713914726E+01  0.15164756737E+02  0.51100000000E-03 0.  1.
        -12    1    3    3    0    0  0.87833037191E+01  0.30009351577E+01 -0.40496643949E+01  0.10126787139E+02  0.00000000000E+00 0.  1.
</event>
<event>
 7    1  0.7596051E-010  0.4778727E+02  0.7816164E-02  0.1312668E+00
        -11   -1    0    0    0    0  0.00000000000E+00  0.00000000000E+00  0.45593999997E+02  0.45594000000E+02  0.51100000000E-03 0. -1.
         11   -1    0    0    0    0 -0.00000000000E+00 -0.00000000000E+00 -0.45593999997E+02  0.45594000000E+02  0.51100000000E-03 0.  1.
    9900012    2    1    2    0    0 -0.18083795128E+02  0.20520704313E+02  0.33697181062E+02  0.47787274623E+02  0.20000016315E+02 0.  0.
        -12    1    1    2    0    0  0.18083795128E+02 -0.20520704313E+02 -0.33697181062E+02  0.43400725377E+02  0.00000000000E+00 0.  1.
         11    1    3    3    0    0 -0.50002362724E+01  0.91853731496E-01  0.16577618105E+02  0.17315548568E+02  0.51100000000E-03 0. -1.
        -11    1    3    3    0    0 -0.30928949207E+00  0.39357297320E+00 -0.63602336181E+00  0.80937361770E+00  0.51100000000E-03 0.  1.
         12    1    3    3    0    0 -0.12774269364E+02  0.20035277608E+02  0.17755586319E+02  0.29662352437E+02  0.00000000000E+00 0. -1.
</event>
<event>
 7    1  0.7596051E-010  0.4778727E+02  0.7816164E-02  0.1312668E+00
        -11   -1    0    0    0    0  0.00000000000E+00  0.00000000000E+00  0.45593999997E+02  0.45594000000E+02  0.51100000000E-03 0. -1.
         11   -1    0    0    0    0 -0.00000000000E+00 -0.00000000000E+00 -0.45593999997E+02  0.45594000000E+02  0.51100000000E-03 0.  1.
    9900012    2    1    2    0    0  0.14466516035E+02 -0.16363871310E+01 -0.40886003052E+02  0.47787273110E+02  0.20000009416E+02 0.  0.
         12    1    1    2    0    0 -0.14466516035E+02  0.16363871310E+01  0.40886003052E+02  0.43400726890E+02  0.00000000000E+00 0. -1.
         11    1    3    3    0    0 -0.28422652956E+00  0.13610469871E+01 -0.10004022603E+02  0.10100183271E+02  0.51100000000E-03 0. -1.
        -11    1    3    3    0    0  0.65804072570E+01  0.61226006448E+01 -0.16579650866E+02  0.18859290057E+02  0.51100000000E-03 0.  1.
         12    1    3    3    0    0  0.81703353076E+01 -0.91200347630E+01 -0.14302329583E+02  0.18827799782E+02  0.00000000000E+00 0. -1.
</event>
<event>
 7    1  0.7596051E-010  0.4778727E+02  0.7816164E-02  0.1312668E+00
        -11   -1    0    0    0    0  0.00000000000E+00  0.00000000000E+00  0.45593999997E+02  0.45594000000E+02  0.51100000000E-03 0. -1.
         11   -1    0    0    0    0 -0.00000000000E+00 -0.00000000000E+00 -0.45593999997E+02  0.45594000000E+02  0.51100000000E-03 0.  1.
    9900012    2    1    2    0    0  0.31706546053E+02 -0.14900355294E+01  0.29598954705E+02  0.47787269728E+02  0.19999993999E+02 0.  0.
        -12    1    1    2    0    0 -0.31706546053E+02  0.14900355294E+01 -0.29598954705E+02  0.43400730272E+02  0.00000000000E+00 0.  1.
         11    1    3    3    0    0  0.92319221823E+01  0.24714196969E+01  0.12280125341E+02  0.15560777010E+02  0.51100000000E-03 0. -1.
        -11    1    3    3    0    0 -0.55896027793E+00 -0.29945849839E+01 -0.50254256662E+00  0.30874787628E+01  0.51100000000E-03 0.  1.
        -12    1    3    3    0    0  0.23033584149E+02 -0.96687024242E+00  0.17821371930E+02  0.29139013955E+02  0.00000000000E+00 0.  1.
</event>
<event>
 7    1  0.7596051E-010  0.4778727E+02  0.7816164E-02  0.1312668E+00
        -11   -1    0    0    0    0  0.00000000000E+00  0.00000000000E+00  0.45593999997E+02  0.45594000000E+02  0.51100000000E-03 0. -1.
         11   -1    0    0    0    0 -0.00000000000E+00 -0.00000000000E+00 -0.45593999997E+02  0.45594000000E+02  0.51100000000E-03 0.  1.
    9900012    2    1    2    0    0  0.26222152898E+02 -0.12389662839E+02 -0.32288054859E+02  0.47787268042E+02  0.19999986311E+02 0.  0.
         12    1    1    2    0    0 -0.26222152898E+02  0.12389662839E+02  0.32288054859E+02  0.43400731958E+02  0.00000000000E+00 0. -1.
         11    1    3    3    0    0  0.46616920282E+01 -0.33372779462E+01 -0.12512484499E+02  0.13763395848E+02  0.51100000000E-03 0. -1.
        -11    1    3    3    0    0  0.82467314357E+01 -0.10786100488E+02 -0.13695824849E+02  0.19285335405E+02  0.51100000000E-03 0.  1.
         12    1    3    3    0    0  0.13313729435E+02  0.17337155952E+01 -0.60797455111E+01  0.14738536790E+02  0.00000000000E+00 0. -1.
</event>
<event>
 7    1  0.7596051E-010  0.4778727E+02  0.7816164E-02  0.1312668E+00
        -11   -1    0    0    0    0  0.00000000000E+00  0.00000000000E+00  0.45593999997E+02  0.45594000000E+02  0.51100000000E-03 0. -1.
         11   -1    0    0    0    0 -0.00000000000E+00 -0.00000000000E+00 -0.45593999997E+02  0.45594000000E+02  0.51100000000E-03 0.  1.
    9900012    2    1    2    0    0  0.94994813777E+01  0.28197973191E+02 -0.31595208025E+02  0.47787274100E+02  0.20000013931E+02 0.  0.
         12    1    1    2    0    0 -0.94994813777E+01 -0.28197973191E+02  0.31595208025E+02  0.43400725900E+02  0.00000000000E+00 0. -1.
         11    1    3    3    0    0  0.42084698957E+01  0.99803451533E+01 -0.16274577288E+02  0.19549434120E+02  0.51100000000E-03 0. -1.
        -11    1    3    3    0    0  0.36713836281E+01  0.20538514530E+02 -0.13908041784E+02  0.25074753505E+02  0.51100000000E-03 0.  1.
        -12    1    3    3    0    0  0.16196278540E+01 -0.23208864923E+01 -0.14125889532E+01  0.31630864747E+01  0.00000000000E+00 0.  1.
</event>
<event>
 7    1  0.7596051E-010  0.4778727E+02  0.7816164E-02  0.1312668E+00
        -11   -1    0    0    0    0  0.00000000000E+00  0.00000000000E+00  0.45593999997E+02  0.45594000000E+02  0.51100000000E-03 0.  1.
         11   -1    0    0    0    0 -0.00000000000E+00 -0.00000000000E+00 -0.45593999997E+02  0.45594000000E+02  0.51100000000E-03 0. -1.
    9900012    2    1    2    0    0  0.13963988063E+02 -0.40960014285E+02 -0.33026048969E+01  0.47787274984E+02  0.20000017960E+02 0.  0.
        -12    1    1    2    0    0 -0.13963988063E+02  0.40960014285E+02  0.33026048969E+01  0.43400725016E+02  0.00000000000E+00 0.  1.
         11    1    3    3    0    0  0.51734185254E+01 -0.76273485071E+01  0.23956818401E+01  0.95226044876E+01  0.51100000000E-03 0. -1.
        -11    1    3    3    0    0  0.99912414310E+00 -0.15413161094E+02  0.46806772319E+01  0.16139161180E+02  0.51100000000E-03 0.  1.
        -12    1    3    3    0    0  0.77914453946E+01 -0.17919504684E+02 -0.10378963969E+02  0.22125509316E+02  0.00000000000E+00 0.  1.
</event>
<event>
 7    1  0.7596051E-010  0.4778727E+02  0.7816164E-02  0.1312668E+00
        -11   -1    0    0    0    0  0.00000000000E+00  0.00000000000E+00  0.45593999997E+02  0.45594000000E+02  0.51100000000E-03 0. -1.
         11   -1    0    0    0    0 -0.00000000000E+00 -0.00000000000E+00 -0.45593999997E+02  0.45594000000E+02  0.51100000000E-03 0.  1.
    9900012    2    1    2    0    0 -0.15687633688E+02  0.29557003889E+01  0.40358216861E+02  0.47787266323E+02  0.19999978472E+02 0.  0.
        -12    1    1    2    0    0  0.15687633688E+02 -0.29557003889E+01 -0.40358216861E+02  0.43400733677E+02  0.00000000000E+00 0.  1.
         11    1    3    3    0    0 -0.58286861339E+01  0.10087768609E+02  0.16571971692E+02  0.20257514744E+02  0.51100000000E-03 0. -1.
        -11    1    3    3    0    0 -0.17460771286E+01 -0.92216885220E+00  0.40772337553E+00  0.20162885069E+01  0.51100000000E-03 0.  1.
        -12    1    3    3    0    0 -0.81128704260E+01 -0.62098993682E+01  0.23378521793E+02  0.25513463072E+02  0.00000000000E+00 0.  1.
</event>
<event>
 7    1  0.7596051E-010  0.4778727E+02  0.7816164E-02  0.1312668E+00
        -11   -1    0    0    0    0  0.00000000000E+00  0.00000000000E+00  0.45593999997E+02  0.45594000000E+02  0.51100000000E-03 0.  1.
         11   -1    0    0    0    0 -0.00000000000E+00 -0.00000000000E+00 -0.45593999997E+02  0.45594000000E+02  0.51100000000E-03 0. -1.
    9900012    2    1    2    0    0  0.22915275960E+02 -0.30210447998E+02 -0.21114974862E+02  0.47787271850E+02  0.20000003671E+02 0.  0.
         12    1    1    2    0    0 -0.22915275960E+02  0.30210447998E+02  0.21114974862E+02  0.43400728150E+02  0.00000000000E+00 0. -1.
         11    1    3    3    0    0  0.45462238519E+01 -0.85465175777E+01 -0.18465553606E+01  0.98549926930E+01  0.51100000000E-03 0.  1.
        -11    1    3    3    0    0  0.20113036766E+02 -0.14217564439E+02 -0.17094032690E+02  0.29981316522E+02  0.51100000000E-03 0. -1.
         12    1    3    3    0    0 -0.17439846576E+01 -0.74463659810E+01 -0.21743868116E+01  0.79509626346E+01  0.00000000000E+00 0. -1.
</event>
<event>
 7    1  0.7596051E-010  0.4778726E+02  0.7816164E-02  0.1312668E+00
        -11   -1    0    0    0    0  0.00000000000E+00  0.00000000000E+00  0.45593999997E+02  0.45594000000E+02  0.51100000000E-03 0.  1.
         11   -1    0    0    0    0 -0.00000000000E+00 -0.00000000000E+00 -0.45593999997E+02  0.45594000000E+02  0.51100000000E-03 0. -1.
    9900012    2    1    2    0    0  0.92867047019E+01 -0.41921814849E+02  0.63200239394E+01  0.47787260985E+02  0.19999954136E+02 0.  0.
         12    1    1    2    0    0 -0.92867047019E+01  0.41921814849E+02 -0.63200239394E+01  0.43400739015E+02  0.00000000000E+00 0. -1.
         11    1    3    3    0    0 -0.24287755996E+01 -0.68738748877E+00 -0.17183178359E+01  0.30535338412E+01  0.51100000000E-03 0. -1.
        -11    1    3    3    0    0  0.65853159566E+00 -0.15960055543E+02 -0.90503644360E-01  0.15973892073E+02  0.51100000000E-03 0.  1.
         12    1    3    3    0    0  0.11056948706E+02 -0.25274371817E+02  0.81288454197E+01  0.28759835071E+02  0.00000000000E+00 0. -1.
</event>
<event>
 7    1  0.7596051E-010  0.4778727E+02  0.7816164E-02  0.1312668E+00
        -11   -1    0    0    0    0  0.00000000000E+00  0.00000000000E+00  0.45593999997E+02  0.45594000000E+02  0.51100000000E-03 0. -1.
         11   -1    0    0    0    0 -0.00000000000E+00 -0.00000000000E+00 -0.45593999997E+02  0.45594000000E+02  0.51100000000E-03 0.  1.
    9900012    2    1    2    0    0  0.30319459006E+01  0.14524097162E+02 -0.40785797076E+02  0.47787270312E+02  0.19999996662E+02 0.  0.
         12    1    1    2    0    0 -0.30319459006E+01 -0.14524097162E+02  0.40785797076E+02  0.43400729688E+02  0.00000000000E+00 0. -1.
         11    1    3    3    0    0  0.25825254147E+01 -0.15488628291E+01 -0.10307781915E+02  0.10738658289E+02  0.51100000000E-03 0. -1.
        -11    1    3    3    0    0  0.64049883105E+01  0.71078158473E+01 -0.95679400342E+01  0.13531090057E+02  0.51100000000E-03 0.  1.
        -12    1    3    3    0    0 -0.59555678246E+01  0.89651441440E+01 -0.20910075126E+02  0.23517521966E+02  0.00000000000E+00 0.  1.
</event>
<event>
 7    1  0.7596051E-010  0.4778728E+02  0.7816164E-02  0.1312668E+00
        -11   -1    0    0    0    0  0.00000000000E+00  0.00000000000E+00  0.45593999997E+02  0.45594000000E+02  0.51100000000E-03 0. -1.
         11   -1    0    0    0    0 -0.00000000000E+00 -0.00000000000E+00 -0.45593999997E+02  0.45594000000E+02  0.51100000000E-03 0.  1.
    9900012    2    1    2    0    0  0.18790668440E+02 -0.47396641297E+01 -0.38833863062E+02  0.47787279305E+02  0.20000037665E+02 0.  0.
         12    1    1    2    0    0 -0.18790668440E+02  0.47396641297E+01  0.38833863062E+02  0.43400720695E+02  0.00000000000E+00 0. -1.
         11    1    3    3    0    0 -0.12242986367E+01  0.33295621072E+01 -0.10412327616E+01  0.36971687684E+01  0.51100000000E-03 0. -1.
        -11    1    3    3    0    0 -0.56872195494E+00 -0.56288201764E-01 -0.57046250755E+00  0.80749040695E+00  0.51100000000E-03 0.  1.
         12    1    3    3    0    0  0.20583689031E+02 -0.80129380351E+01 -0.37222167793E+02  0.43282620130E+02  0.00000000000E+00 0. -1.
</event>
<event>
 7    1  0.7596051E-010  0.4778727E+02  0.7816164E-02  0.1312668E+00
        -11   -1    0    0    0    0  0.00000000000E+00  0.00000000000E+00  0.45593999997E+02  0.45594000000E+02  0.51100000000E-03 0. -1.
         11   -1    0    0    0    0 -0.00000000000E+00 -0.00000000000E+00 -0.45593999997E+02  0.45594000000E+02  0.51100000000E-03 0.  1.
    9900012    2    1    2    0    0  0.11981927696E+02 -0.23442746973E+02  0.34503542384E+02  0.47787269430E+02  0.19999992639E+02 0.  0.
        -12    1    1    2    0    0 -0.11981927696E+02  0.23442746973E+02 -0.34503542384E+02  0.43400730570E+02  0.00000000000E+00 0.  1.
         11    1    3    3    0    0  0.72854206506E+00 -0.68587919723E+01  0.55492095754E+01  0.88525435911E+01  0.51100000000E-03 0.  1.
        -11    1    3    3    0    0  0.15447245710E+02 -0.12673311773E+02  0.19777852539E+02  0.28113941073E+02  0.51100000000E-03 0. -1.
        -12    1    3    3    0    0 -0.41938600788E+01 -0.39106432274E+01  0.91764802694E+01  0.10820784766E+02  0.00000000000E+00 0.  1.
</event>
<event>
 7    1  0.7596051E-010  0.4778726E+02  0.7816164E-02  0.1312668E+00
        -11   -1    0    0    0    0  0.00000000000E+00  0.00000000000E+00  0.45593999997E+02  0.45594000000E+02  0.51100000000E-03 0. -1.
         11   -1    0    0    0    0 -0.00000000000E+00 -0.00000000000E+00 -0.45593999997E+02  0.45594000000E+02  0.51100000000E-03 0.  1.
    9900012    2    1    2    0    0 -0.40151556928E+02 -0.68276795099E+00  0.16462404755E+02  0.47787257309E+02  0.19999937374E+02 0.  0.
        -12    1    1    2    0    0  0.40151556928E+02  0.68276795099E+00 -0.16462404755E+02  0.43400742691E+02  0.00000000000E+00 0.  1.
         11    1    3    3    0    0 -0.96140075358E+01  0.63136422849E+01  0.55883059509E+01  0.12787508884E+02  0.51100000000E-03 0. -1.
        -11    1    3    3    0    0 -0.18350014870E+02  0.87897433786E+00  0.34205702549E+01  0.18686785244E+02  0.51100000000E-03 0.  1.
        -12    1    3    3    0    0 -0.12187534522E+02 -0.78753845737E+01  0.74535285492E+01  0.16312963181E+02  0.00000000000E+00 0.  1.
</event>
<event>
 7    1  0.7596051E-010  0.4778726E+02  0.7816164E-02  0.1312668E+00
        -11   -1    0    0    0    0  0.00000000000E+00  0.00000000000E+00  0.45593999997E+02  0.45594000000E+02  0.51100000000E-03 0. -1.
         11   -1    0    0    0    0 -0.00000000000E+00 -0.00000000000E+00 -0.45593999997E+02  0.45594000000E+02  0.51100000000E-03 0.  1.
    9900012    2    1    2    0    0  0.28412226288E+02 -0.12417726592E+02 -0.30367243042E+02  0.47787262837E+02  0.19999962578E+02 0.  0.
         12    1    1    2    0    0 -0.28412226288E+02  0.12417726592E+02  0.30367243042E+02  0.43400737163E+02  0.00000000000E+00 0. -1.
         11    1    3    3    0    0  0.20330547472E+02 -0.12613068228E+02 -0.12354326741E+02  0.26926753241E+02  0.51100000000E-03 0. -1.
        -11    1    3    3    0    0  0.24279113956E+01 -0.16288458855E+01 -0.14481703135E+01  0.32626814405E+01  0.51100000000E-03 0.  1.
        -12    1    3    3    0    0  0.56537674202E+01  0.18241875214E+01 -0.16564745988E+02  0.17597828156E+02  0.00000000000E+00 0.  1.
</event>
<event>
 7    1  0.7596051E-010  0.4778729E+02  0.7816164E-02  0.1312668E+00
        -11   -1    0    0    0    0  0.00000000000E+00  0.00000000000E+00  0.45593999997E+02  0.45594000000E+02  0.51100000000E-03 0. -1.
         11   -1    0    0    0    0 -0.00000000000E+00 -0.00000000000E+00 -0.45593999997E+02  0.45594000000E+02  0.51100000000E-03 0.  1.
    9900012    2    1    2    0    0 -0.13914448609E+02 -0.14701304121E+02  0.38391158610E+02  0.47787293988E+02  0.20000104608E+02 0.  0.
        -12    1    1    2    0    0  0.13914448609E+02  0.14701304121E+02 -0.38391158610E+02  0.43400706012E+02  0.00000000000E+00 0.  1.
         11    1    3    3    0    0 -0.92585019506E+01 -0.14932449202E+02  0.18437191769E+02  0.25468175006E+02  0.51100000000E-03 0. -1.
        -11    1    3    3    0    0 -0.14913741161E+01 -0.34921149260E+01  0.14533022077E+02  0.15020911902E+02  0.51100000000E-03 0.  1.
        -12    1    3    3    0    0 -0.31645725427E+01  0.37232600066E+01  0.54209447637E+01  0.72982070803E+01  0.00000000000E+00 0.  1.
</event>
<event>
 7    1  0.7596051E-010  0.4778728E+02  0.7816164E-02  0.1312668E+00
        -11   -1    0    0    0    0  0.00000000000E+00  0.00000000000E+00  0.45593999997E+02  0.45594000000E+02  0.51100000000E-03 0.  1.
         11   -1    0    0    0    0 -0.00000000000E+00 -0.00000000000E+00 -0.45593999997E+02  0.45594000000E+02  0.51100000000E-03 0. -1.
    9900012    2    1    2    0    0 -0.31285264161E+02  0.18544280794E+02 -0.23684694640E+02  0.47787275767E+02  0.20000021531E+02 0.  0.
         12    1    1    2    0    0  0.31285264161E+02 -0.18544280794E+02  0.23684694640E+02  0.43400724233E+02  0.00000000000E+00 0. -1.
         11    1    3    3    0    0  0.10339481036E+01  0.22598040861E+01 -0.35335661199E+01  0.43199366862E+01  0.51100000000E-03 0. -1.
        -11    1    3    3    0    0  0.63341285663E+00  0.10126708316E+01  0.89325631169E+00  0.14915163960E+01  0.51100000000E-03 0.  1.
        -12    1    3    3    0    0 -0.32952625121E+02  0.15271805876E+02 -0.21044384832E+02  0.41975822685E+02  0.00000000000E+00 0.  1.
</event>
<event>
 7    1  0.7596051E-010  0.4778727E+02  0.7816164E-02  0.1312668E+00
        -11   -1    0    0    0    0  0.00000000000E+00  0.00000000000E+00  0.45593999997E+02  0.45594000000E+02  0.51100000000E-03 0. -1.
         11   -1    0    0    0    0 -0.00000000000E+00 -0.00000000000E+00 -0.45593999997E+02  0.45594000000E+02  0.51100000000E-03 0.  1.
    9900012    2    1    2    0    0 -0.29017306607E+02 -0.18340270725E+02  0.26556608092E+02  0.47787273665E+02  0.20000011950E+02 0.  0.
        -12    1    1    2    0    0  0.29017306607E+02  0.18340270725E+02 -0.26556608092E+02  0.43400726335E+02  0.00000000000E+00 0.  1.
         11    1    3    3    0    0 -0.20042763312E+02 -0.65039141341E+01  0.16872159794E+02  0.26994129669E+02  0.51100000000E-03 0. -1.
        -11    1    3    3    0    0 -0.82799739038E+01 -0.33158712761E+01  0.16682778350E+01  0.90739253558E+01  0.51100000000E-03 0.  1.
        -12    1    3    3    0    0 -0.69456939158E+00 -0.85204853145E+01  0.80161704637E+01  0.11719218640E+02  0.00000000000E+00 0.  1.
</event>
<event>
 7    1  0.7596051E-010  0.4778727E+02  0.7816164E-02  0.1312668E+00
        -11   -1    0    0    0    0  0.00000000000E+00  0.00000000000E+00  0.45593999997E+02  0.45594000000E+02  0.51100000000E-03 0. -1.
         11   -1    0    0    0    0 -0.00000000000E+00 -0.00000000000E+00 -0.45593999997E+02  0.45594000000E+02  0.51100000000E-03 0.  1.
    9900012    2    1    2    0    0 -0.16550870607E+02  0.22163163265E+02  0.33443774474E+02  0.47787272186E+02  0.20000005204E+02 0.  0.
        -12    1    1    2    0    0  0.16550870607E+02 -0.22163163265E+02 -0.33443774474E+02  0.43400727814E+02  0.00000000000E+00 0.  1.
         11    1    3    3    0    0 -0.94587704037E+00  0.13810884717E+01 -0.23247547980E+01  0.28647118309E+01  0.51100000000E-03 0. -1.
        -11    1    3    3    0    0 -0.57705406365E+01  0.86164924992E+01  0.81826178160E+01  0.13209781104E+02  0.51100000000E-03 0.  1.
         12    1    3    3    0    0 -0.98344529306E+01  0.12165582294E+02  0.27585911456E+02  0.31712779251E+02  0.00000000000E+00 0. -1.
</event>
<event>
 7    1  0.7596051E-010  0.4778727E+02  0.7816164E-02  0.1312668E+00
        -11   -1    0    0    0    0  0.00000000000E+00  0.00000000000E+00  0.45593999997E+02  0.45594000000E+02  0.51100000000E-03 0. -1.
         11   -1    0    0    0    0 -0.00000000000E+00 -0.00000000000E+00 -0.45593999997E+02  0.45594000000E+02  0.51100000000E-03 0.  1.
    9900012    2    1    2    0    0 -0.39967842241E+01 -0.38701237350E+02  0.19231830786E+02  0.47787269915E+02  0.19999994850E+02 0.  0.
        -12    1    1    2    0    0  0.39967842241E+01  0.38701237350E+02 -0.19231830786E+02  0.43400730085E+02  0.00000000000E+00 0.  1.
         11    1    3    3    0    0  0.63399836944E+01 -0.18301494836E+02  0.13577742170E+02  0.23653650652E+02  0.51100000000E-03 0. -1.
        -11    1    3    3    0    0 -0.15830138493E+01 -0.50871428142E+01 -0.72609295592E+00  0.53770034499E+01  0.51100000000E-03 0.  1.
         12    1    3    3    0    0 -0.87537540692E+01 -0.15312599700E+02  0.63801815717E+01  0.18756615813E+02  0.00000000000E+00 0. -1.
</event>
<event>
 7    1  0.7596051E-010  0.4778727E+02  0.7816164E-02  0.1312668E+00
        -11   -1    0    0    0    0  0.00000000000E+00  0.00000000000E+00  0.45593999997E+02  0.45594000000E+02  0.51100000000E-03 0. -1.
         11   -1    0    0    0    0 -0.00000000000E+00 -0.00000000000E+00 -0.45593999997E+02  0.45594000000E+02  0.51100000000E-03 0.  1.
    9900012    2    1    2    0    0  0.87091475145E+01 -0.21131896667E+00 -0.42517397509E+02  0.47787274234E+02  0.20000014541E+02 0.  0.
         12    1    1    2    0    0 -0.87091475145E+01  0.21131896667E+00  0.42517397509E+02  0.43400725766E+02  0.00000000000E+00 0. -1.
         11    1    3    3    0    0 -0.78665020314E+00  0.49130315554E+01 -0.56999991235E+01  0.75661541007E+01  0.51100000000E-03 0. -1.
        -11    1    3    3    0    0  0.88966147150E+01 -0.77901805543E+00 -0.11675551694E+02  0.14699494214E+02  0.51100000000E-03 0.  1.
         12    1    3    3    0    0  0.59918300260E+00 -0.43453324666E+01 -0.25141846691E+02  0.25521625919E+02  0.00000000000E+00 0. -1.
</event>
<event>
 7    1  0.7596051E-010  0.4778728E+02  0.7816164E-02  0.1312668E+00
        -11   -1    0    0    0    0  0.00000000000E+00  0.00000000000E+00  0.45593999997E+02  0.45594000000E+02  0.51100000000E-03 0. -1.
         11   -1    0    0    0    0 -0.00000000000E+00 -0.00000000000E+00 -0.45593999997E+02  0.45594000000E+02  0.51100000000E-03 0.  1.
    9900012    2    1    2    0    0  0.73519710764E+01 -0.32671314057E+02 -0.27607181524E+02  0.47787277511E+02  0.20000029482E+02 0.  0.
         12    1    1    2    0    0 -0.73519710764E+01  0.32671314057E+02  0.27607181524E+02  0.43400722489E+02  0.00000000000E+00 0. -1.
         11    1    3    3    0    0  0.46776666455E+01 -0.70174486463E+01 -0.20406580771E+01  0.86769485650E+01  0.51100000000E-03 0. -1.
        -11    1    3    3    0    0  0.61902586036E+00  0.18468321799E+01 -0.24201171217E+01  0.31065976985E+01  0.51100000000E-03 0.  1.
        -12    1    3    3    0    0  0.20552785705E+01 -0.27500697591E+02 -0.23146406325E+02  0.36003731247E+02  0.00000000000E+00 0.  1.
</event>
<event>
 7    1  0.7596051E-010  0.4778727E+02  0.7816164E-02  0.1312668E+00
        -11   -1    0    0    0    0  0.00000000000E+00  0.00000000000E+00  0.45593999997E+02  0.45594000000E+02  0.51100000000E-03 0. -1.
         11   -1    0    0    0    0 -0.00000000000E+00 -0.00000000000E+00 -0.45593999997E+02  0.45594000000E+02  0.51100000000E-03 0.  1.
    9900012    2    1    2    0    0 -0.23846518985E+02  0.12206443506E+02  0.34146303456E+02  0.47787265323E+02  0.19999973914E+02 0.  0.
        -12    1    1    2    0    0  0.23846518985E+02 -0.12206443506E+02 -0.34146303456E+02  0.43400734677E+02  0.00000000000E+00 0.  1.
         11    1    3    3    0    0 -0.10841094710E+02  0.99641741213E+01  0.21563666680E+02  0.26111411708E+02  0.51100000000E-03 0. -1.
        -11    1    3    3    0    0 -0.79476078138E+01  0.70497807181E+01  0.68049314665E+01  0.12616297819E+02  0.51100000000E-03 0.  1.
        -12    1    3    3    0    0 -0.50578164618E+01 -0.48075113333E+01  0.57777053094E+01  0.90595557962E+01  0.00000000000E+00 0.  1.
</event>
<event>
 7    1  0.7596051E-010  0.4778730E+02  0.7816164E-02  0.1312668E+00
        -11   -1    0    0    0    0  0.00000000000E+00  0.00000000000E+00  0.45593999997E+02  0.45594000000E+02  0.51100000000E-03 0. -1.
         11   -1    0    0    0    0 -0.00000000000E+00 -0.00000000000E+00 -0.45593999997E+02  0.45594000000E+02  0.51100000000E-03 0.  1.
    9900012    2    1    2    0    0 -0.49599014049E+01 -0.79923122212E+01 -0.42369128871E+02  0.47787300031E+02  0.20000132159E+02 0.  0.
         12    1    1    2    0    0  0.49599014049E+01  0.79923122212E+01  0.42369128871E+02  0.43400699969E+02  0.00000000000E+00 0. -1.
         11    1    3    3    0    0 -0.27642415787E+01 -0.58963264299E+01 -0.51849721248E+01  0.83241596014E+01  0.51100000000E-03 0. -1.
        -11    1    3    3    0    0 -0.68723849806E+00 -0.22886216360E+00  0.98273978867E+00  0.12208408563E+01  0.51100000000E-03 0.  1.
        -12    1    3    3    0    0 -0.15084213282E+01 -0.18671236277E+01 -0.38166896534E+02  0.38242299573E+02  0.00000000000E+00 0.  1.
</event>
<event>
 7    1  0.7596051E-010  0.4778728E+02  0.7816164E-02  0.1312668E+00
        -11   -1    0    0    0    0  0.00000000000E+00  0.00000000000E+00  0.45593999997E+02  0.45594000000E+02  0.51100000000E-03 0. -1.
         11   -1    0    0    0    0 -0.00000000000E+00 -0.00000000000E+00 -0.45593999997E+02  0.45594000000E+02  0.51100000000E-03 0.  1.
    9900012    2    1    2    0    0 -0.79867209457E+00 -0.15734908419E+02  0.40440049334E+02  0.47787276386E+02  0.20000024355E+02 0.  0.
        -12    1    1    2    0    0  0.79867209457E+00  0.15734908419E+02 -0.40440049334E+02  0.43400723614E+02  0.00000000000E+00 0.  1.
         11    1    3    3    0    0  0.51494454733E+01 -0.10144871204E+01  0.52942028757E+01  0.74548344817E+01  0.51100000000E-03 0. -1.
        -11    1    3    3    0    0 -0.21521939606E+00 -0.16165475620E+01 -0.67240918347E+00  0.17639954024E+01  0.51100000000E-03 0.  1.
        -12    1    3    3    0    0 -0.57328981718E+01 -0.13103873737E+02  0.35818255642E+02  0.38568446502E+02  0.00000000000E+00 0.  1.
</event>
<event>
 7    1  0.7596051E-010  0.4778727E+02  0.7816164E-02  0.1312668E+00
        -11   -1    0    0    0    0  0.00000000000E+00  0.00000000000E+00  0.45593999997E+02  0.45594000000E+02  0.51100000000E-03 0. -1.
         11   -1    0    0    0    0 -0.00000000000E+00 -0.00000000000E+00 -0.45593999997E+02  0.45594000000E+02  0.51100000000E-03 0.  1.
    9900012    2    1    2    0    0  0.18938758630E+02 -0.34561892565E+02  0.18177520094E+02  0.47787271517E+02  0.20000002156E+02 0.  0.
        -12    1    1    2    0    0 -0.18938758630E+02  0.34561892565E+02 -0.18177520094E+02  0.43400728483E+02  0.00000000000E+00 0.  1.
         11    1    3    3    0    0  0.19573369923E+01  0.53523391195E+00  0.63361486962E+00  0.21258201961E+01  0.51100000000E-03 0. -1.
        -11    1    3    3    0    0  0.13298183546E+01 -0.27829708745E+00  0.54497857246E+01  0.56165853355E+01  0.51100000000E-03 0.  1.
         12    1    3    3    0    0  0.15651603283E+02 -0.34818829389E+02  0.12094119499E+02  0.40044865986E+02  0.00000000000E+00 0. -1.
</event>
<event>
 7    1  0.7596051E-010  0.4778727E+02  0.7816164E-02  0.1312668E+00
        -11   -1    0    0    0    0  0.00000000000E+00  0.00000000000E+00  0.45593999997E+02  0.45594000000E+02  0.51100000000E-03 0. -1.
         11   -1    0    0    0    0 -0.00000000000E+00 -0.00000000000E+00 -0.45593999997E+02  0.45594000000E+02  0.51100000000E-03 0.  1.
    9900012    2    1    2    0    0 -0.20857360908E+02 -0.15917062880E+02  0.34572259105E+02  0.47787268504E+02  0.19999988418E+02 0.  0.
        -12    1    1    2    0    0  0.20857360908E+02  0.15917062880E+02 -0.34572259105E+02  0.43400731496E+02  0.00000000000E+00 0.  1.
         11    1    3    3    0    0 -0.10670340894E+02 -0.77921523587E+01  0.13574586222E+02  0.18943157195E+02  0.51100000000E-03 0. -1.
        -11    1    3    3    0    0 -0.12860727731E+02 -0.10167486568E+02  0.17856421733E+02  0.24241037483E+02  0.51100000000E-03 0.  1.
        -12    1    3    3    0    0  0.26737077168E+01  0.20425760466E+01  0.31412511500E+01  0.46030738261E+01  0.00000000000E+00 0.  1.
</event>
<event>
 7    1  0.7596051E-010  0.4778727E+02  0.7816164E-02  0.1312668E+00
        -11   -1    0    0    0    0  0.00000000000E+00  0.00000000000E+00  0.45593999997E+02  0.45594000000E+02  0.51100000000E-03 0. -1.
         11   -1    0    0    0    0 -0.00000000000E+00 -0.00000000000E+00 -0.45593999997E+02  0.45594000000E+02  0.51100000000E-03 0.  1.
    9900012    2    1    2    0    0  0.91511589107E+01  0.34101808603E+02 -0.25237789071E+02  0.47787273548E+02  0.20000011413E+02 0.  0.
         12    1    1    2    0    0 -0.91511589107E+01 -0.34101808603E+02  0.25237789071E+02  0.43400726452E+02  0.00000000000E+00 0. -1.
         11    1    3    3    0    0 -0.33136816430E+01  0.17700062000E+01 -0.50688986511E+01  0.63092901166E+01  0.51100000000E-03 0. -1.
        -11    1    3    3    0    0  0.16116763776E+01  0.14578414950E+02 -0.12599826293E+02  0.19336062321E+02  0.51100000000E-03 0.  1.
        -12    1    3    3    0    0  0.10853164176E+02  0.17753387454E+02 -0.75690641262E+01  0.22141921110E+02  0.00000000000E+00 0.  1.
</event>
<event>
 7    1  0.7596051E-010  0.4778727E+02  0.7816164E-02  0.1312668E+00
        -11   -1    0    0    0    0  0.00000000000E+00  0.00000000000E+00  0.45593999997E+02  0.45594000000E+02  0.51100000000E-03 0. -1.
         11   -1    0    0    0    0 -0.00000000000E+00 -0.00000000000E+00 -0.45593999997E+02  0.45594000000E+02  0.51100000000E-03 0.  1.
    9900012    2    1    2    0    0  0.33766011140E+02  0.20465685173E+02  0.18017636287E+02  0.47787274253E+02  0.20000014631E+02 0.  0.
        -12    1    1    2    0    0 -0.33766011140E+02 -0.20465685173E+02 -0.18017636287E+02  0.43400725747E+02  0.00000000000E+00 0.  1.
         11    1    3    3    0    0  0.54353709283E+01  0.69605464813E+01  0.67871919369E+01  0.11138152409E+02  0.51100000000E-03 0. -1.
        -11    1    3    3    0    0  0.10417675773E+02  0.11784364031E+02  0.99420756876E+01  0.18607634814E+02  0.51100000000E-03 0.  1.
        -12    1    3    3    0    0  0.17912964439E+02  0.17207746603E+01  0.12883686628E+01  0.18041487030E+02  0.00000000000E+00 0.  1.
</event>
<event>
 7    1  0.9111936E-010  0.4778727E+02  0.7816164E-02  0.1312668E+00
        -11   -1    0    0    0    0  0.00000000000E+00  0.00000000000E+00  0.45593999997E+02  0.45594000000E+02  0.51100000000E-03 0. -1.
         11   -1    0    0    0    0 -0.00000000000E+00 -0.00000000000E+00 -0.45593999997E+02  0.45594000000E+02  0.51100000000E-03 0.  1.
    9900012    2    1    2    0    0  0.18975921209E+02 -0.14167465800E+02  0.36370599091E+02  0.47787272458E+02  0.20000006445E+02 0.  0.
        -12    1    1    2    0    0 -0.18975921209E+02  0.14167465800E+02 -0.36370599091E+02  0.43400727542E+02  0.00000000000E+00 0.  1.
         11    1    3    3    0    0  0.95724631185E+01 -0.48364673749E+01  0.11942444294E+02  0.16051337726E+02  0.51100000000E-03 0. -1.
        -11    1    3    3    0    0  0.24613355740E+01  0.28516279044E+01  0.23642520410E+00  0.37743677155E+01  0.51100000000E-03 0.  1.
         12    1    3    3    0    0  0.69421225168E+01 -0.12182626330E+02  0.24191729593E+02  0.27961567017E+02  0.00000000000E+00 0. -1.
</event>
<event>
 7    1  0.7596051E-010  0.4778726E+02  0.7816164E-02  0.1312668E+00
        -11   -1    0    0    0    0  0.00000000000E+00  0.00000000000E+00  0.45593999997E+02  0.45594000000E+02  0.51100000000E-03 0. -1.
         11   -1    0    0    0    0 -0.00000000000E+00 -0.00000000000E+00 -0.45593999997E+02  0.45594000000E+02  0.51100000000E-03 0.  1.
    9900012    2    1    2    0    0 -0.18262049498E+02 -0.13674696804E+02 -0.36920513941E+02  0.47787261133E+02  0.19999954810E+02 0.  0.
         12    1    1    2    0    0  0.18262049498E+02  0.13674696804E+02  0.36920513941E+02  0.43400738867E+02  0.00000000000E+00 0. -1.
         11    1    3    3    0    0  0.15764115829E+01  0.33373327954E+01 -0.60099428738E+01  0.70528205191E+01  0.51100000000E-03 0. -1.
        -11    1    3    3    0    0 -0.13248621087E+01 -0.30337645007E+01 -0.33372713523E+01  0.47006772908E+01  0.51100000000E-03 0.  1.
         12    1    3    3    0    0 -0.18513598972E+02 -0.13978265099E+02 -0.27573299715E+02  0.36033763323E+02  0.00000000000E+00 0. -1.
</event>
<event>
 7    1  0.7596051E-010  0.4778727E+02  0.7816164E-02  0.1312668E+00
        -11   -1    0    0    0    0  0.00000000000E+00  0.00000000000E+00  0.45593999997E+02  0.45594000000E+02  0.51100000000E-03 0.  1.
         11   -1    0    0    0    0 -0.00000000000E+00 -0.00000000000E+00 -0.45593999997E+02  0.45594000000E+02  0.51100000000E-03 0. -1.
    9900012    2    1    2    0    0  0.12385896306E+02  0.41204791224E+02  0.56901771077E+01  0.47787270022E+02  0.19999995339E+02 0.  0.
        -12    1    1    2    0    0 -0.12385896306E+02 -0.41204791224E+02 -0.56901771077E+01  0.43400729978E+02  0.00000000000E+00 0.  1.
         11    1    3    3    0    0  0.65087395004E+01  0.24366388486E+02  0.96036514463E+00  0.25238995209E+02  0.51100000000E-03 0. -1.
        -11    1    3    3    0    0  0.71547353937E+01  0.15812777515E+02 -0.19594598458E+00  0.17357205028E+02  0.51100000000E-03 0.  1.
        -12    1    3    3    0    0 -0.12775785878E+01  0.10256252228E+01  0.49257579477E+01  0.51910697843E+01  0.00000000000E+00 0.  1.
</event>
<event>
 7    1  0.7596051E-010  0.4778726E+02  0.7816164E-02  0.1312668E+00
        -11   -1    0    0    0    0  0.00000000000E+00  0.00000000000E+00  0.45593999997E+02  0.45594000000E+02  0.51100000000E-03 0. -1.
         11   -1    0    0    0    0 -0.00000000000E+00 -0.00000000000E+00 -0.45593999997E+02  0.45594000000E+02  0.51100000000E-03 0.  1.
    9900012    2    1    2    0    0  0.31736534447E+02  0.24505460261E+02  0.16610208819E+02  0.47787259933E+02  0.19999949340E+02 0.  0.
        -12    1    1    2    0    0 -0.31736534447E+02 -0.24505460261E+02 -0.16610208819E+02  0.43400740067E+02  0.00000000000E+00 0.  1.
         11    1    3    3    0    0  0.12055142769E+02  0.10695867204E+02  0.92077778259E+00  0.16142362727E+02  0.51100000000E-03 0. -1.
        -11    1    3    3    0    0  0.76796327137E+01  0.12729621562E+02  0.54580359646E+01  0.15836987737E+02  0.51100000000E-03 0.  1.
         12    1    3    3    0    0  0.12001758964E+02  0.10799714949E+01  0.10231395072E+02  0.15807909469E+02  0.00000000000E+00 0. -1.
</event>
<event>
 7    1  0.7596051E-010  0.4778727E+02  0.7816164E-02  0.1312668E+00
        -11   -1    0    0    0    0  0.00000000000E+00  0.00000000000E+00  0.45593999997E+02  0.45594000000E+02  0.51100000000E-03 0. -1.
         11   -1    0    0    0    0 -0.00000000000E+00 -0.00000000000E+00 -0.45593999997E+02  0.45594000000E+02  0.51100000000E-03 0.  1.
    9900012    2    1    2    0    0 -0.41563367956E+02 -0.10616153541E+02  0.65884005409E+01  0.47787270818E+02  0.19999998969E+02 0.  0.
        -12    1    1    2    0    0  0.41563367956E+02  0.10616153541E+02 -0.65884005409E+01  0.43400729182E+02  0.00000000000E+00 0.  1.
         11    1    3    3    0    0 -0.13460432559E+02 -0.30658891719E+01 -0.30330773522E+00  0.13808508860E+02  0.51100000000E-03 0. -1.
        -11    1    3    3    0    0  0.15588693098E+01  0.72544631071E+00 -0.12503054267E+01  0.21259373923E+01  0.51100000000E-03 0.  1.
        -12    1    3    3    0    0 -0.29661804706E+02 -0.82757106799E+01  0.81420137028E+01  0.31852824566E+02  0.00000000000E+00 0.  1.
</event>
<event>
 7    1  0.7596051E-010  0.4778727E+02  0.7816164E-02  0.1312668E+00
        -11   -1    0    0    0    0  0.00000000000E+00  0.00000000000E+00  0.45593999997E+02  0.45594000000E+02  0.51100000000E-03 0. -1.
         11   -1    0    0    0    0 -0.00000000000E+00 -0.00000000000E+00 -0.45593999997E+02  0.45594000000E+02  0.51100000000E-03 0.  1.
    9900012    2    1    2    0    0  0.87316404721E+01  0.91105580812E+01 -0.41525644586E+02  0.47787274520E+02  0.20000015846E+02 0.  0.
         12    1    1    2    0    0 -0.87316404721E+01 -0.91105580812E+01  0.41525644586E+02  0.43400725480E+02  0.00000000000E+00 0. -1.
         11    1    3    3    0    0 -0.45861178526E+01  0.29482769217E+01 -0.16438657638E+02  0.17319188172E+02  0.51100000000E-03 0. -1.
        -11    1    3    3    0    0  0.34000544008E+01 -0.14055437643E+01 -0.19063702146E+01  0.41436904877E+01  0.51100000000E-03 0.  1.
        -12    1    3    3    0    0  0.99177039239E+01  0.75678249238E+01 -0.23180616734E+02  0.26324395860E+02  0.00000000000E+00 0.  1.
</event>
<event>
 7    1  0.7596051E-010  0.4778727E+02  0.7816164E-02  0.1312668E+00
        -11   -1    0    0    0    0  0.00000000000E+00  0.00000000000E+00  0.45593999997E+02  0.45594000000E+02  0.51100000000E-03 0. -1.
         11   -1    0    0    0    0 -0.00000000000E+00 -0.00000000000E+00 -0.45593999997E+02  0.45594000000E+02  0.51100000000E-03 0.  1.
    9900012    2    1    2    0    0  0.25598099129E+02  0.16025317824E+02 -0.31169697193E+02  0.47787268284E+02  0.19999987416E+02 0.  0.
         12    1    1    2    0    0 -0.25598099129E+02 -0.16025317824E+02  0.31169697193E+02  0.43400731716E+02  0.00000000000E+00 0. -1.
         11    1    3    3    0    0  0.18180031537E+02  0.63177267475E+01 -0.16926903000E+02  0.25630982490E+02  0.51100000000E-03 0. -1.
        -11    1    3    3    0    0  0.65758347578E+01  0.24259102460E+01 -0.12932697518E+02  0.14709905120E+02  0.51100000000E-03 0.  1.
         12    1    3    3    0    0  0.84223283368E+00  0.72816808301E+01 -0.13100966748E+01  0.74463806748E+01  0.00000000000E+00 0. -1.
</event>
<event>
 7    1  0.7596051E-010  0.4778727E+02  0.7816164E-02  0.1312668E+00
        -11   -1    0    0    0    0  0.00000000000E+00  0.00000000000E+00  0.45593999997E+02  0.45594000000E+02  0.51100000000E-03 0. -1.
         11   -1    0    0    0    0 -0.00000000000E+00 -0.00000000000E+00 -0.45593999997E+02  0.45594000000E+02  0.51100000000E-03 0.  1.
    9900012    2    1    2    0    0 -0.12688633535E+02  0.14936995480E+02 -0.38723477500E+02  0.47787274607E+02  0.20000016241E+02 0.  0.
         12    1    1    2    0    0  0.12688633535E+02 -0.14936995480E+02  0.38723477500E+02  0.43400725393E+02  0.00000000000E+00 0. -1.
         11    1    3    3    0    0  0.23602576917E+01  0.78512908264E+00 -0.49322398891E+00  0.25358458573E+01  0.51100000000E-03 0. -1.
        -11    1    3    3    0    0 -0.18238544520E+01  0.91723648322E+01 -0.20849378431E+02  0.22850717776E+02  0.51100000000E-03 0.  1.
        -12    1    3    3    0    0 -0.13225036775E+02  0.49795015650E+01 -0.17380875081E+02  0.22400710973E+02  0.00000000000E+00 0.  1.
</event>
<event>
 7    1  0.7596051E-010  0.4778727E+02  0.7816164E-02  0.1312668E+00
        -11   -1    0    0    0    0  0.00000000000E+00  0.00000000000E+00  0.45593999997E+02  0.45594000000E+02  0.51100000000E-03 0. -1.
         11   -1    0    0    0    0 -0.00000000000E+00 -0.00000000000E+00 -0.45593999997E+02  0.45594000000E+02  0.51100000000E-03 0.  1.
    9900012    2    1    2    0    0 -0.28304647495E+02 -0.94703396303E+01 -0.31508454755E+02  0.47787272776E+02  0.20000007895E+02 0.  0.
         12    1    1    2    0    0  0.28304647495E+02  0.94703396303E+01  0.31508454755E+02  0.43400727224E+02  0.00000000000E+00 0. -1.
         11    1    3    3    0    0 -0.19730503418E+02 -0.58904414080E+01 -0.13973406281E+02  0.24884656889E+02  0.51100000000E-03 0. -1.
        -11    1    3    3    0    0 -0.93974333902E+01 -0.65197704844E+01 -0.11975373144E+02  0.16559852768E+02  0.51100000000E-03 0.  1.
         12    1    3    3    0    0  0.82328931401E+00  0.29398722621E+01 -0.55596753299E+01  0.63427631191E+01  0.00000000000E+00 0. -1.
</event>
<event>
 7    1  0.7596051E-010  0.4778727E+02  0.7816164E-02  0.1312668E+00
        -11   -1    0    0    0    0  0.00000000000E+00  0.00000000000E+00  0.45593999997E+02  0.45594000000E+02  0.51100000000E-03 0. -1.
         11   -1    0    0    0    0 -0.00000000000E+00 -0.00000000000E+00 -0.45593999997E+02  0.45594000000E+02  0.51100000000E-03 0.  1.
    9900012    2    1    2    0    0 -0.21906692001E+02 -0.33344135700E+02  0.17084755416E+02  0.47787269504E+02  0.19999992974E+02 0.  0.
        -12    1    1    2    0    0  0.21906692001E+02  0.33344135700E+02 -0.17084755416E+02  0.43400730496E+02  0.00000000000E+00 0.  1.
         11    1    3    3    0    0 -0.38376565952E+01 -0.98145572676E+00  0.95599605934E-01  0.39623229339E+01  0.51100000000E-03 0. -1.
        -11    1    3    3    0    0 -0.17047311225E+02 -0.26841806624E+02  0.72973847904E+01  0.32624304252E+02  0.51100000000E-03 0.  1.
        -12    1    3    3    0    0 -0.10217241806E+01 -0.55208733489E+01  0.96917710199E+01  0.11200642318E+02  0.00000000000E+00 0.  1.
</event>
<event>
 7    1  0.7596051E-010  0.4778727E+02  0.7816164E-02  0.1312668E+00
        -11   -1    0    0    0    0  0.00000000000E+00  0.00000000000E+00  0.45593999997E+02  0.45594000000E+02  0.51100000000E-03 0. -1.
         11   -1    0    0    0    0 -0.00000000000E+00 -0.00000000000E+00 -0.45593999997E+02  0.45594000000E+02  0.51100000000E-03 0.  1.
    9900012    2    1    2    0    0 -0.30274642386E+02  0.26518948878E+02  0.16242379485E+02  0.47787268295E+02  0.19999987464E+02 0.  0.
        -12    1    1    2    0    0  0.30274642386E+02 -0.26518948878E+02 -0.16242379485E+02  0.43400731705E+02  0.00000000000E+00 0.  1.
         11    1    3    3    0    0 -0.99879512823E+01  0.11217472662E+02  0.30319727786E+01  0.15322653913E+02  0.51100000000E-03 0. -1.
        -11    1    3    3    0    0 -0.19307666784E+02  0.17277212234E+02  0.85071360998E+01  0.27270119620E+02  0.51100000000E-03 0.  1.
        -12    1    3    3    0    0 -0.97902431943E+00 -0.19757360175E+01  0.47032706071E+01  0.51944947620E+01  0.00000000000E+00 0.  1.
</event>
<event>
 7    1  0.7596051E-010  0.4778723E+02  0.7816164E-02  0.1312668E+00
        -11   -1    0    0    0    0  0.00000000000E+00  0.00000000000E+00  0.45593999997E+02  0.45594000000E+02  0.51100000000E-03 0. -1.
         11   -1    0    0    0    0 -0.00000000000E+00 -0.00000000000E+00 -0.45593999997E+02  0.45594000000E+02  0.51100000000E-03 0.  1.
    9900012    2    1    2    0    0 -0.63429795982E+00  0.11257324276E+02  0.41910583554E+02  0.47787231601E+02  0.19999820163E+02 0.  0.
        -12    1    1    2    0    0  0.63429795982E+00 -0.11257324276E+02 -0.41910583554E+02  0.43400768399E+02  0.00000000000E+00 0.  1.
         11    1    3    3    0    0  0.30728565221E+01 -0.20308691578E+01  0.21827201804E+01  0.42814885716E+01  0.51100000000E-03 0. -1.
        -11    1    3    3    0    0 -0.58818172469E-01 -0.34849422414E+00 -0.64536955475E+00  0.73580562990E+00  0.51100000000E-03 0.  1.
         12    1    3    3    0    0 -0.36483363095E+01  0.13636687658E+02  0.40373232928E+02  0.42769937400E+02  0.00000000000E+00 0. -1.
</event>
<event>
 7    1  0.7596051E-010  0.4778727E+02  0.7816164E-02  0.1312668E+00
        -11   -1    0    0    0    0  0.00000000000E+00  0.00000000000E+00  0.45593999997E+02  0.45594000000E+02  0.51100000000E-03 0. -1.
         11   -1    0    0    0    0 -0.00000000000E+00 -0.00000000000E+00 -0.45593999997E+02  0.45594000000E+02  0.51100000000E-03 0.  1.
    9900012    2    1    2    0    0  0.17216621240E+02  0.89058925383E+01 -0.38831643632E+02  0.47787268256E+02  0.19999987285E+02 0.  0.
         12    1    1    2    0    0 -0.17216621240E+02 -0.89058925383E+01  0.38831643632E+02  0.43400731744E+02  0.00000000000E+00 0. -1.
         11    1    3    3    0    0  0.84543510022E+01  0.78962034742E+01 -0.10097299027E+02  0.15355179194E+02  0.51100000000E-03 0. -1.
        -11    1    3    3    0    0  0.54252582157E+01  0.50101176623E+01 -0.73377801158E+01  0.10410462189E+02  0.51100000000E-03 0.  1.
         12    1    3    3    0    0  0.33370120219E+01 -0.40004285983E+01 -0.21396564489E+02  0.22021626873E+02  0.00000000000E+00 0. -1.
</event>
<event>
 7    1  0.7596051E-010  0.4778723E+02  0.7816164E-02  0.1312668E+00
        -11   -1    0    0    0    0  0.00000000000E+00  0.00000000000E+00  0.45593999997E+02  0.45594000000E+02  0.51100000000E-03 0. -1.
         11   -1    0    0    0    0 -0.00000000000E+00 -0.00000000000E+00 -0.45593999997E+02  0.45594000000E+02  0.51100000000E-03 0.  1.
    9900012    2    1    2    0    0  0.30951201155E+02 -0.75085148897E+00  0.30415224406E+02  0.47787233802E+02  0.19999830198E+02 0.  0.
        -12    1    1    2    0    0 -0.30951201155E+02  0.75085148897E+00 -0.30415224406E+02  0.43400766198E+02  0.00000000000E+00 0.  1.
         11    1    3    3    0    0  0.96014951726E+01 -0.26640715185E+01  0.17517276416E+02  0.20152939237E+02  0.51100000000E-03 0. -1.
        -11    1    3    3    0    0  0.18628900336E+02 -0.25102064088E+00  0.14687769650E+02  0.23724028255E+02  0.51100000000E-03 0.  1.
         12    1    3    3    0    0  0.27208056460E+01  0.21642406704E+01 -0.17898216598E+01  0.39102663102E+01  0.00000000000E+00 0. -1.
</event>
<event>
 7    1  0.7596051E-010  0.4778727E+02  0.7816164E-02  0.1312668E+00
        -11   -1    0    0    0    0  0.00000000000E+00  0.00000000000E+00  0.45593999997E+02  0.45594000000E+02  0.51100000000E-03 0. -1.
         11   -1    0    0    0    0 -0.00000000000E+00 -0.00000000000E+00 -0.45593999997E+02  0.45594000000E+02  0.51100000000E-03 0.  1.
    9900012    2    1    2    0    0  0.23364489944E+02  0.73447789404E+01 -0.35829851362E+02  0.47787269400E+02  0.19999992501E+02 0.  0.
         12    1    1    2    0    0 -0.23364489944E+02 -0.73447789404E+01  0.35829851362E+02  0.43400730600E+02  0.00000000000E+00 0. -1.
         11    1    3    3    0    0  0.17859456093E+02  0.72565717773E+01 -0.16546494809E+02  0.25404812469E+02  0.51100000000E-03 0. -1.
        -11    1    3    3    0    0  0.15633922298E+01  0.95743715157E+00  0.72470737093E+00  0.19713148399E+01  0.51100000000E-03 0.  1.
        -12    1    3    3    0    0  0.39416416219E+01 -0.86922998848E+00 -0.20008063924E+02  0.20411142090E+02  0.00000000000E+00 0.  1.
</event>
<event>
 7    1  0.7596051E-010  0.4778727E+02  0.7816164E-02  0.1312668E+00
        -11   -1    0    0    0    0  0.00000000000E+00  0.00000000000E+00  0.45593999997E+02  0.45594000000E+02  0.51100000000E-03 0. -1.
         11   -1    0    0    0    0 -0.00000000000E+00 -0.00000000000E+00 -0.45593999997E+02  0.45594000000E+02  0.51100000000E-03 0.  1.
    9900012    2    1    2    0    0  0.29886074978E+02  0.10262456666E+02  0.29751100499E+02  0.47787268723E+02  0.19999989417E+02 0.  0.
        -12    1    1    2    0    0 -0.29886074978E+02 -0.10262456666E+02 -0.29751100499E+02  0.43400731277E+02  0.00000000000E+00 0.  1.
         11    1    3    3    0    0  0.20173885334E+02  0.27698928194E+01  0.13384536795E+02  0.24368089403E+02  0.51100000000E-03 0. -1.
        -11    1    3    3    0    0  0.25540248191E-01 -0.14743212340E+01  0.71980544524E+01  0.73475345229E+01  0.51100000000E-03 0.  1.
         12    1    3    3    0    0  0.96866493961E+01  0.89668850811E+01  0.91685092518E+01  0.16071644797E+02  0.00000000000E+00 0. -1.
</event>
<event>
 7    1  0.7596051E-010  0.4778728E+02  0.7816164E-02  0.1312668E+00
        -11   -1    0    0    0    0  0.00000000000E+00  0.00000000000E+00  0.45593999997E+02  0.45594000000E+02  0.51100000000E-03 0. -1.
         11   -1    0    0    0    0 -0.00000000000E+00 -0.00000000000E+00 -0.45593999997E+02  0.45594000000E+02  0.51100000000E-03 0.  1.
    9900012    2    1    2    0    0 -0.32789575878E+02  0.27654944602E+02  0.66083789023E+01  0.47787275133E+02  0.20000018644E+02 0.  0.
        -12    1    1    2    0    0  0.32789575878E+02 -0.27654944602E+02 -0.66083789023E+01  0.43400724867E+02  0.00000000000E+00 0.  1.
         11    1    3    3    0    0 -0.94143834007E+00  0.54491608649E+01 -0.17140296519E+01  0.57894350491E+01  0.51100000000E-03 0.  1.
        -11    1    3    3    0    0 -0.27750530643E+02  0.21606591553E+02  0.11250839237E+02  0.36925846413E+02  0.51100000000E-03 0. -1.
         12    1    3    3    0    0 -0.40976068948E+01  0.59919218404E+00 -0.29284306826E+01  0.50719936712E+01  0.00000000000E+00 0. -1.
</event>
<event>
 7    1  0.7596051E-010  0.4778727E+02  0.7816164E-02  0.1312668E+00
        -11   -1    0    0    0    0  0.00000000000E+00  0.00000000000E+00  0.45593999997E+02  0.45594000000E+02  0.51100000000E-03 0. -1.
         11   -1    0    0    0    0 -0.00000000000E+00 -0.00000000000E+00 -0.45593999997E+02  0.45594000000E+02  0.51100000000E-03 0.  1.
    9900012    2    1    2    0    0  0.36502330646E+00  0.10852829595E+02  0.42020308173E+02  0.47787269001E+02  0.19999990685E+02 0.  0.
        -12    1    1    2    0    0 -0.36502330646E+00 -0.10852829595E+02 -0.42020308173E+02  0.43400730999E+02  0.00000000000E+00 0.  1.
         11    1    3    3    0    0  0.13803341638E+01 -0.64736968285E+00  0.10888539603E+02  0.10994758063E+02  0.51100000000E-03 0. -1.
        -11    1    3    3    0    0  0.36265559574E+00 -0.30657785380E+01  0.13656223915E+02  0.14000820297E+02  0.51100000000E-03 0.  1.
         12    1    3    3    0    0 -0.13779664530E+01  0.14565977816E+02  0.17475544656E+02  0.22791690642E+02  0.00000000000E+00 0. -1.
</event>
<event>
 7    1  0.7596051E-010  0.4778727E+02  0.7816164E-02  0.1312668E+00
        -11   -1    0    0    0    0  0.00000000000E+00  0.00000000000E+00  0.45593999997E+02  0.45594000000E+02  0.51100000000E-03 0.  1.
         11   -1    0    0    0    0 -0.00000000000E+00 -0.00000000000E+00 -0.45593999997E+02  0.45594000000E+02  0.51100000000E-03 0. -1.
    9900012    2    1    2    0    0 -0.29138009947E+02 -0.26903827205E+02 -0.17629060016E+02  0.47787270755E+02  0.19999998680E+02 0.  0.
         12    1    1    2    0    0  0.29138009947E+02  0.26903827205E+02  0.17629060016E+02  0.43400729245E+02  0.00000000000E+00 0. -1.
         11    1    3    3    0    0 -0.15859626438E+02 -0.12856175579E+02 -0.11382470078E+02  0.23374550832E+02  0.51100000000E-03 0. -1.
        -11    1    3    3    0    0 -0.14481193686E+02 -0.11950914726E+02 -0.89384396910E+01  0.20794831996E+02  0.51100000000E-03 0.  1.
        -12    1    3    3    0    0  0.12028101771E+01 -0.20967369000E+01  0.26918497538E+01  0.36178879263E+01  0.00000000000E+00 0.  1.
</event>
<event>
 7    1  0.7596051E-010  0.4778727E+02  0.7816164E-02  0.1312668E+00
        -11   -1    0    0    0    0  0.00000000000E+00  0.00000000000E+00  0.45593999997E+02  0.45594000000E+02  0.51100000000E-03 0. -1.
         11   -1    0    0    0    0 -0.00000000000E+00 -0.00000000000E+00 -0.45593999997E+02  0.45594000000E+02  0.51100000000E-03 0.  1.
    9900012    2    1    2    0    0  0.35714195668E+02 -0.11636334877E+02  0.21742012832E+02  0.47787272085E+02  0.20000004742E+02 0.  0.
        -12    1    1    2    0    0 -0.35714195668E+02  0.11636334877E+02 -0.21742012832E+02  0.43400727915E+02  0.00000000000E+00 0.  1.
         11    1    3    3    0    0  0.15946990931E+02 -0.10503366463E+02  0.10185666696E+02  0.21641973873E+02  0.51100000000E-03 0. -1.
        -11    1    3    3    0    0  0.14217410801E+02 -0.58052472874E+01  0.44469453767E+01  0.15987838797E+02  0.51100000000E-03 0.  1.
        -12    1    3    3    0    0  0.55497939365E+01  0.46722788735E+01  0.71094007593E+01  0.10157459415E+02  0.00000000000E+00 0.  1.
</event>
<event>
 7    1  0.7596051E-010  0.4778726E+02  0.7816164E-02  0.1312668E+00
        -11   -1    0    0    0    0  0.00000000000E+00  0.00000000000E+00  0.45593999997E+02  0.45594000000E+02  0.51100000000E-03 0. -1.
         11   -1    0    0    0    0 -0.00000000000E+00 -0.00000000000E+00 -0.45593999997E+02  0.45594000000E+02  0.51100000000E-03 0.  1.
    9900012    2    1    2    0    0 -0.34467920624E+02  0.41213999324E+01 -0.26049963011E+02  0.47787261960E+02  0.19999958580E+02 0.  0.
         12    1    1    2    0    0  0.34467920624E+02 -0.41213999324E+01  0.26049963011E+02  0.43400738040E+02  0.00000000000E+00 0. -1.
         11    1    3    3    0    0 -0.18544292537E+01 -0.70126455003E+00 -0.31658976569E+00  0.20077124214E+01  0.51100000000E-03 0. -1.
        -11    1    3    3    0    0 -0.19695093414E+02  0.27447124508E+01 -0.25950367793E+02  0.32693298088E+02  0.51100000000E-03 0.  1.
        -12    1    3    3    0    0 -0.12918397956E+02  0.20779520317E+01  0.21699454730E+00  0.13086251451E+02  0.00000000000E+00 0.  1.
</event>
<event>
 7    1  0.7596051E-010  0.4778727E+02  0.7816164E-02  0.1312668E+00
        -11   -1    0    0    0    0  0.00000000000E+00  0.00000000000E+00  0.45593999997E+02  0.45594000000E+02  0.51100000000E-03 0.  1.
         11   -1    0    0    0    0 -0.00000000000E+00 -0.00000000000E+00 -0.45593999997E+02  0.45594000000E+02  0.51100000000E-03 0. -1.
    9900012    2    1    2    0    0 -0.26226435299E+02 -0.33821208568E+02  0.72057640356E+01  0.47787273130E+02  0.20000009510E+02 0.  0.
        -12    1    1    2    0    0  0.26226435299E+02  0.33821208568E+02 -0.72057640356E+01  0.43400726870E+02  0.00000000000E+00 0.  1.
         11    1    3    3    0    0 -0.16289772143E+02 -0.25173422698E+02  0.13450032881E+02  0.32862764211E+02  0.51100000000E-03 0. -1.
        -11    1    3    3    0    0 -0.16326509686E+01 -0.31366697628E+00 -0.13517831926E+00  0.16679956824E+01  0.51100000000E-03 0.  1.
         12    1    3    3    0    0 -0.83040121877E+01 -0.83341188929E+01 -0.61090905265E+01  0.13256513237E+02  0.00000000000E+00 0. -1.
</event>
<event>
 7    1  0.7596051E-010  0.4778726E+02  0.7816164E-02  0.1312668E+00
        -11   -1    0    0    0    0  0.00000000000E+00  0.00000000000E+00  0.45593999997E+02  0.45594000000E+02  0.51100000000E-03 0.  1.
         11   -1    0    0    0    0 -0.00000000000E+00 -0.00000000000E+00 -0.45593999997E+02  0.45594000000E+02  0.51100000000E-03 0. -1.
    9900012    2    1    2    0    0 -0.33866190583E+02  0.21500341740E+02  0.16566238885E+02  0.47787264634E+02  0.19999970772E+02 0.  0.
         12    1    1    2    0    0  0.33866190583E+02 -0.21500341740E+02 -0.16566238885E+02  0.43400735366E+02  0.00000000000E+00 0. -1.
         11    1    3    3    0    0 -0.16592608878E+02  0.37703336496E+01  0.43663369541E+00  0.17021184872E+02  0.51100000000E-03 0. -1.
        -11    1    3    3    0    0 -0.58621201623E+01  0.19710502369E+01  0.13444099119E+01  0.63290544401E+01  0.51100000000E-03 0.  1.
        -12    1    3    3    0    0 -0.11411461542E+02  0.15758957854E+02  0.14785195277E+02  0.24437025321E+02  0.00000000000E+00 0.  1.
</event>
<event>
 7    1  0.7596051E-010  0.4778727E+02  0.7816164E-02  0.1312668E+00
        -11   -1    0    0    0    0  0.00000000000E+00  0.00000000000E+00  0.45593999997E+02  0.45594000000E+02  0.51100000000E-03 0. -1.
         11   -1    0    0    0    0 -0.00000000000E+00 -0.00000000000E+00 -0.45593999997E+02  0.45594000000E+02  0.51100000000E-03 0.  1.
    9900012    2    1    2    0    0 -0.29322569587E+02  0.10374976362E+02 -0.30268299215E+02  0.47787272367E+02  0.20000006032E+02 0.  0.
         12    1    1    2    0    0  0.29322569587E+02 -0.10374976362E+02  0.30268299215E+02  0.43400727633E+02  0.00000000000E+00 0. -1.
         11    1    3    3    0    0 -0.14172843685E+02 -0.13121492677E+01 -0.13376737854E+02  0.19532750695E+02  0.51100000000E-03 0. -1.
        -11    1    3    3    0    0 -0.13381774343E+02  0.40792444149E+01 -0.69771394963E+01  0.15633060973E+02  0.51100000000E-03 0.  1.
         12    1    3    3    0    0 -0.17679515585E+01  0.76078812148E+01 -0.99144218644E+01  0.12621460700E+02  0.00000000000E+00 0. -1.
</event>
<event>
 7    1  0.7596051E-010  0.4778727E+02  0.7816164E-02  0.1312668E+00
        -11   -1    0    0    0    0  0.00000000000E+00  0.00000000000E+00  0.45593999997E+02  0.45594000000E+02  0.51100000000E-03 0. -1.
         11   -1    0    0    0    0 -0.00000000000E+00 -0.00000000000E+00 -0.45593999997E+02  0.45594000000E+02  0.51100000000E-03 0.  1.
    9900012    2    1    2    0    0  0.24609236562E+02 -0.28410063120E+02  0.21699701855E+02  0.47787271075E+02  0.20000000139E+02 0.  0.
        -12    1    1    2    0    0 -0.24609236562E+02  0.28410063120E+02 -0.21699701855E+02  0.43400728925E+02  0.00000000000E+00 0.  1.
         11    1    3    3    0    0 -0.10252139984E+01 -0.86081683994E+00 -0.52008880524E+00  0.14361622474E+01  0.51100000000E-03 0. -1.
        -11    1    3    3    0    0 -0.11544811996E+00 -0.21361806983E+01  0.66121094067E+01  0.69495746137E+01  0.51100000000E-03 0.  1.
         12    1    3    3    0    0  0.25749898680E+02 -0.25413065581E+02  0.15607681254E+02  0.39401534214E+02  0.00000000000E+00 0. -1.
</event>
<event>
 7    1  0.7596051E-010  0.4778727E+02  0.7816164E-02  0.1312668E+00
        -11   -1    0    0    0    0  0.00000000000E+00  0.00000000000E+00  0.45593999997E+02  0.45594000000E+02  0.51100000000E-03 0. -1.
         11   -1    0    0    0    0 -0.00000000000E+00 -0.00000000000E+00 -0.45593999997E+02  0.45594000000E+02  0.51100000000E-03 0.  1.
    9900012    2    1    2    0    0 -0.12835007504E+02 -0.59006891520E+01 -0.41037395103E+02  0.47787270202E+02  0.19999996161E+02 0.  0.
         12    1    1    2    0    0  0.12835007504E+02  0.59006891520E+01  0.41037395103E+02  0.43400729798E+02  0.00000000000E+00 0. -1.
         11    1    3    3    0    0  0.37114276610E+01  0.16926722604E+01 -0.17112289468E+02  0.17591767556E+02  0.51100000000E-03 0. -1.
        -11    1    3    3    0    0 -0.31504843821E+01 -0.20113893796E+01 -0.33640773787E+01  0.50287429791E+01  0.51100000000E-03 0.  1.
         12    1    3    3    0    0 -0.13395950783E+02 -0.55819720328E+01 -0.20561028257E+02  0.25166759667E+02  0.00000000000E+00 0. -1.
</event>
<event>
 7    1  0.7596051E-010  0.4778727E+02  0.7816164E-02  0.1312668E+00
        -11   -1    0    0    0    0  0.00000000000E+00  0.00000000000E+00  0.45593999997E+02  0.45594000000E+02  0.51100000000E-03 0.  1.
         11   -1    0    0    0    0 -0.00000000000E+00 -0.00000000000E+00 -0.45593999997E+02  0.45594000000E+02  0.51100000000E-03 0. -1.
    9900012    2    1    2    0    0 -0.61285574608E+01  0.42674596306E+02  0.49942994242E+01  0.47787269440E+02  0.19999992682E+02 0.  0.
         12    1    1    2    0    0  0.61285574608E+01 -0.42674596306E+02 -0.49942994242E+01  0.43400730560E+02  0.00000000000E+00 0. -1.
         11    1    3    3    0    0  0.70063791275E+00 -0.18779242504E+00  0.11089957653E+01  0.13251533301E+01  0.51100000000E-03 0. -1.
        -11    1    3    3    0    0  0.51225401256E+01  0.15363097840E+02 -0.23359686096E+00  0.16196288474E+02  0.51100000000E-03 0.  1.
         12    1    3    3    0    0 -0.11951735499E+02  0.27499290891E+02  0.41189005199E+01  0.30265827635E+02  0.00000000000E+00 0. -1.
</event>
<event>
 7    1  0.7596051E-010  0.4778728E+02  0.7816164E-02  0.1312668E+00
        -11   -1    0    0    0    0  0.00000000000E+00  0.00000000000E+00  0.45593999997E+02  0.45594000000E+02  0.51100000000E-03 0. -1.
         11   -1    0    0    0    0 -0.00000000000E+00 -0.00000000000E+00 -0.45593999997E+02  0.45594000000E+02  0.51100000000E-03 0.  1.
    9900012    2    1    2    0    0 -0.72437027644E+01  0.24543267473E+02  0.35053949829E+02  0.47787278732E+02  0.20000035051E+02 0.  0.
        -12    1    1    2    0    0  0.72437027644E+01 -0.24543267473E+02 -0.35053949829E+02  0.43400721268E+02  0.00000000000E+00 0.  1.
         11    1    3    3    0    0 -0.60259468908E+01  0.64436083493E+01  0.14010488431E+02  0.16556748196E+02  0.51100000000E-03 0. -1.
        -11    1    3    3    0    0 -0.75133854304E+01  0.91310633106E+01  0.13394295734E+02  0.17867132850E+02  0.51100000000E-03 0.  1.
        -12    1    3    3    0    0  0.62956295569E+01  0.89685958127E+01  0.76491656642E+01  0.13363397686E+02  0.00000000000E+00 0.  1.
</event>
<event>
 7    1  0.7596051E-010  0.4778727E+02  0.7816164E-02  0.1312668E+00
        -11   -1    0    0    0    0  0.00000000000E+00  0.00000000000E+00  0.45593999997E+02  0.45594000000E+02  0.51100000000E-03 0. -1.
         11   -1    0    0    0    0 -0.00000000000E+00 -0.00000000000E+00 -0.45593999997E+02  0.45594000000E+02  0.51100000000E-03 0.  1.
    9900012    2    1    2    0    0 -0.69021040026E-01  0.83740292729E+01 -0.42585139059E+02  0.47787271909E+02  0.20000003942E+02 0.  0.
         12    1    1    2    0    0  0.69021040026E-01 -0.83740292729E+01  0.42585139059E+02  0.43400728091E+02  0.00000000000E+00 0. -1.
         11    1    3    3    0    0 -0.47970353061E+01  0.46034863940E+01 -0.10224497734E+02  0.12196064483E+02  0.51100000000E-03 0. -1.
        -11    1    3    3    0    0 -0.46612718671E+01  0.47646187996E+00 -0.13088592492E+02  0.13902004353E+02  0.51100000000E-03 0.  1.
        -12    1    3    3    0    0  0.93892861332E+01  0.32940809989E+01 -0.19272048833E+02  0.21689203073E+02  0.00000000000E+00 0.  1.
</event>
<event>
 7    1  0.7596051E-010  0.4778727E+02  0.7816164E-02  0.1312668E+00
        -11   -1    0    0    0    0  0.00000000000E+00  0.00000000000E+00  0.45593999997E+02  0.45594000000E+02  0.51100000000E-03 0. -1.
         11   -1    0    0    0    0 -0.00000000000E+00 -0.00000000000E+00 -0.45593999997E+02  0.45594000000E+02  0.51100000000E-03 0.  1.
    9900012    2    1    2    0    0 -0.12777574001E+02  0.11722394374E+02 -0.39786204736E+02  0.47787274033E+02  0.20000013626E+02 0.  0.
         12    1    1    2    0    0  0.12777574001E+02 -0.11722394374E+02  0.39786204736E+02  0.43400725967E+02  0.00000000000E+00 0. -1.
         11    1    3    3    0    0 -0.86558589175E+00 -0.47616524873E+01 -0.42511574735E+01  0.64416545601E+01  0.51100000000E-03 0. -1.
        -11    1    3    3    0    0  0.18908131224E+00  0.28028956671E+01 -0.58877095282E+01  0.65235802757E+01  0.51100000000E-03 0.  1.
        -12    1    3    3    0    0 -0.12101069421E+02  0.13681151195E+02 -0.29647337734E+02  0.34822039197E+02  0.00000000000E+00 0.  1.
</event>
<event>
 7    1  0.7596051E-010  0.4778727E+02  0.7816164E-02  0.1312668E+00
        -11   -1    0    0    0    0  0.00000000000E+00  0.00000000000E+00  0.45593999997E+02  0.45594000000E+02  0.51100000000E-03 0.  1.
         11   -1    0    0    0    0 -0.00000000000E+00 -0.00000000000E+00 -0.45593999997E+02  0.45594000000E+02  0.51100000000E-03 0. -1.
    9900012    2    1    2    0    0 -0.24968992568E+02 -0.34940078997E+02  0.62740506330E+01  0.47787269343E+02  0.19999992243E+02 0.  0.
        -12    1    1    2    0    0  0.24968992568E+02  0.34940078997E+02 -0.62740506330E+01  0.43400730657E+02  0.00000000000E+00 0.  1.
         11    1    3    3    0    0 -0.16214620635E+02 -0.24221732759E+02  0.95719534919E+01  0.30679448399E+02  0.51100000000E-03 0. -1.
        -11    1    3    3    0    0 -0.44681847997E+01 -0.24320097209E+01  0.29491026715E+01  0.58801831192E+01  0.51100000000E-03 0.  1.
        -12    1    3    3    0    0 -0.42861871332E+01 -0.82863365174E+01 -0.62470055304E+01  0.11227637825E+02  0.00000000000E+00 0.  1.
</event>
<event>
 7    1  0.1158445E-009  0.4778727E+02  0.7816164E-02  0.1312668E+00
        -11   -1    0    0    0    0  0.00000000000E+00  0.00000000000E+00  0.45593999997E+02  0.45594000000E+02  0.51100000000E-03 0. -1.
         11   -1    0    0    0    0 -0.00000000000E+00 -0.00000000000E+00 -0.45593999997E+02  0.45594000000E+02  0.51100000000E-03 0.  1.
    9900012    2    1    2    0    0 -0.28123958415E+02 -0.12724772821E+02  0.30508137426E+02  0.47787270404E+02  0.19999997079E+02 0.  0.
        -12    1    1    2    0    0  0.28123958415E+02  0.12724772821E+02 -0.30508137426E+02  0.43400729596E+02  0.00000000000E+00 0.  1.
         11    1    3    3    0    0 -0.29596173680E+00 -0.42009353996E+01  0.67794948018E+01  0.79810401334E+01  0.51100000000E-03 0. -1.
        -11    1    3    3    0    0 -0.21938046969E+01 -0.11190970399E+00  0.85974484507E+01  0.88736363997E+01  0.51100000000E-03 0.  1.
         12    1    3    3    0    0 -0.25634191981E+02 -0.84119277174E+01  0.15131194174E+02  0.30932593871E+02  0.00000000000E+00 0. -1.
</event>
<event>
 7    1  0.8349319E-010  0.4778728E+02  0.7816164E-02  0.1312668E+00
        -11   -1    0    0    0    0  0.00000000000E+00  0.00000000000E+00  0.45593999997E+02  0.45594000000E+02  0.51100000000E-03 0. -1.
         11   -1    0    0    0    0 -0.00000000000E+00 -0.00000000000E+00 -0.45593999997E+02  0.45594000000E+02  0.51100000000E-03 0.  1.
    9900012    2    1    2    0    0  0.32154943514E+02  0.22874861139E+02  0.18067186022E+02  0.47787275637E+02  0.20000020939E+02 0.  0.
        -12    1    1    2    0    0 -0.32154943514E+02 -0.22874861139E+02 -0.18067186022E+02  0.43400724363E+02  0.00000000000E+00 0.  1.
         11    1    3    3    0    0 -0.13365412443E+01  0.32396366325E+00 -0.37968937436E-01  0.13757677326E+01  0.51100000000E-03 0. -1.
        -11    1    3    3    0    0  0.13495152877E+02  0.13055581620E+01  0.56265027189E+01  0.14679276766E+02  0.51100000000E-03 0.  1.
         12    1    3    3    0    0  0.19996331882E+02  0.21245339313E+02  0.12478652240E+02  0.31732231138E+02  0.00000000000E+00 0. -1.
</event>
<event>
 7    1  0.7596051E-010  0.4778727E+02  0.7816164E-02  0.1312668E+00
        -11   -1    0    0    0    0  0.00000000000E+00  0.00000000000E+00  0.45593999997E+02  0.45594000000E+02  0.51100000000E-03 0. -1.
         11   -1    0    0    0    0 -0.00000000000E+00 -0.00000000000E+00 -0.45593999997E+02  0.45594000000E+02  0.51100000000E-03 0.  1.
    9900012    2    1    2    0    0 -0.30669954238E+02 -0.76246612569E+01  0.29746293223E+02  0.47787268293E+02  0.19999987453E+02 0.  0.
        -12    1    1    2    0    0  0.30669954238E+02  0.76246612569E+01 -0.29746293223E+02  0.43400731707E+02  0.00000000000E+00 0.  1.
         11    1    3    3    0    0 -0.70302670729E+01 -0.27476022720E+01  0.18385291522E+02  0.19874428746E+02  0.51100000000E-03 0. -1.
        -11    1    3    3    0    0 -0.79956376680E+01 -0.25923873912E+01  0.82931884225E+01  0.11807949381E+02  0.51100000000E-03 0.  1.
        -12    1    3    3    0    0 -0.15644049497E+02 -0.22846715937E+01  0.30678132787E+01  0.16104890166E+02  0.00000000000E+00 0.  1.
</event>
<event>
 7    1  0.7596051E-010  0.4778727E+02  0.7816164E-02  0.1312668E+00
        -11   -1    0    0    0    0  0.00000000000E+00  0.00000000000E+00  0.45593999997E+02  0.45594000000E+02  0.51100000000E-03 0. -1.
         11   -1    0    0    0    0 -0.00000000000E+00 -0.00000000000E+00 -0.45593999997E+02  0.45594000000E+02  0.51100000000E-03 0.  1.
    9900012    2    1    2    0    0  0.10006103599E+02 -0.25507139801E+01 -0.42154422594E+02  0.47787267342E+02  0.19999983119E+02 0.  0.
         12    1    1    2    0    0 -0.10006103599E+02  0.25507139801E+01  0.42154422594E+02  0.43400732658E+02  0.00000000000E+00 0. -1.
         11    1    3    3    0    0  0.21763419782E+01 -0.18140328759E+01  0.12475729671E+00  0.28359732588E+01  0.51100000000E-03 0. -1.
        -11    1    3    3    0    0  0.12969339772E+01 -0.29191147348E+01 -0.13857941317E+01  0.34819095642E+01  0.51100000000E-03 0.  1.
        -12    1    3    3    0    0  0.65328276436E+01  0.21824336306E+01 -0.40893385759E+02  0.41469384519E+02  0.00000000000E+00 0.  1.
</event>
<event>
 7    1  0.7596051E-010  0.4778729E+02  0.7816164E-02  0.1312668E+00
        -11   -1    0    0    0    0  0.00000000000E+00  0.00000000000E+00  0.45593999997E+02  0.45594000000E+02  0.51100000000E-03 0. -1.
         11   -1    0    0    0    0 -0.00000000000E+00 -0.00000000000E+00 -0.45593999997E+02  0.45594000000E+02  0.51100000000E-03 0.  1.
    9900012    2    1    2    0    0  0.24095038889E+02  0.20855894045E+02 -0.29463235039E+02  0.47787292236E+02  0.20000096619E+02 0.  0.
         12    1    1    2    0    0 -0.24095038889E+02 -0.20855894045E+02  0.29463235039E+02  0.43400707764E+02  0.00000000000E+00 0. -1.
         11    1    3    3    0    0  0.16343230528E+02  0.14031942253E+02 -0.20198293406E+02  0.29529098264E+02  0.51100000000E-03 0.  1.
        -11    1    3    3    0    0  0.69760138730E+01  0.10148505460E+02 -0.70814501545E+01  0.14205768870E+02  0.51100000000E-03 0. -1.
         12    1    3    3    0    0  0.77579448869E+00 -0.33245536676E+01 -0.21834914778E+01  0.40524251025E+01  0.00000000000E+00 0. -1.
</event>
<event>
 7    1  0.7596051E-010  0.4778727E+02  0.7816164E-02  0.1312668E+00
        -11   -1    0    0    0    0  0.00000000000E+00  0.00000000000E+00  0.45593999997E+02  0.45594000000E+02  0.51100000000E-03 0.  1.
         11   -1    0    0    0    0 -0.00000000000E+00 -0.00000000000E+00 -0.45593999997E+02  0.45594000000E+02  0.51100000000E-03 0. -1.
    9900012    2    1    2    0    0 -0.67915524878E+01 -0.42668971456E+02 -0.41057102816E+01  0.47787272273E+02  0.20000005604E+02 0.  0.
        -12    1    1    2    0    0  0.67915524878E+01  0.42668971456E+02  0.41057102816E+01  0.43400727727E+02  0.00000000000E+00 0.  1.
         11    1    3    3    0    0  0.19444633313E+01 -0.37519755168E+01 -0.29461050126E+01  0.51514845367E+01  0.51100000000E-03 0. -1.
        -11    1    3    3    0    0  0.15855108848E+01 -0.12052951506E+02  0.51016950420E+01  0.13183883242E+02  0.51100000000E-03 0.  1.
        -12    1    3    3    0    0 -0.10321526704E+02 -0.26864044433E+02 -0.62613003110E+01  0.29451904495E+02  0.00000000000E+00 0.  1.
</event>
<event>
 7    1  0.1004256E-009  0.4778730E+02  0.7816164E-02  0.1312668E+00
        -11   -1    0    0    0    0  0.00000000000E+00  0.00000000000E+00  0.45593999997E+02  0.45594000000E+02  0.51100000000E-03 0. -1.
         11   -1    0    0    0    0 -0.00000000000E+00 -0.00000000000E+00 -0.45593999997E+02  0.45594000000E+02  0.51100000000E-03 0.  1.
    9900012    2    1    2    0    0  0.17967207982E+02  0.11870475851E+02  0.37681456025E+02  0.47787298534E+02  0.20000125335E+02 0.  0.
        -12    1    1    2    0    0 -0.17967207982E+02 -0.11870475851E+02 -0.37681456025E+02  0.43400701466E+02  0.00000000000E+00 0.  1.
         11    1    3    3    0    0  0.63360738535E+01  0.47979408358E+01  0.23225168116E+02  0.24547392987E+02  0.51100000000E-03 0. -1.
        -11    1    3    3    0    0  0.68678357360E+00 -0.29869212592E+01  0.41174797324E+01  0.51329338485E+01  0.51100000000E-03 0.  1.
         12    1    3    3    0    0  0.10944350555E+02  0.10059456274E+02  0.10338808176E+02  0.18106971699E+02  0.00000000000E+00 0. -1.
</event>
<event>
 7    1  0.7596051E-010  0.4778727E+02  0.7816164E-02  0.1312668E+00
        -11   -1    0    0    0    0  0.00000000000E+00  0.00000000000E+00  0.45593999997E+02  0.45594000000E+02  0.51100000000E-03 0. -1.
         11   -1    0    0    0    0 -0.00000000000E+00 -0.00000000000E+00 -0.45593999997E+02  0.45594000000E+02  0.51100000000E-03 0.  1.
    9900012    2    1    2    0    0  0.30327507334E+02  0.18189726925E+02  0.25159480039E+02  0.47787270715E+02  0.19999998497E+02 0.  0.
        -12    1    1    2    0    0 -0.30327507334E+02 -0.18189726925E+02 -0.25159480039E+02  0.43400729285E+02  0.00000000000E+00 0.  1.
         11    1    3    3    0    0  0.10200079622E+02  0.39806709416E+01  0.43558037223E+01  0.11783903928E+02  0.51100000000E-03 0.  1.
        -11    1    3    3    0    0 -0.85509349780E+00 -0.12994068472E+01 -0.11256027977E+01  0.19200585835E+01  0.51100000000E-03 0. -1.
         12    1    3    3    0    0  0.20982521209E+02  0.15508462830E+02  0.21929279114E+02  0.34083308204E+02  0.00000000000E+00 0. -1.
</event>
<event>
 7    1  0.7596051E-010  0.4778727E+02  0.7816164E-02  0.1312668E+00
        -11   -1    0    0    0    0  0.00000000000E+00  0.00000000000E+00  0.45593999997E+02  0.45594000000E+02  0.51100000000E-03 0. -1.
         11   -1    0    0    0    0 -0.00000000000E+00 -0.00000000000E+00 -0.45593999997E+02  0.45594000000E+02  0.51100000000E-03 0.  1.
    9900012    2    1    2    0    0 -0.21987403416E+02 -0.63920974212E+00 -0.37413482424E+02  0.47787272297E+02  0.20000005709E+02 0.  0.
         12    1    1    2    0    0  0.21987403416E+02  0.63920974212E+00  0.37413482424E+02  0.43400727703E+02  0.00000000000E+00 0. -1.
         11    1    3    3    0    0 -0.68795595146E+01 -0.19211207325E+01 -0.19208149047E+02  0.20493219221E+02  0.51100000000E-03 0.  1.
        -11    1    3    3    0    0 -0.83255233066E+01 -0.39054306374E+01 -0.16033551430E+02  0.18483546697E+02  0.51100000000E-03 0. -1.
         12    1    3    3    0    0 -0.67823205948E+01  0.51873416278E+01 -0.21717819476E+01  0.88105063783E+01  0.00000000000E+00 0. -1.
</event>
<event>
 7    1  0.7596051E-010  0.4778726E+02  0.7816164E-02  0.1312668E+00
        -11   -1    0    0    0    0  0.00000000000E+00  0.00000000000E+00  0.45593999997E+02  0.45594000000E+02  0.51100000000E-03 0. -1.
         11   -1    0    0    0    0 -0.00000000000E+00 -0.00000000000E+00 -0.45593999997E+02  0.45594000000E+02  0.51100000000E-03 0.  1.
    9900012    2    1    2    0    0  0.78666167112E+01 -0.38707873054E+02  0.17984465481E+02  0.47787261602E+02  0.19999956949E+02 0.  0.
        -12    1    1    2    0    0 -0.78666167112E+01  0.38707873054E+02 -0.17984465481E+02  0.43400738398E+02  0.00000000000E+00 0.  1.
         11    1    3    3    0    0 -0.31994951728E+01 -0.11767300587E+01  0.29590105548E+01  0.45141119522E+01  0.51100000000E-03 0. -1.
        -11    1    3    3    0    0  0.46658797356E+01 -0.50208002003E+01 -0.88102236773E-01  0.68546794691E+01  0.51100000000E-03 0.  1.
         12    1    3    3    0    0  0.64002321485E+01 -0.32510342795E+02  0.15113557163E+02  0.36418470181E+02  0.00000000000E+00 0. -1.
</event>
<event>
 7    1  0.7596051E-010  0.4778728E+02  0.7816164E-02  0.1312668E+00
        -11   -1    0    0    0    0  0.00000000000E+00  0.00000000000E+00  0.45593999997E+02  0.45594000000E+02  0.51100000000E-03 0. -1.
         11   -1    0    0    0    0 -0.00000000000E+00 -0.00000000000E+00 -0.45593999997E+02  0.45594000000E+02  0.51100000000E-03 0.  1.
    9900012    2    1    2    0    0 -0.28372038993E+02 -0.26351459706E+02  0.19602317921E+02  0.47787275431E+02  0.20000020000E+02 0.  0.
        -12    1    1    2    0    0  0.28372038993E+02  0.26351459706E+02 -0.19602317921E+02  0.43400724569E+02  0.00000000000E+00 0.  1.
         11    1    3    3    0    0 -0.22065692124E+02 -0.24603025451E+02  0.18384001222E+02  0.37817656345E+02  0.51100000000E-03 0. -1.
        -11    1    3    3    0    0 -0.37759219950E+00 -0.18892702622E+01  0.31843254231E+01  0.37218069071E+01  0.51100000000E-03 0.  1.
         12    1    3    3    0    0 -0.59287546697E+01  0.14083600776E+00 -0.19660087241E+01  0.62478121785E+01  0.00000000000E+00 0. -1.
</event>
<event>
 7    1  0.7596051E-010  0.4778727E+02  0.7816164E-02  0.1312668E+00
        -11   -1    0    0    0    0  0.00000000000E+00  0.00000000000E+00  0.45593999997E+02  0.45594000000E+02  0.51100000000E-03 0. -1.
         11   -1    0    0    0    0 -0.00000000000E+00 -0.00000000000E+00 -0.45593999997E+02  0.45594000000E+02  0.51100000000E-03 0.  1.
    9900012    2    1    2    0    0 -0.26728505151E+02  0.17460845021E+02  0.29399482127E+02  0.47787266760E+02  0.19999980464E+02 0.  0.
        -12    1    1    2    0    0  0.26728505151E+02 -0.17460845021E+02 -0.29399482127E+02  0.43400733240E+02  0.00000000000E+00 0.  1.
         11    1    3    3    0    0 -0.91522825136E+01  0.88970998977E+01  0.12582278665E+02  0.17923068891E+02  0.51100000000E-03 0. -1.
        -11    1    3    3    0    0 -0.18693813005E+02  0.33255983808E+01  0.15035755566E+02  0.24219665459E+02  0.51100000000E-03 0.  1.
        -12    1    3    3    0    0  0.11175903668E+01  0.52381467423E+01  0.17814478965E+01  0.56445324102E+01  0.00000000000E+00 0.  1.
</event>
<event>
 7    1  0.7596051E-010  0.4778729E+02  0.7816164E-02  0.1312668E+00
        -11   -1    0    0    0    0  0.00000000000E+00  0.00000000000E+00  0.45593999997E+02  0.45594000000E+02  0.51100000000E-03 0. -1.
         11   -1    0    0    0    0 -0.00000000000E+00 -0.00000000000E+00 -0.45593999997E+02  0.45594000000E+02  0.51100000000E-03 0.  1.
    9900012    2    1    2    0    0 -0.35647399157E+02 -0.16463292943E+02 -0.18489027593E+02  0.47787294677E+02  0.20000107752E+02 0.  0.
         12    1    1    2    0    0  0.35647399157E+02  0.16463292943E+02  0.18489027593E+02  0.43400705323E+02  0.00000000000E+00 0. -1.
         11    1    3    3    0    0 -0.61674950171E+01 -0.28563019688E+00 -0.19441791472E+01  0.64729755300E+01  0.51100000000E-03 0. -1.
        -11    1    3    3    0    0 -0.28113357295E+02 -0.16543226647E+02 -0.19524176698E+02  0.38016216044E+02  0.51100000000E-03 0.  1.
         12    1    3    3    0    0 -0.13665468442E+01  0.36556390135E+00  0.29793282523E+01  0.32981031031E+01  0.00000000000E+00 0. -1.
</event>
<event>
 7    1  0.7596051E-010  0.4778727E+02  0.7816164E-02  0.1312668E+00
        -11   -1    0    0    0    0  0.00000000000E+00  0.00000000000E+00  0.45593999997E+02  0.45594000000E+02  0.51100000000E-03 0. -1.
         11   -1    0    0    0    0 -0.00000000000E+00 -0.00000000000E+00 -0.45593999997E+02  0.45594000000E+02  0.51100000000E-03 0.  1.
    9900012    2    1    2    0    0 -0.28611337162E+02  0.14855802035E+02 -0.29057181125E+02  0.47787271397E+02  0.20000001608E+02 0.  0.
         12    1    1    2    0    0  0.28611337162E+02 -0.14855802035E+02  0.29057181125E+02  0.43400728603E+02  0.00000000000E+00 0. -1.
         11    1    3    3    0    0 -0.25486275795E+02  0.71317190027E+01 -0.19064243488E+02  0.32616821578E+02  0.51100000000E-03 0.  1.
        -11    1    3    3    0    0 -0.20918859277E+01  0.50047163046E+00 -0.69307704563E+01  0.72568614405E+01  0.51100000000E-03 0. -1.
         12    1    3    3    0    0 -0.10331754393E+01  0.72236114020E+01 -0.30621671810E+01  0.79135883782E+01  0.00000000000E+00 0. -1.
</event>
<event>
 7    1  0.7596051E-010  0.4778728E+02  0.7816164E-02  0.1312668E+00
        -11   -1    0    0    0    0  0.00000000000E+00  0.00000000000E+00  0.45593999997E+02  0.45594000000E+02  0.51100000000E-03 0. -1.
         11   -1    0    0    0    0 -0.00000000000E+00 -0.00000000000E+00 -0.45593999997E+02  0.45594000000E+02  0.51100000000E-03 0.  1.
    9900012    2    1    2    0    0 -0.89894248413E+01 -0.13824564776E+02 -0.40145914789E+02  0.47787276222E+02  0.20000023605E+02 0.  0.
         12    1    1    2    0    0  0.89894248413E+01  0.13824564776E+02  0.40145914789E+02  0.43400723778E+02  0.00000000000E+00 0. -1.
         11    1    3    3    0    0  0.45150155456E+01 -0.98368502771E+01 -0.16127872110E+02  0.19423111177E+02  0.51100000000E-03 0. -1.
        -11    1    3    3    0    0 -0.50230708604E+01 -0.37412811709E+01 -0.13242494083E+02  0.14648961583E+02  0.51100000000E-03 0.  1.
         12    1    3    3    0    0 -0.84813695264E+01 -0.24643332773E+00 -0.10775548596E+02  0.13715203461E+02  0.00000000000E+00 0. -1.
</event>
<event>
 7    1  0.7596051E-010  0.4778727E+02  0.7816164E-02  0.1312668E+00
        -11   -1    0    0    0    0  0.00000000000E+00  0.00000000000E+00  0.45593999997E+02  0.45594000000E+02  0.51100000000E-03 0. -1.
         11   -1    0    0    0    0 -0.00000000000E+00 -0.00000000000E+00 -0.45593999997E+02  0.45594000000E+02  0.51100000000E-03 0.  1.
    9900012    2    1    2    0    0 -0.11621866337E+02  0.53815171319E+01 -0.41467995660E+02  0.47787272266E+02  0.20000005568E+02 0.  0.
         12    1    1    2    0    0  0.11621866337E+02 -0.53815171319E+01  0.41467995660E+02  0.43400727734E+02  0.00000000000E+00 0. -1.
         11    1    3    3    0    0 -0.83699834587E+01  0.16697658190E+01 -0.15778783949E+02  0.17939196308E+02  0.51100000000E-03 0.  1.
        -11    1    3    3    0    0 -0.30625493897E+01  0.81336200907E+01 -0.23190360241E+02  0.24765455637E+02  0.51100000000E-03 0. -1.
         12    1    3    3    0    0 -0.18933348828E+00 -0.44218687777E+01 -0.24988514701E+01  0.50826203210E+01  0.00000000000E+00 0. -1.
</event>
<event>
 7    1  0.7596051E-010  0.4778727E+02  0.7816164E-02  0.1312668E+00
        -11   -1    0    0    0    0  0.00000000000E+00  0.00000000000E+00  0.45593999997E+02  0.45594000000E+02  0.51100000000E-03 0. -1.
         11   -1    0    0    0    0 -0.00000000000E+00 -0.00000000000E+00 -0.45593999997E+02  0.45594000000E+02  0.51100000000E-03 0.  1.
    9900012    2    1    2    0    0 -0.13824424868E+02 -0.39297537152E+02 -0.12174247141E+02  0.47787269100E+02  0.19999991136E+02 0.  0.
         12    1    1    2    0    0  0.13824424868E+02  0.39297537152E+02  0.12174247141E+02  0.43400730900E+02  0.00000000000E+00 0. -1.
         11    1    3    3    0    0  0.81297061423E+00 -0.34070110896E+01  0.29996318930E+00  0.35154834604E+01  0.51100000000E-03 0. -1.
        -11    1    3    3    0    0  0.40279376406E+01 -0.61315563771E+01 -0.17338313113E+01  0.75383311494E+01  0.51100000000E-03 0.  1.
        -12    1    3    3    0    0 -0.18665333123E+02 -0.29758969686E+02 -0.10740379019E+02  0.36733454491E+02  0.00000000000E+00 0.  1.
</event>
<event>
 7    1  0.7596051E-010  0.4778727E+02  0.7816164E-02  0.1312668E+00
        -11   -1    0    0    0    0  0.00000000000E+00  0.00000000000E+00  0.45593999997E+02  0.45594000000E+02  0.51100000000E-03 0. -1.
         11   -1    0    0    0    0 -0.00000000000E+00 -0.00000000000E+00 -0.45593999997E+02  0.45594000000E+02  0.51100000000E-03 0.  1.
    9900012    2    1    2    0    0  0.22825581402E+02 -0.89493035290E+01 -0.35812378227E+02  0.47787266892E+02  0.19999981067E+02 0.  0.
         12    1    1    2    0    0 -0.22825581402E+02  0.89493035290E+01  0.35812378227E+02  0.43400733108E+02  0.00000000000E+00 0. -1.
         11    1    3    3    0    0  0.13899863954E+02  0.12025046238E+01 -0.14473262409E+02  0.20102924174E+02  0.51100000000E-03 0. -1.
        -11    1    3    3    0    0 -0.76267563840E+00  0.10354804780E+01 -0.68621383655E+01  0.69816070613E+01  0.51100000000E-03 0.  1.
         12    1    3    3    0    0  0.96883930865E+01 -0.11187288631E+02 -0.14476977453E+02  0.20702735657E+02  0.00000000000E+00 0. -1.
</event>
<event>
 7    1  0.7596051E-010  0.4778727E+02  0.7816164E-02  0.1312668E+00
        -11   -1    0    0    0    0  0.00000000000E+00  0.00000000000E+00  0.45593999997E+02  0.45594000000E+02  0.51100000000E-03 0. -1.
         11   -1    0    0    0    0 -0.00000000000E+00 -0.00000000000E+00 -0.45593999997E+02  0.45594000000E+02  0.51100000000E-03 0.  1.
    9900012    2    1    2    0    0 -0.15250932595E+02  0.30500683652E+02 -0.26846614330E+02  0.47787270176E+02  0.19999996041E+02 0.  0.
         12    1    1    2    0    0  0.15250932595E+02 -0.30500683652E+02  0.26846614330E+02  0.43400729824E+02  0.00000000000E+00 0. -1.
         11    1    3    3    0    0 -0.37475163249E+01  0.39065058324E+01 -0.12348843005E+02  0.13483270755E+02  0.51100000000E-03 0.  1.
        -11    1    3    3    0    0 -0.22298547293E+01 -0.61185339557E+00 -0.15182029134E+01  0.27661447971E+01  0.51100000000E-03 0. -1.
         12    1    3    3    0    0 -0.92735615411E+01  0.27206031215E+02 -0.12979568411E+02  0.31537854624E+02  0.00000000000E+00 0. -1.
</event>
<event>
 7    1  0.7596051E-010  0.4778728E+02  0.7816164E-02  0.1312668E+00
        -11   -1    0    0    0    0  0.00000000000E+00  0.00000000000E+00  0.45593999997E+02  0.45594000000E+02  0.51100000000E-03 0. -1.
         11   -1    0    0    0    0 -0.00000000000E+00 -0.00000000000E+00 -0.45593999997E+02  0.45594000000E+02  0.51100000000E-03 0.  1.
    9900012    2    1    2    0    0 -0.34536223553E+01  0.13141882168E+02 -0.41218753528E+02  0.47787283224E+02  0.20000055532E+02 0.  0.
         12    1    1    2    0    0  0.34536223553E+01 -0.13141882168E+02  0.41218753528E+02  0.43400716776E+02  0.00000000000E+00 0. -1.
         11    1    3    3    0    0 -0.52352534761E+01 -0.13258977601E+01 -0.71625256187E+01  0.89703766548E+01  0.51100000000E-03 0. -1.
        -11    1    3    3    0    0  0.72962891662E+00  0.20360110527E+01 -0.19610288670E+02  0.19729194645E+02  0.51100000000E-03 0.  1.
        -12    1    3    3    0    0  0.10520022042E+01  0.12431768875E+02 -0.14445939239E+02  0.19087711924E+02  0.00000000000E+00 0.  1.
</event>
<event>
 7    1  0.7596051E-010  0.4778727E+02  0.7816164E-02  0.1312668E+00
        -11   -1    0    0    0    0  0.00000000000E+00  0.00000000000E+00  0.45593999997E+02  0.45594000000E+02  0.51100000000E-03 0.  1.
         11   -1    0    0    0    0 -0.00000000000E+00 -0.00000000000E+00 -0.45593999997E+02  0.45594000000E+02  0.51100000000E-03 0. -1.
    9900012    2    1    2    0    0  0.35811369810E+02  0.11530109474E+02 -0.21638524049E+02  0.47787270108E+02  0.19999995730E+02 0.  0.
        -12    1    1    2    0    0 -0.35811369810E+02 -0.11530109474E+02  0.21638524049E+02  0.43400729892E+02  0.00000000000E+00 0.  1.
         11    1    3    3    0    0  0.13415187346E+02  0.11285619932E+02 -0.55705237586E+01  0.18394651505E+02  0.51100000000E-03 0.  1.
        -11    1    3    3    0    0  0.16871992262E+02  0.46576921084E+01 -0.10692573482E+02  0.20510712972E+02  0.51100000000E-03 0. -1.
        -12    1    3    3    0    0  0.55241902014E+01 -0.44132025660E+01 -0.53754268086E+01  0.88819056314E+01  0.00000000000E+00 0.  1.
</event>
<event>
 7    1  0.7596051E-010  0.4778727E+02  0.7816164E-02  0.1312668E+00
        -11   -1    0    0    0    0  0.00000000000E+00  0.00000000000E+00  0.45593999997E+02  0.45594000000E+02  0.51100000000E-03 0. -1.
         11   -1    0    0    0    0 -0.00000000000E+00 -0.00000000000E+00 -0.45593999997E+02  0.45594000000E+02  0.51100000000E-03 0.  1.
    9900012    2    1    2    0    0 -0.19044144168E+02  0.37911823919E+02  0.91453556408E+01  0.47787270170E+02  0.19999996011E+02 0.  0.
        -12    1    1    2    0    0  0.19044144168E+02 -0.37911823919E+02 -0.91453556408E+01  0.43400729830E+02  0.00000000000E+00 0.  1.
         11    1    3    3    0    0 -0.99007475223E+01  0.62118565854E+01  0.60785310991E+01  0.13174236385E+02  0.51100000000E-03 0. -1.
        -11    1    3    3    0    0  0.96151514311E+00  0.21714783007E+01 -0.18605077944E+01  0.30168392226E+01  0.51100000000E-03 0.  1.
         12    1    3    3    0    0 -0.10104911789E+02  0.29528489033E+02  0.49273323361E+01  0.31596194562E+02  0.00000000000E+00 0. -1.
</event>
<event>
 7    1  0.8108297E-010  0.4778727E+02  0.7816164E-02  0.1312668E+00
        -11   -1    0    0    0    0  0.00000000000E+00  0.00000000000E+00  0.45593999997E+02  0.45594000000E+02  0.51100000000E-03 0. -1.
         11   -1    0    0    0    0 -0.00000000000E+00 -0.00000000000E+00 -0.45593999997E+02  0.45594000000E+02  0.51100000000E-03 0.  1.
    9900012    2    1    2    0    0  0.14378157884E+02  0.96766548736E+01  0.39790128281E+02  0.47787269795E+02  0.19999994305E+02 0.  0.
        -12    1    1    2    0    0 -0.14378157884E+02 -0.96766548736E+01 -0.39790128281E+02  0.43400730205E+02  0.00000000000E+00 0.  1.
         11    1    3    3    0    0  0.58285812938E+01  0.44024211919E+01  0.95346215201E+01  0.12010940015E+02  0.51100000000E-03 0. -1.
        -11    1    3    3    0    0  0.10697102243E+02  0.91392867956E+00  0.91127910196E+01  0.14082124217E+02  0.51100000000E-03 0.  1.
         12    1    3    3    0    0 -0.21475256524E+01  0.43603050021E+01  0.21142715741E+02  0.21694205564E+02  0.00000000000E+00 0. -1.
</event>
<event>
 7    1  0.7879651E-010  0.4778727E+02  0.7816164E-02  0.1312668E+00
        -11   -1    0    0    0    0  0.00000000000E+00  0.00000000000E+00  0.45593999997E+02  0.45594000000E+02  0.51100000000E-03 0. -1.
         11   -1    0    0    0    0 -0.00000000000E+00 -0.00000000000E+00 -0.45593999997E+02  0.45594000000E+02  0.51100000000E-03 0.  1.
    9900012    2    1    2    0    0 -0.17092033488E+02 -0.21979240950E+02  0.33292624383E+02  0.47787268673E+02  0.19999989186E+02 0.  0.
        -12    1    1    2    0    0  0.17092033488E+02  0.21979240950E+02 -0.33292624383E+02  0.43400731327E+02  0.00000000000E+00 0.  1.
         11    1    3    3    0    0 -0.18538140668E+01 -0.77003999517E+01  0.29969487464E+01  0.84684407101E+01  0.51100000000E-03 0. -1.
        -11    1    3    3    0    0  0.21115098675E+01 -0.43094139446E+01  0.38294438934E+01  0.61395572528E+01  0.51100000000E-03 0.  1.
         12    1    3    3    0    0 -0.17349729289E+02 -0.99694270532E+01  0.26466231743E+02  0.33179270710E+02  0.00000000000E+00 0. -1.
</event>
<event>
 7    1  0.7596051E-010  0.4778727E+02  0.7816164E-02  0.1312668E+00
        -11   -1    0    0    0    0  0.00000000000E+00  0.00000000000E+00  0.45593999997E+02  0.45594000000E+02  0.51100000000E-03 0.  1.
         11   -1    0    0    0    0 -0.00000000000E+00 -0.00000000000E+00 -0.45593999997E+02  0.45594000000E+02  0.51100000000E-03 0. -1.
    9900012    2    1    2    0    0  0.23144959922E+02 -0.31742298927E+02 -0.18448867218E+02  0.47787269447E+02  0.19999992715E+02 0.  0.
        -12    1    1    2    0    0 -0.23144959922E+02  0.31742298927E+02  0.18448867218E+02  0.43400730553E+02  0.00000000000E+00 0.  1.
         11    1    3    3    0    0 -0.92081502396E+00 -0.19136123338E+00 -0.10438665327E+01  0.14050541018E+01  0.51100000000E-03 0. -1.
        -11    1    3    3    0    0  0.63468489504E+00 -0.12973472430E+02 -0.67520759486E+01  0.14639137327E+02  0.51100000000E-03 0.  1.
         12    1    3    3    0    0  0.23431090051E+02 -0.18577465264E+02 -0.10652924737E+02  0.31743078017E+02  0.00000000000E+00 0. -1.
</event>
<event>
 7    1  0.7596051E-010  0.4778727E+02  0.7816164E-02  0.1312668E+00
        -11   -1    0    0    0    0  0.00000000000E+00  0.00000000000E+00  0.45593999997E+02  0.45594000000E+02  0.51100000000E-03 0. -1.
         11   -1    0    0    0    0 -0.00000000000E+00 -0.00000000000E+00 -0.45593999997E+02  0.45594000000E+02  0.51100000000E-03 0.  1.
    9900012    2    1    2    0    0 -0.70510904955E+01 -0.26214378501E+02  0.33863132395E+02  0.47787271285E+02  0.20000001096E+02 0.  0.
        -12    1    1    2    0    0  0.70510904955E+01  0.26214378501E+02 -0.33863132395E+02  0.43400728715E+02  0.00000000000E+00 0.  1.
         11    1    3    3    0    0 -0.78939178171E+01 -0.36308095283E+01  0.17067406130E+02  0.19151842434E+02  0.51100000000E-03 0. -1.
        -11    1    3    3    0    0 -0.20610872768E+01 -0.57591043784E+01  0.42479461607E+01  0.74471746891E+01  0.51100000000E-03 0.  1.
         12    1    3    3    0    0  0.29039145984E+01 -0.16824464594E+02  0.12547780105E+02  0.21188254162E+02  0.00000000000E+00 0. -1.
</event>
<event>
 7    1  0.7596051E-010  0.4778727E+02  0.7816164E-02  0.1312668E+00
        -11   -1    0    0    0    0  0.00000000000E+00  0.00000000000E+00  0.45593999997E+02  0.45594000000E+02  0.51100000000E-03 0. -1.
         11   -1    0    0    0    0 -0.00000000000E+00 -0.00000000000E+00 -0.45593999997E+02  0.45594000000E+02  0.51100000000E-03 0.  1.
    9900012    2    1    2    0    0 -0.28857196381E+02  0.31977934620E+02  0.53194917648E+01  0.47787273299E+02  0.20000010280E+02 0.  0.
        -12    1    1    2    0    0  0.28857196381E+02 -0.31977934620E+02 -0.53194917648E+01  0.43400726701E+02  0.00000000000E+00 0.  1.
         11    1    3    3    0    0 -0.16618692613E+02  0.22773943398E+02  0.52718789963E+01  0.28681460048E+02  0.51100000000E-03 0. -1.
        -11    1    3    3    0    0 -0.28449164125E+01  0.39342047058E+01  0.52445353136E+01  0.71467941749E+01  0.51100000000E-03 0.  1.
         12    1    3    3    0    0 -0.93935873551E+01  0.52697865159E+01 -0.51969225452E+01  0.11959019076E+02  0.00000000000E+00 0. -1.
</event>
<event>
 7    1  0.7914821E-010  0.4778727E+02  0.7816164E-02  0.1312668E+00
        -11   -1    0    0    0    0  0.00000000000E+00  0.00000000000E+00  0.45593999997E+02  0.45594000000E+02  0.51100000000E-03 0. -1.
         11   -1    0    0    0    0 -0.00000000000E+00 -0.00000000000E+00 -0.45593999997E+02  0.45594000000E+02  0.51100000000E-03 0.  1.
    9900012    2    1    2    0    0  0.90951489868E+01  0.23055160696E+01  0.42374356830E+02  0.47787271248E+02  0.20000000927E+02 0.  0.
        -12    1    1    2    0    0 -0.90951489868E+01 -0.23055160696E+01 -0.42374356830E+02  0.43400728752E+02  0.00000000000E+00 0.  1.
         11    1    3    3    0    0  0.16630188488E+01 -0.66887558923E+00 -0.92746111344E+00  0.20182196668E+01  0.51100000000E-03 0. -1.
        -11    1    3    3    0    0  0.62891180569E+01  0.53049803757E+01  0.13191657762E+02  0.15547207385E+02  0.51100000000E-03 0.  1.
         12    1    3    3    0    0  0.11430120811E+01 -0.23305887168E+01  0.30110160182E+02  0.30221844195E+02  0.00000000000E+00 0. -1.
</event>
<event>
 7    1  0.7596051E-010  0.4778730E+02  0.7816164E-02  0.1312668E+00
        -11   -1    0    0    0    0  0.00000000000E+00  0.00000000000E+00  0.45593999997E+02  0.45594000000E+02  0.51100000000E-03 0. -1.
         11   -1    0    0    0    0 -0.00000000000E+00 -0.00000000000E+00 -0.45593999997E+02  0.45594000000E+02  0.51100000000E-03 0.  1.
    9900012    2    1    2    0    0  0.21597216665E+02 -0.19132888149E+02  0.32420875697E+02  0.47787304641E+02  0.20000153181E+02 0.  0.
        -12    1    1    2    0    0 -0.21597216665E+02  0.19132888149E+02 -0.32420875697E+02  0.43400695359E+02  0.00000000000E+00 0.  1.
         11    1    3    3    0    0  0.14807866937E+01 -0.89110869871E+01  0.14233856478E+02  0.16858317562E+02  0.51100000000E-03 0. -1.
        -11    1    3    3    0    0  0.74811776508E+01 -0.28024850976E+01  0.13240767316E+02  0.15464147605E+02  0.51100000000E-03 0.  1.
        -12    1    3    3    0    0  0.12635252321E+02 -0.74193160647E+01  0.49462519035E+01  0.15464839475E+02  0.00000000000E+00 0.  1.
</event>
<event>
 7    1  0.7596051E-010  0.4778729E+02  0.7816164E-02  0.1312668E+00
        -11   -1    0    0    0    0  0.00000000000E+00  0.00000000000E+00  0.45593999997E+02  0.45594000000E+02  0.51100000000E-03 0.  1.
         11   -1    0    0    0    0 -0.00000000000E+00 -0.00000000000E+00 -0.45593999997E+02  0.45594000000E+02  0.51100000000E-03 0. -1.
    9900012    2    1    2    0    0 -0.42356869161E+02  0.80171767040E+01  0.50241533817E+01  0.47787290275E+02  0.20000087678E+02 0.  0.
         12    1    1    2    0    0  0.42356869161E+02 -0.80171767040E+01 -0.50241533817E+01  0.43400709725E+02  0.00000000000E+00 0. -1.
         11    1    3    3    0    0 -0.23886307357E+02  0.81148920770E+01  0.56445622379E+01  0.25850884621E+02  0.51100000000E-03 0.  1.
        -11    1    3    3    0    0 -0.44830647308E+01  0.41791185196E+01  0.30649891857E+01  0.68525221598E+01  0.51100000000E-03 0. -1.
         12    1    3    3    0    0 -0.13987497074E+02 -0.42768338926E+01 -0.36853980419E+01  0.15083883494E+02  0.00000000000E+00 0. -1.
</event>
<event>
 7    1  0.7596051E-010  0.4778727E+02  0.7816164E-02  0.1312668E+00
        -11   -1    0    0    0    0  0.00000000000E+00  0.00000000000E+00  0.45593999997E+02  0.45594000000E+02  0.51100000000E-03 0. -1.
         11   -1    0    0    0    0 -0.00000000000E+00 -0.00000000000E+00 -0.45593999997E+02  0.45594000000E+02  0.51100000000E-03 0.  1.
    9900012    2    1    2    0    0 -0.27235963141E+01  0.44329356663E+01  0.43087753933E+02  0.47787269194E+02  0.19999991563E+02 0.  0.
        -12    1    1    2    0    0  0.27235963141E+01 -0.44329356663E+01 -0.43087753933E+02  0.43400730806E+02  0.00000000000E+00 0.  1.
         11    1    3    3    0    0 -0.38708394527E+01  0.30764359583E+01  0.35869016231E+01  0.61084957059E+01  0.51100000000E-03 0. -1.
        -11    1    3    3    0    0 -0.24012097655E+01  0.64598952938E+01  0.24238463901E+02  0.25199190226E+02  0.51100000000E-03 0.  1.
        -12    1    3    3    0    0  0.35484529042E+01 -0.51033955857E+01  0.15262388409E+02  0.16479583262E+02  0.00000000000E+00 0.  1.
</event>
<event>
 7    1  0.7596051E-010  0.4778727E+02  0.7816164E-02  0.1312668E+00
        -11   -1    0    0    0    0  0.00000000000E+00  0.00000000000E+00  0.45593999997E+02  0.45594000000E+02  0.51100000000E-03 0. -1.
         11   -1    0    0    0    0 -0.00000000000E+00 -0.00000000000E+00 -0.45593999997E+02  0.45594000000E+02  0.51100000000E-03 0.  1.
    9900012    2    1    2    0    0  0.15007520064E+02 -0.11973826788E+02  0.38923323080E+02  0.47787271135E+02  0.20000000413E+02 0.  0.
        -12    1    1    2    0    0 -0.15007520064E+02  0.11973826788E+02 -0.38923323080E+02  0.43400728865E+02  0.00000000000E+00 0.  1.
         11    1    3    3    0    0 -0.23334480570E+00 -0.14700104108E+01  0.14191870978E+02  0.14269708565E+02  0.51100000000E-03 0. -1.
        -11    1    3    3    0    0  0.11579613714E+02 -0.24000896457E+01  0.71606538209E+01  0.13824718712E+02  0.51100000000E-03 0.  1.
        -12    1    3    3    0    0  0.36612511560E+01 -0.81037267318E+01  0.17570798281E+02  0.19692843857E+02  0.00000000000E+00 0.  1.
</event>
<event>
 7    1  0.7596051E-010  0.4778727E+02  0.7816164E-02  0.1312668E+00
        -11   -1    0    0    0    0  0.00000000000E+00  0.00000000000E+00  0.45593999997E+02  0.45594000000E+02  0.51100000000E-03 0. -1.
         11   -1    0    0    0    0 -0.00000000000E+00 -0.00000000000E+00 -0.45593999997E+02  0.45594000000E+02  0.51100000000E-03 0.  1.
    9900012    2    1    2    0    0  0.36356185729E+02 -0.13964330102E+02 -0.19153292462E+02  0.47787269959E+02  0.19999995051E+02 0.  0.
         12    1    1    2    0    0 -0.36356185729E+02  0.13964330102E+02  0.19153292462E+02  0.43400730041E+02  0.00000000000E+00 0. -1.
         11    1    3    3    0    0  0.19221873251E+02 -0.38420966916E+01 -0.58685967785E+01  0.20461733716E+02  0.51100000000E-03 0.  1.
        -11    1    3    3    0    0  0.12999040066E+02 -0.83919952700E+00 -0.10653890872E+02  0.16828092270E+02  0.51100000000E-03 0. -1.
        -12    1    3    3    0    0  0.41352724119E+01 -0.92830338835E+01 -0.26308048116E+01  0.10497443973E+02  0.00000000000E+00 0.  1.
</event>
<event>
 7    1  0.7596051E-010  0.4778727E+02  0.7816164E-02  0.1312668E+00
        -11   -1    0    0    0    0  0.00000000000E+00  0.00000000000E+00  0.45593999997E+02  0.45594000000E+02  0.51100000000E-03 0. -1.
         11   -1    0    0    0    0 -0.00000000000E+00 -0.00000000000E+00 -0.45593999997E+02  0.45594000000E+02  0.51100000000E-03 0.  1.
    9900012    2    1    2    0    0 -0.13800123763E+02 -0.33576226122E+02 -0.23786904452E+02  0.47787271897E+02  0.20000003887E+02 0.  0.
         12    1    1    2    0    0  0.13800123763E+02  0.33576226122E+02  0.23786904452E+02  0.43400728103E+02  0.00000000000E+00 0. -1.
         11    1    3    3    0    0 -0.68152836053E+01 -0.35155911192E+01 -0.86116585836E+01  0.11531181005E+02  0.51100000000E-03 0. -1.
        -11    1    3    3    0    0 -0.91628955822E+01 -0.14080135327E+02 -0.77905869996E+01  0.18517616270E+02  0.51100000000E-03 0.  1.
        -12    1    3    3    0    0  0.21780554243E+01 -0.15980499676E+02 -0.73846588691E+01  0.17738474623E+02  0.00000000000E+00 0.  1.
</event>
<event>
 7    1  0.7596051E-010  0.4778727E+02  0.7816164E-02  0.1312668E+00
        -11   -1    0    0    0    0  0.00000000000E+00  0.00000000000E+00  0.45593999997E+02  0.45594000000E+02  0.51100000000E-03 0. -1.
         11   -1    0    0    0    0 -0.00000000000E+00 -0.00000000000E+00 -0.45593999997E+02  0.45594000000E+02  0.51100000000E-03 0.  1.
    9900012    2    1    2    0    0 -0.10657508182E+01 -0.25267686210E+02  0.35270831037E+02  0.47787270591E+02  0.19999997932E+02 0.  0.
        -12    1    1    2    0    0  0.10657508182E+01  0.25267686210E+02 -0.35270831037E+02  0.43400729409E+02  0.00000000000E+00 0.  1.
         11    1    3    3    0    0  0.57519583328E+01 -0.14989706669E+02  0.15476083336E+02  0.22299898797E+02  0.51100000000E-03 0. -1.
        -11    1    3    3    0    0  0.51553553688E+00 -0.83025439263E+00 -0.10630418036E+01  0.14440074043E+01  0.51100000000E-03 0.  1.
         12    1    3    3    0    0 -0.73332446878E+01 -0.94477251479E+01  0.20857789505E+02  0.24043364390E+02  0.00000000000E+00 0. -1.
</event>
<event>
 7    1  0.7596051E-010  0.4778726E+02  0.7816164E-02  0.1312668E+00
        -11   -1    0    0    0    0  0.00000000000E+00  0.00000000000E+00  0.45593999997E+02  0.45594000000E+02  0.51100000000E-03 0. -1.
         11   -1    0    0    0    0 -0.00000000000E+00 -0.00000000000E+00 -0.45593999997E+02  0.45594000000E+02  0.51100000000E-03 0.  1.
    9900012    2    1    2    0    0 -0.17288971259E+02  0.12328419028E+02  0.37851363948E+02  0.47787260425E+02  0.19999951582E+02 0.  0.
        -12    1    1    2    0    0  0.17288971259E+02 -0.12328419028E+02 -0.37851363948E+02  0.43400739575E+02  0.00000000000E+00 0.  1.
         11    1    3    3    0    0 -0.48518213394E+01 -0.10381973935E+01  0.96655078680E+00  0.50549228305E+01  0.51100000000E-03 0. -1.
        -11    1    3    3    0    0 -0.15397482076E+01 -0.29399040125E+00  0.13231827016E+02  0.13324357446E+02  0.51100000000E-03 0.  1.
         12    1    3    3    0    0 -0.10897401712E+02  0.13660606823E+02  0.23652986145E+02  0.29407980149E+02  0.00000000000E+00 0. -1.
</event>
<event>
 7    1  0.7596051E-010  0.4778727E+02  0.7816164E-02  0.1312668E+00
        -11   -1    0    0    0    0  0.00000000000E+00  0.00000000000E+00  0.45593999997E+02  0.45594000000E+02  0.51100000000E-03 0. -1.
         11   -1    0    0    0    0 -0.00000000000E+00 -0.00000000000E+00 -0.45593999997E+02  0.45594000000E+02  0.51100000000E-03 0.  1.
    9900012    2    1    2    0    0  0.36760711657E+02  0.13499342062E+02 -0.18709386127E+02  0.47787270894E+02  0.19999999315E+02 0.  0.
         12    1    1    2    0    0 -0.36760711657E+02 -0.13499342062E+02  0.18709386127E+02  0.43400729106E+02  0.00000000000E+00 0. -1.
         11    1    3    3    0    0  0.40237736866E+01  0.29268702722E+01  0.91131534632E-01  0.49765077604E+01  0.51100000000E-03 0.  1.
        -11    1    3    3    0    0  0.34520885716E+02  0.10417563578E+02 -0.19369877341E+02  0.40931764316E+02  0.51100000000E-03 0. -1.
         12    1    3    3    0    0 -0.17839477456E+01  0.15490821155E+00  0.56935967954E+00  0.18789988179E+01  0.00000000000E+00 0. -1.
</event>
<event>
 7    1  0.7596051E-010  0.4778727E+02  0.7816164E-02  0.1312668E+00
        -11   -1    0    0    0    0  0.00000000000E+00  0.00000000000E+00  0.45593999997E+02  0.45594000000E+02  0.51100000000E-03 0. -1.
         11   -1    0    0    0    0 -0.00000000000E+00 -0.00000000000E+00 -0.45593999997E+02  0.45594000000E+02  0.51100000000E-03 0.  1.
    9900012    2    1    2    0    0  0.10488725628E+02  0.31647463450E+02 -0.27785752378E+02  0.47787270245E+02  0.19999996354E+02 0.  0.
         12    1    1    2    0    0 -0.10488725628E+02 -0.31647463450E+02  0.27785752378E+02  0.43400729755E+02  0.00000000000E+00 0. -1.
         11    1    3    3    0    0  0.86442802345E+01  0.18345554051E+02 -0.17491580334E+02  0.26781305365E+02  0.51100000000E-03 0. -1.
        -11    1    3    3    0    0  0.35950896718E+01  0.14568797222E+02 -0.59280234652E+01  0.16134310792E+02  0.51100000000E-03 0.  1.
         12    1    3    3    0    0 -0.17506442782E+01 -0.12668878236E+01 -0.43661485783E+01  0.48716540881E+01  0.00000000000E+00 0. -1.
</event>
<event>
 7    1  0.7596051E-010  0.4778727E+02  0.7816164E-02  0.1312668E+00
        -11   -1    0    0    0    0  0.00000000000E+00  0.00000000000E+00  0.45593999997E+02  0.45594000000E+02  0.51100000000E-03 0. -1.
         11   -1    0    0    0    0 -0.00000000000E+00 -0.00000000000E+00 -0.45593999997E+02  0.45594000000E+02  0.51100000000E-03 0.  1.
    9900012    2    1    2    0    0 -0.19575654639E+02  0.36001417304E+02 -0.14293876897E+02  0.47787271675E+02  0.20000002874E+02 0.  0.
         12    1    1    2    0    0  0.19575654639E+02 -0.36001417304E+02  0.14293876897E+02  0.43400728325E+02  0.00000000000E+00 0. -1.
         11    1    3    3    0    0 -0.16391087672E+02  0.19039885276E+02 -0.10254136698E+02  0.27135443724E+02  0.51100000000E-03 0.  1.
        -11    1    3    3    0    0 -0.27792019370E+01  0.82477315114E-01  0.11193460109E+01  0.29972823803E+01  0.51100000000E-03 0. -1.
        -12    1    3    3    0    0 -0.40536502943E+00  0.16879054712E+02 -0.51590862107E+01  0.17654545571E+02  0.00000000000E+00 0.  1.
</event>
<event>
 7    1  0.7596051E-010  0.4778727E+02  0.7816164E-02  0.1312668E+00
        -11   -1    0    0    0    0  0.00000000000E+00  0.00000000000E+00  0.45593999997E+02  0.45594000000E+02  0.51100000000E-03 0. -1.
         11   -1    0    0    0    0 -0.00000000000E+00 -0.00000000000E+00 -0.45593999997E+02  0.45594000000E+02  0.51100000000E-03 0.  1.
    9900012    2    1    2    0    0  0.38247374207E+02 -0.80038341536E+01  0.18886519122E+02  0.47787267293E+02  0.19999982898E+02 0.  0.
        -12    1    1    2    0    0 -0.38247374207E+02  0.80038341536E+01 -0.18886519122E+02  0.43400732707E+02  0.00000000000E+00 0.  1.
         11    1    3    3    0    0  0.11839649476E+02 -0.69697295805E+01  0.15292377456E+02  0.20557510517E+02  0.51100000000E-03 0. -1.
        -11    1    3    3    0    0  0.65899585862E+01  0.38539658084E+00  0.32508127292E+01  0.73582517185E+01  0.51100000000E-03 0.  1.
        -12    1    3    3    0    0  0.19817766145E+02 -0.14195011540E+01  0.34332893704E+00  0.19871505058E+02  0.00000000000E+00 0.  1.
</event>
<event>
 7    1  0.7596051E-010  0.4778727E+02  0.7816164E-02  0.1312668E+00
        -11   -1    0    0    0    0  0.00000000000E+00  0.00000000000E+00  0.45593999997E+02  0.45594000000E+02  0.51100000000E-03 0. -1.
         11   -1    0    0    0    0 -0.00000000000E+00 -0.00000000000E+00 -0.45593999997E+02  0.45594000000E+02  0.51100000000E-03 0.  1.
    9900012    2    1    2    0    0 -0.10828276780E+00  0.15677509266E+02 -0.40470078063E+02  0.47787271431E+02  0.20000001761E+02 0.  0.
         12    1    1    2    0    0  0.10828276780E+00 -0.15677509266E+02  0.40470078063E+02  0.43400728569E+02  0.00000000000E+00 0. -1.
         11    1    3    3    0    0  0.45737980875E+01  0.22492911801E+01 -0.92360027361E+01  0.10549060933E+02  0.51100000000E-03 0.  1.
        -11    1    3    3    0    0  0.52737394653E+00  0.77876583776E+01 -0.36709783139E+01  0.86256494438E+01  0.51100000000E-03 0. -1.
         12    1    3    3    0    0 -0.52094548018E+01  0.56405597083E+01 -0.27563097013E+02  0.28612561054E+02  0.00000000000E+00 0. -1.
</event>
<event>
 7    1  0.7596051E-010  0.4778726E+02  0.7816164E-02  0.1312668E+00
        -11   -1    0    0    0    0  0.00000000000E+00  0.00000000000E+00  0.45593999997E+02  0.45594000000E+02  0.51100000000E-03 0. -1.
         11   -1    0    0    0    0 -0.00000000000E+00 -0.00000000000E+00 -0.45593999997E+02  0.45594000000E+02  0.51100000000E-03 0.  1.
    9900012    2    1    2    0    0  0.14122033122E+02 -0.60000550772E+01 -0.40597924451E+02  0.47787263254E+02  0.19999964479E+02 0.  0.
         12    1    1    2    0    0 -0.14122033122E+02  0.60000550772E+01  0.40597924451E+02  0.43400736746E+02  0.00000000000E+00 0. -1.
         11    1    3    3    0    0  0.10778127564E+02  0.27256215244E+01 -0.20280564598E+02  0.23127869490E+02  0.51100000000E-03 0. -1.
        -11    1    3    3    0    0  0.57122172587E+01 -0.82839880198E+01 -0.19777998674E+02  0.22190608719E+02  0.51100000000E-03 0.  1.
        -12    1    3    3    0    0 -0.23683117008E+01 -0.44168858179E+00 -0.53936117885E+00  0.24687850447E+01  0.00000000000E+00 0.  1.
</event>
<event>
 7    1  0.7596051E-010  0.4778727E+02  0.7816164E-02  0.1312668E+00
        -11   -1    0    0    0    0  0.00000000000E+00  0.00000000000E+00  0.45593999997E+02  0.45594000000E+02  0.51100000000E-03 0.  1.
         11   -1    0    0    0    0 -0.00000000000E+00 -0.00000000000E+00 -0.45593999997E+02  0.45594000000E+02  0.51100000000E-03 0. -1.
    9900012    2    1    2    0    0 -0.14282958534E+02 -0.40921855800E+02 -0.22410159797E+01  0.47787270291E+02  0.19999996566E+02 0.  0.
        -12    1    1    2    0    0  0.14282958534E+02  0.40921855800E+02  0.22410159797E+01  0.43400729709E+02  0.00000000000E+00 0.  1.
         11    1    3    3    0    0 -0.30421560083E+00 -0.15855822088E+02  0.30261714334E+01  0.16144886343E+02  0.51100000000E-03 0. -1.
        -11    1    3    3    0    0 -0.79253578854E+01 -0.72501576468E+01  0.29064131431E+01  0.11127592783E+02  0.51100000000E-03 0.  1.
         12    1    3    3    0    0 -0.60533850482E+01 -0.17815876066E+02 -0.81736005561E+01  0.20514791166E+02  0.00000000000E+00 0. -1.
</event>
<event>
 7    1  0.7596051E-010  0.4778727E+02  0.7816164E-02  0.1312668E+00
        -11   -1    0    0    0    0  0.00000000000E+00  0.00000000000E+00  0.45593999997E+02  0.45594000000E+02  0.51100000000E-03 0. -1.
         11   -1    0    0    0    0 -0.00000000000E+00 -0.00000000000E+00 -0.45593999997E+02  0.45594000000E+02  0.51100000000E-03 0.  1.
    9900012    2    1    2    0    0  0.32797553863E+02 -0.26236251353E+02  0.10936309577E+02  0.47787270840E+02  0.19999999068E+02 0.  0.
        -12    1    1    2    0    0 -0.32797553863E+02  0.26236251353E+02 -0.10936309577E+02  0.43400729160E+02  0.00000000000E+00 0.  1.
         11    1    3    3    0    0  0.12420892494E+01 -0.75801603748E+01  0.72788297181E+00  0.77156614034E+01  0.51100000000E-03 0.  1.
        -11    1    3    3    0    0  0.77534897738E+00 -0.38017719259E+01 -0.11661950473E+01  0.40514993475E+01  0.51100000000E-03 0. -1.
         12    1    3    3    0    0  0.30780115636E+02 -0.14854319053E+02  0.11374621652E+02  0.36020110089E+02  0.00000000000E+00 0. -1.
</event>
<event>
 7    1  0.7596051E-010  0.4778728E+02  0.7816164E-02  0.1312668E+00
        -11   -1    0    0    0    0  0.00000000000E+00  0.00000000000E+00  0.45593999997E+02  0.45594000000E+02  0.51100000000E-03 0. -1.
         11   -1    0    0    0    0 -0.00000000000E+00 -0.00000000000E+00 -0.45593999997E+02  0.45594000000E+02  0.51100000000E-03 0.  1.
    9900012    2    1    2    0    0 -0.26413946240E+02 -0.18084743249E+02 -0.29306443379E+02  0.47787284362E+02  0.20000060719E+02 0.  0.
         12    1    1    2    0    0  0.26413946240E+02  0.18084743249E+02  0.29306443379E+02  0.43400715638E+02  0.00000000000E+00 0. -1.
         11    1    3    3    0    0  0.98504319061E+00  0.83675684472E+00 -0.89577174770E+00  0.15725391536E+01  0.51100000000E-03 0. -1.
        -11    1    3    3    0    0 -0.53091010525E+01 -0.42614735975E+01 -0.15068276200E+02  0.16534801453E+02  0.51100000000E-03 0.  1.
        -12    1    3    3    0    0 -0.22089888378E+02 -0.14660026496E+02 -0.13342395432E+02  0.29679943755E+02  0.00000000000E+00 0.  1.
</event>
<event>
 7    1  0.7596051E-010  0.4778727E+02  0.7816164E-02  0.1312668E+00
        -11   -1    0    0    0    0  0.00000000000E+00  0.00000000000E+00  0.45593999997E+02  0.45594000000E+02  0.51100000000E-03 0. -1.
         11   -1    0    0    0    0 -0.00000000000E+00 -0.00000000000E+00 -0.45593999997E+02  0.45594000000E+02  0.51100000000E-03 0.  1.
    9900012    2    1    2    0    0 -0.90843523960E+01 -0.12205122502E+02  0.40646436780E+02  0.47787270782E+02  0.19999998805E+02 0.  0.
        -12    1    1    2    0    0  0.90843523960E+01  0.12205122502E+02 -0.40646436780E+02  0.43400729218E+02  0.00000000000E+00 0.  1.
         11    1    3    3    0    0 -0.15540187083E+01 -0.22581853186E+01  0.12954221613E+02  0.13241081260E+02  0.51100000000E-03 0. -1.
        -11    1    3    3    0    0 -0.69228784258E+01 -0.32335187782E+01  0.26651899304E+02  0.27725541043E+02  0.51100000000E-03 0.  1.
         12    1    3    3    0    0 -0.60745526194E+00 -0.67134184051E+01  0.10403158627E+01  0.68206484788E+01  0.00000000000E+00 0. -1.
</event>
<event>
 7    1  0.7596051E-010  0.4778727E+02  0.7816164E-02  0.1312668E+00
        -11   -1    0    0    0    0  0.00000000000E+00  0.00000000000E+00  0.45593999997E+02  0.45594000000E+02  0.51100000000E-03 0. -1.
         11   -1    0    0    0    0 -0.00000000000E+00 -0.00000000000E+00 -0.45593999997E+02  0.45594000000E+02  0.51100000000E-03 0.  1.
    9900012    2    1    2    0    0 -0.20676453189E+02 -0.11233196577E+02 -0.36468108492E+02  0.47787270066E+02  0.19999995539E+02 0.  0.
         12    1    1    2    0    0  0.20676453189E+02  0.11233196577E+02  0.36468108492E+02  0.43400729934E+02  0.00000000000E+00 0. -1.
         11    1    3    3    0    0 -0.70759595811E+01  0.20435136907E+00 -0.26507883850E+01  0.75589445558E+01  0.51100000000E-03 0. -1.
        -11    1    3    3    0    0 -0.96345047191E+01 -0.13752304632E+01 -0.94352532630E+01  0.13555033914E+02  0.51100000000E-03 0.  1.
        -12    1    3    3    0    0 -0.39659888893E+01 -0.10062317483E+02 -0.24382066844E+02  0.26673291596E+02  0.00000000000E+00 0.  1.
</event>
<event>
 7    1  0.7596051E-010  0.4778726E+02  0.7816164E-02  0.1312668E+00
        -11   -1    0    0    0    0  0.00000000000E+00  0.00000000000E+00  0.45593999997E+02  0.45594000000E+02  0.51100000000E-03 0. -1.
         11   -1    0    0    0    0 -0.00000000000E+00 -0.00000000000E+00 -0.45593999997E+02  0.45594000000E+02  0.51100000000E-03 0.  1.
    9900012    2    1    2    0    0 -0.43677829221E+01 -0.37722672833E+02  0.21013002037E+02  0.47787264662E+02  0.19999970898E+02 0.  0.
        -12    1    1    2    0    0  0.43677829221E+01  0.37722672833E+02 -0.21013002037E+02  0.43400735338E+02  0.00000000000E+00 0.  1.
         11    1    3    3    0    0  0.38181392955E+00 -0.11437126490E+02  0.10375189754E+01  0.11490434722E+02  0.51100000000E-03 0. -1.
        -11    1    3    3    0    0 -0.80010649208E+00 -0.26670759687E+01 -0.22848789177E+01  0.36019628748E+01  0.51100000000E-03 0.  1.
         12    1    3    3    0    0 -0.39494903596E+01 -0.23618470374E+02  0.22260361979E+02  0.32694867064E+02  0.00000000000E+00 0. -1.
</event>
<event>
 7    1  0.7596051E-010  0.4778728E+02  0.7816164E-02  0.1312668E+00
        -11   -1    0    0    0    0  0.00000000000E+00  0.00000000000E+00  0.45593999997E+02  0.45594000000E+02  0.51100000000E-03 0. -1.
         11   -1    0    0    0    0 -0.00000000000E+00 -0.00000000000E+00 -0.45593999997E+02  0.45594000000E+02  0.51100000000E-03 0.  1.
    9900012    2    1    2    0    0 -0.26424264689E+02 -0.33824457472E+02  0.64254993703E+01  0.47787277313E+02  0.20000028580E+02 0.  0.
        -12    1    1    2    0    0  0.26424264689E+02  0.33824457472E+02 -0.64254993703E+01  0.43400722687E+02  0.00000000000E+00 0.  1.
         11    1    3    3    0    0  0.13688793971E+01 -0.11940568891E+01  0.16681234499E+01  0.24662195286E+01  0.51100000000E-03 0. -1.
        -11    1    3    3    0    0  0.15291172252E+00 -0.66299691889E+01 -0.10393522089E+01  0.67126840172E+01  0.51100000000E-03 0.  1.
         12    1    3    3    0    0 -0.27946055809E+02 -0.26000431394E+02  0.57967281292E+01  0.38608373767E+02  0.00000000000E+00 0. -1.
</event>
<event>
 7    1  0.7596051E-010  0.4778728E+02  0.7816164E-02  0.1312668E+00
        -11   -1    0    0    0    0  0.00000000000E+00  0.00000000000E+00  0.45593999997E+02  0.45594000000E+02  0.51100000000E-03 0. -1.
         11   -1    0    0    0    0 -0.00000000000E+00 -0.00000000000E+00 -0.45593999997E+02  0.45594000000E+02  0.51100000000E-03 0.  1.
    9900012    2    1    2    0    0  0.20074331721E+02 -0.14320975700E+01 -0.38452473682E+02  0.47787280769E+02  0.20000044337E+02 0.  0.
         12    1    1    2    0    0 -0.20074331721E+02  0.14320975700E+01  0.38452473682E+02  0.43400719231E+02  0.00000000000E+00 0. -1.
         11    1    3    3    0    0  0.45855003921E+01 -0.21648218021E+01 -0.93002056493E+01  0.10592784934E+02  0.51100000000E-03 0. -1.
        -11    1    3    3    0    0  0.10864760633E+02  0.86679385626E+01 -0.16865866440E+02  0.21854830897E+02  0.51100000000E-03 0.  1.
         12    1    3    3    0    0  0.46240706958E+01 -0.79352143305E+01 -0.12286401594E+02  0.15339664937E+02  0.00000000000E+00 0. -1.
</event>
<event>
 7    1  0.7596051E-010  0.4778727E+02  0.7816164E-02  0.1312668E+00
        -11   -1    0    0    0    0  0.00000000000E+00  0.00000000000E+00  0.45593999997E+02  0.45594000000E+02  0.51100000000E-03 0.  1.
         11   -1    0    0    0    0 -0.00000000000E+00 -0.00000000000E+00 -0.45593999997E+02  0.45594000000E+02  0.51100000000E-03 0. -1.
    9900012    2    1    2    0    0 -0.38419073220E+02 -0.29510476180E+01 -0.19972217261E+02  0.47787270381E+02  0.19999996975E+02 0.  0.
         12    1    1    2    0    0  0.38419073220E+02  0.29510476180E+01  0.19972217261E+02  0.43400729619E+02  0.00000000000E+00 0. -1.
         11    1    3    3    0    0 -0.65217536433E+00  0.29618342812E+01 -0.24166044926E+01  0.38778566953E+01  0.51100000000E-03 0. -1.
        -11    1    3    3    0    0 -0.21433596696E+02  0.24586710318E+01 -0.67233950810E+01  0.22597525800E+02  0.51100000000E-03 0.  1.
         12    1    3    3    0    0 -0.16333301159E+02 -0.83715529309E+01 -0.10832217687E+02  0.21311887886E+02  0.00000000000E+00 0. -1.
</event>
<event>
 7    1  0.7596051E-010  0.4778727E+02  0.7816164E-02  0.1312668E+00
        -11   -1    0    0    0    0  0.00000000000E+00  0.00000000000E+00  0.45593999997E+02  0.45594000000E+02  0.51100000000E-03 0. -1.
         11   -1    0    0    0    0 -0.00000000000E+00 -0.00000000000E+00 -0.45593999997E+02  0.45594000000E+02  0.51100000000E-03 0.  1.
    9900012    2    1    2    0    0  0.19290166004E+02  0.36325883320E+02 -0.13854338106E+02  0.47787274340E+02  0.20000015026E+02 0.  0.
         12    1    1    2    0    0 -0.19290166004E+02 -0.36325883320E+02  0.13854338106E+02  0.43400725660E+02  0.00000000000E+00 0. -1.
         11    1    3    3    0    0 -0.33510061648E+00  0.60620462453E+00  0.18223159141E+00  0.71622977039E+00  0.51100000000E-03 0. -1.
        -11    1    3    3    0    0  0.59070326815E+01  0.36448736652E+01 -0.96849656223E+01  0.11915397539E+02  0.51100000000E-03 0.  1.
         12    1    3    3    0    0  0.13718233939E+02  0.32074805030E+02 -0.43516040756E+01  0.35155647031E+02  0.00000000000E+00 0. -1.
</event>
<event>
 7    1  0.7596051E-010  0.4778727E+02  0.7816164E-02  0.1312668E+00
        -11   -1    0    0    0    0  0.00000000000E+00  0.00000000000E+00  0.45593999997E+02  0.45594000000E+02  0.51100000000E-03 0. -1.
         11   -1    0    0    0    0 -0.00000000000E+00 -0.00000000000E+00 -0.45593999997E+02  0.45594000000E+02  0.51100000000E-03 0.  1.
    9900012    2    1    2    0    0 -0.43400157401E+02  0.17129454720E+00 -0.14212197150E+00  0.47787271862E+02  0.20000003729E+02 0.  0.
         12    1    1    2    0    0  0.43400157401E+02 -0.17129454720E+00  0.14212197150E+00  0.43400728138E+02  0.00000000000E+00 0. -1.
         11    1    3    3    0    0 -0.21116246373E+02  0.32357198739E+01  0.68748712942E+01  0.22441693331E+02  0.51100000000E-03 0. -1.
        -11    1    3    3    0    0 -0.12091902118E+02  0.29815164272E+01 -0.27799742406E+01  0.12760556182E+02  0.51100000000E-03 0.  1.
        -12    1    3    3    0    0 -0.10192008909E+02 -0.60459417539E+01 -0.42370190250E+01  0.12585022349E+02  0.00000000000E+00 0.  1.
</event>
<event>
 7    1  0.7596051E-010  0.4778727E+02  0.7816164E-02  0.1312668E+00
        -11   -1    0    0    0    0  0.00000000000E+00  0.00000000000E+00  0.45593999997E+02  0.45594000000E+02  0.51100000000E-03 0. -1.
         11   -1    0    0    0    0 -0.00000000000E+00 -0.00000000000E+00 -0.45593999997E+02  0.45594000000E+02  0.51100000000E-03 0.  1.
    9900012    2    1    2    0    0  0.21894958732E+02  0.31385450667E+01  0.37341445737E+02  0.47787271288E+02  0.20000001111E+02 0.  0.
        -12    1    1    2    0    0 -0.21894958732E+02 -0.31385450667E+01 -0.37341445737E+02  0.43400728712E+02  0.00000000000E+00 0.  1.
         11    1    3    3    0    0  0.96778729192E+01  0.50784623122E+01  0.21548433436E+02  0.24161684285E+02  0.51100000000E-03 0. -1.
        -11    1    3    3    0    0  0.31656723892E+00 -0.75145827395E+00  0.10525854663E+02  0.10557391771E+02  0.51100000000E-03 0.  1.
         12    1    3    3    0    0  0.11900518573E+02 -0.11884589715E+01  0.52671576384E+01  0.13068195232E+02  0.00000000000E+00 0. -1.
</event>
<event>
 7    1  0.7596051E-010  0.4778727E+02  0.7816164E-02  0.1312668E+00
        -11   -1    0    0    0    0  0.00000000000E+00  0.00000000000E+00  0.45593999997E+02  0.45594000000E+02  0.51100000000E-03 0.  1.
         11   -1    0    0    0    0 -0.00000000000E+00 -0.00000000000E+00 -0.45593999997E+02  0.45594000000E+02  0.51100000000E-03 0. -1.
    9900012    2    1    2    0    0  0.32073689147E+02  0.24406928658E+02  0.16099800407E+02  0.47787271030E+02  0.19999999933E+02 0.  0.
        -12    1    1    2    0    0 -0.32073689147E+02 -0.24406928658E+02 -0.16099800407E+02  0.43400728970E+02  0.00000000000E+00 0.  1.
         11    1    3    3    0    0  0.64562556228E+01 -0.29994451801E+00  0.39243150769E+01  0.75613128797E+01  0.51100000000E-03 0. -1.
        -11    1    3    3    0    0  0.67416478744E+01 -0.56462493182E+00  0.27746872267E+01  0.73121478953E+01  0.51100000000E-03 0.  1.
         12    1    3    3    0    0  0.18875785650E+02  0.25271498108E+02  0.94007981035E+01  0.32913810255E+02  0.00000000000E+00 0. -1.
</event>
<event>
 7    1  0.7596051E-010  0.4778727E+02  0.7816164E-02  0.1312668E+00
        -11   -1    0    0    0    0  0.00000000000E+00  0.00000000000E+00  0.45593999997E+02  0.45594000000E+02  0.51100000000E-03 0.  1.
         11   -1    0    0    0    0 -0.00000000000E+00 -0.00000000000E+00 -0.45593999997E+02  0.45594000000E+02  0.51100000000E-03 0. -1.
    9900012    2    1    2    0    0  0.34622848823E+02  0.20959135757E+02 -0.15671519431E+02  0.47787267822E+02  0.19999985307E+02 0.  0.
         12    1    1    2    0    0 -0.34622848823E+02 -0.20959135757E+02  0.15671519431E+02  0.43400732178E+02  0.00000000000E+00 0. -1.
         11    1    3    3    0    0  0.12551853505E+02  0.39146379850E+01 -0.74403992554E+01  0.15107380922E+02  0.51100000000E-03 0. -1.
        -11    1    3    3    0    0  0.13568025539E+02  0.15172373944E+02 -0.11501890280E+02  0.23379172962E+02  0.51100000000E-03 0.  1.
        -12    1    3    3    0    0  0.85029697787E+01  0.18721238278E+01  0.32707701036E+01  0.93007139379E+01  0.00000000000E+00 0.  1.
</event>
<event>
 7    1  0.7596051E-010  0.4778727E+02  0.7816164E-02  0.1312668E+00
        -11   -1    0    0    0    0  0.00000000000E+00  0.00000000000E+00  0.45593999997E+02  0.45594000000E+02  0.51100000000E-03 0. -1.
         11   -1    0    0    0    0 -0.00000000000E+00 -0.00000000000E+00 -0.45593999997E+02  0.45594000000E+02  0.51100000000E-03 0.  1.
    9900012    2    1    2    0    0  0.35817992370E+02 -0.13439436123E+02 -0.20495769997E+02  0.47787267189E+02  0.19999982422E+02 0.  0.
         12    1    1    2    0    0 -0.35817992370E+02  0.13439436123E+02  0.20495769997E+02  0.43400732811E+02  0.00000000000E+00 0. -1.
         11    1    3    3    0    0  0.45837714224E+01 -0.73428937647E+01 -0.10134650074E+02  0.13328172480E+02  0.51100000000E-03 0. -1.
        -11    1    3    3    0    0  0.22109775496E+01  0.15346476961E+01  0.58259061880E-01  0.26920177665E+01  0.51100000000E-03 0.  1.
         12    1    3    3    0    0  0.29023243398E+02 -0.76311900548E+01 -0.10419378986E+02  0.31767076942E+02  0.00000000000E+00 0. -1.
</event>
<event>
 7    1  0.7596051E-010  0.4778728E+02  0.7816164E-02  0.1312668E+00
        -11   -1    0    0    0    0  0.00000000000E+00  0.00000000000E+00  0.45593999997E+02  0.45594000000E+02  0.51100000000E-03 0. -1.
         11   -1    0    0    0    0 -0.00000000000E+00 -0.00000000000E+00 -0.45593999997E+02  0.45594000000E+02  0.51100000000E-03 0.  1.
    9900012    2    1    2    0    0  0.13227303868E+02 -0.41250802862E+02  0.26517994896E+01  0.47787281747E+02  0.20000048796E+02 0.  0.
        -12    1    1    2    0    0 -0.13227303868E+02  0.41250802862E+02 -0.26517994896E+01  0.43400718253E+02  0.00000000000E+00 0.  1.
         11    1    3    3    0    0  0.12640833273E+02 -0.29781874904E+02 -0.31501416300E+00  0.32355061007E+02  0.51100000000E-03 0. -1.
        -11    1    3    3    0    0  0.28139562375E+01 -0.12194491951E+02  0.35680051080E+01  0.13013633019E+02  0.51100000000E-03 0.  1.
        -12    1    3    3    0    0 -0.22274856424E+01  0.72556399255E+00 -0.60119145545E+00  0.24185877203E+01  0.00000000000E+00 0.  1.
</event>
<event>
 7    1  0.7596051E-010  0.4778727E+02  0.7816164E-02  0.1312668E+00
        -11   -1    0    0    0    0  0.00000000000E+00  0.00000000000E+00  0.45593999997E+02  0.45594000000E+02  0.51100000000E-03 0. -1.
         11   -1    0    0    0    0 -0.00000000000E+00 -0.00000000000E+00 -0.45593999997E+02  0.45594000000E+02  0.51100000000E-03 0.  1.
    9900012    2    1    2    0    0 -0.19854235608E+02  0.19923211720E+02 -0.33052961963E+02  0.47787270382E+02  0.19999996980E+02 0.  0.
         12    1    1    2    0    0  0.19854235608E+02 -0.19923211720E+02  0.33052961963E+02  0.43400729618E+02  0.00000000000E+00 0. -1.
         11    1    3    3    0    0 -0.26048224821E+01  0.70555850136E+01 -0.11384870328E+02  0.13644839782E+02  0.51100000000E-03 0. -1.
        -11    1    3    3    0    0 -0.83890165062E+01  0.60575448430E+01 -0.20427369815E+02  0.22898621908E+02  0.51100000000E-03 0.  1.
         12    1    3    3    0    0 -0.88603966199E+01  0.68100818636E+01 -0.12407218202E+01  0.11243808691E+02  0.00000000000E+00 0. -1.
</event>
<event>
 7    1  0.7596051E-010  0.4778727E+02  0.7816164E-02  0.1312668E+00
        -11   -1    0    0    0    0  0.00000000000E+00  0.00000000000E+00  0.45593999997E+02  0.45594000000E+02  0.51100000000E-03 0. -1.
         11   -1    0    0    0    0 -0.00000000000E+00 -0.00000000000E+00 -0.45593999997E+02  0.45594000000E+02  0.51100000000E-03 0.  1.
    9900012    2    1    2    0    0  0.40400841684E+02  0.99205433739E+01 -0.12368434287E+02  0.47787270095E+02  0.19999995670E+02 0.  0.
         12    1    1    2    0    0 -0.40400841684E+02 -0.99205433739E+01  0.12368434287E+02  0.43400729905E+02  0.00000000000E+00 0. -1.
         11    1    3    3    0    0  0.33766611513E+02  0.94640370705E+01 -0.16689197618E+01  0.35107511221E+02  0.51100000000E-03 0.  1.
        -11    1    3    3    0    0  0.20895614903E+01  0.52577498847E+00 -0.45342289483E+01  0.50201532822E+01  0.51100000000E-03 0. -1.
        -12    1    3    3    0    0  0.45446686810E+01 -0.69268685146E-01 -0.61652855770E+01  0.76596055915E+01  0.00000000000E+00 0.  1.
</event>
<event>
 7    1  0.7596051E-010  0.4778727E+02  0.7816164E-02  0.1312668E+00
        -11   -1    0    0    0    0  0.00000000000E+00  0.00000000000E+00  0.45593999997E+02  0.45594000000E+02  0.51100000000E-03 0. -1.
         11   -1    0    0    0    0 -0.00000000000E+00 -0.00000000000E+00 -0.45593999997E+02  0.45594000000E+02  0.51100000000E-03 0.  1.
    9900012    2    1    2    0    0 -0.33332818485E+02  0.17957658302E+02  0.21214825491E+02  0.47787273042E+02  0.20000009108E+02 0.  0.
        -12    1    1    2    0    0  0.33332818485E+02 -0.17957658302E+02 -0.21214825491E+02  0.43400726958E+02  0.00000000000E+00 0.  1.
         11    1    3    3    0    0 -0.12188852312E+01 -0.10018514676E+01  0.18913780175E+01  0.24630669167E+01  0.51100000000E-03 0. -1.
        -11    1    3    3    0    0 -0.31988173288E+02  0.14250801012E+02  0.12815139480E+02  0.37290164386E+02  0.51100000000E-03 0.  1.
        -12    1    3    3    0    0 -0.12575996627E+00  0.47087087583E+01  0.65083079932E+01  0.80340417396E+01  0.00000000000E+00 0.  1.
</event>
<event>
 7    1  0.7596051E-010  0.4778728E+02  0.7816164E-02  0.1312668E+00
        -11   -1    0    0    0    0  0.00000000000E+00  0.00000000000E+00  0.45593999997E+02  0.45594000000E+02  0.51100000000E-03 0. -1.
         11   -1    0    0    0    0 -0.00000000000E+00 -0.00000000000E+00 -0.45593999997E+02  0.45594000000E+02  0.51100000000E-03 0.  1.
    9900012    2    1    2    0    0 -0.13051222806E+02  0.17320460976E+02 -0.37593749371E+02  0.47787276770E+02  0.20000026105E+02 0.  0.
         12    1    1    2    0    0  0.13051222806E+02 -0.17320460976E+02  0.37593749371E+02  0.43400723230E+02  0.00000000000E+00 0. -1.
         11    1    3    3    0    0  0.12869715147E+01 -0.59580301976E+00 -0.20672134348E+00  0.14331820864E+01  0.51100000000E-03 0. -1.
        -11    1    3    3    0    0 -0.58060659795E+01  0.91792244686E+01 -0.54296570996E+01  0.12142888474E+02  0.51100000000E-03 0.  1.
        -12    1    3    3    0    0 -0.85321283410E+01  0.87370395274E+01 -0.31957370928E+02  0.34211206210E+02  0.00000000000E+00 0.  1.
</event>
<event>
 7    1  0.7596051E-010  0.4778727E+02  0.7816164E-02  0.1312668E+00
        -11   -1    0    0    0    0  0.00000000000E+00  0.00000000000E+00  0.45593999997E+02  0.45594000000E+02  0.51100000000E-03 0. -1.
         11   -1    0    0    0    0 -0.00000000000E+00 -0.00000000000E+00 -0.45593999997E+02  0.45594000000E+02  0.51100000000E-03 0.  1.
    9900012    2    1    2    0    0  0.41508483291E+02  0.53530857387E+01 -0.11489712356E+02  0.47787271872E+02  0.20000003771E+02 0.  0.
         12    1    1    2    0    0 -0.41508483291E+02 -0.53530857387E+01  0.11489712356E+02  0.43400728128E+02  0.00000000000E+00 0. -1.
         11    1    3    3    0    0  0.64459191240E+01 -0.26556794453E+00  0.29638088544E+01  0.70996170934E+01  0.51100000000E-03 0. -1.
        -11    1    3    3    0    0  0.56094420697E+01  0.18757633505E+01  0.25861433596E+01  0.64554214594E+01  0.51100000000E-03 0.  1.
        -12    1    3    3    0    0  0.29453122097E+02  0.37428903327E+01 -0.17039664570E+02  0.34232233319E+02  0.00000000000E+00 0.  1.
</event>
<event>
 7    1  0.7596051E-010  0.4778727E+02  0.7816164E-02  0.1312668E+00
        -11   -1    0    0    0    0  0.00000000000E+00  0.00000000000E+00  0.45593999997E+02  0.45594000000E+02  0.51100000000E-03 0. -1.
         11   -1    0    0    0    0 -0.00000000000E+00 -0.00000000000E+00 -0.45593999997E+02  0.45594000000E+02  0.51100000000E-03 0.  1.
    9900012    2    1    2    0    0  0.36779977598E+01  0.53381127846E+01  0.42913869297E+02  0.47787270817E+02  0.19999998962E+02 0.  0.
        -12    1    1    2    0    0 -0.36779977598E+01 -0.53381127846E+01 -0.42913869297E+02  0.43400729183E+02  0.00000000000E+00 0.  1.
         11    1    3    3    0    0  0.23009223717E+01  0.56103879577E+01  0.78918393447E+01  0.99524783496E+01  0.51100000000E-03 0. -1.
        -11    1    3    3    0    0  0.55419499664E+01 -0.13095903503E+00  0.48179573180E+01  0.73445947934E+01  0.51100000000E-03 0.  1.
        -12    1    3    3    0    0 -0.41648745783E+01 -0.14131613808E+00  0.30204072634E+02  0.30490197674E+02  0.00000000000E+00 0.  1.
</event>
<event>
 7    1  0.7596051E-010  0.4778726E+02  0.7816164E-02  0.1312668E+00
        -11   -1    0    0    0    0  0.00000000000E+00  0.00000000000E+00  0.45593999997E+02  0.45594000000E+02  0.51100000000E-03 0.  1.
         11   -1    0    0    0    0 -0.00000000000E+00 -0.00000000000E+00 -0.45593999997E+02  0.45594000000E+02  0.51100000000E-03 0. -1.
    9900012    2    1    2    0    0  0.69617187670E+00 -0.33896362473E+02  0.27095687232E+02  0.47787259099E+02  0.19999945536E+02 0.  0.
        -12    1    1    2    0    0 -0.69617187670E+00  0.33896362473E+02 -0.27095687232E+02  0.43400740901E+02  0.00000000000E+00 0.  1.
         11    1    3    3    0    0  0.23721464068E+01 -0.22484573782E+02  0.19716785508E+02  0.29998912776E+02  0.51100000000E-03 0. -1.
        -11    1    3    3    0    0  0.24114324164E+01 -0.67121333668E+01  0.88720986292E+01  0.11383403488E+02  0.51100000000E-03 0.  1.
        -12    1    3    3    0    0 -0.40874069465E+01 -0.46996553241E+01 -0.14931969054E+01  0.64049428343E+01  0.00000000000E+00 0.  1.
</event>
<event>
 7    1  0.7596051E-010  0.4778728E+02  0.7816164E-02  0.1312668E+00
        -11   -1    0    0    0    0  0.00000000000E+00  0.00000000000E+00  0.45593999997E+02  0.45594000000E+02  0.51100000000E-03 0. -1.
         11   -1    0    0    0    0 -0.00000000000E+00 -0.00000000000E+00 -0.45593999997E+02  0.45594000000E+02  0.51100000000E-03 0.  1.
    9900012    2    1    2    0    0 -0.18917113129E+02  0.33384893437E+02  0.20278427878E+02  0.47787275166E+02  0.20000018791E+02 0.  0.
        -12    1    1    2    0    0  0.18917113129E+02 -0.33384893437E+02 -0.20278427878E+02  0.43400724834E+02  0.00000000000E+00 0.  1.
         11    1    3    3    0    0 -0.15571147941E+02  0.19350851287E+02  0.11329361417E+02  0.27299643296E+02  0.51100000000E-03 0. -1.
        -11    1    3    3    0    0 -0.27041465751E+01  0.15737772536E+02  0.60739916517E+01  0.17084591535E+02  0.51100000000E-03 0.  1.
        -12    1    3    3    0    0 -0.64181861235E+00 -0.17037303852E+01  0.28750748095E+01  0.34030403344E+01  0.00000000000E+00 0.  1.
</event>
<event>
 7    1  0.7596051E-010  0.4778727E+02  0.7816164E-02  0.1312668E+00
        -11   -1    0    0    0    0  0.00000000000E+00  0.00000000000E+00  0.45593999997E+02  0.45594000000E+02  0.51100000000E-03 0. -1.
         11   -1    0    0    0    0 -0.00000000000E+00 -0.00000000000E+00 -0.45593999997E+02  0.45594000000E+02  0.51100000000E-03 0.  1.
    9900012    2    1    2    0    0  0.12861254988E+02  0.48295555220E+01  0.41169003232E+02  0.47787270588E+02  0.19999997919E+02 0.  0.
        -12    1    1    2    0    0 -0.12861254988E+02 -0.48295555220E+01 -0.41169003232E+02  0.43400729412E+02  0.00000000000E+00 0.  1.
         11    1    3    3    0    0  0.65604472626E+01 -0.13000317304E+01  0.15561958413E+02  0.16938243731E+02  0.51100000000E-03 0. -1.
        -11    1    3    3    0    0  0.12186420911E+01 -0.29206354562E+01 -0.57315310884E-01  0.31651990965E+01  0.51100000000E-03 0.  1.
        -12    1    3    3    0    0  0.50821656345E+01  0.90502227086E+01  0.25664360130E+02  0.27683827760E+02  0.00000000000E+00 0.  1.
</event>
<event>
 7    1  0.1019739E-009  0.4778727E+02  0.7816164E-02  0.1312668E+00
        -11   -1    0    0    0    0  0.00000000000E+00  0.00000000000E+00  0.45593999997E+02  0.45594000000E+02  0.51100000000E-03 0. -1.
         11   -1    0    0    0    0 -0.00000000000E+00 -0.00000000000E+00 -0.45593999997E+02  0.45594000000E+02  0.51100000000E-03 0.  1.
    9900012    2    1    2    0    0  0.11842912614E+02 -0.36866535502E+02  0.19601713823E+02  0.47787271850E+02  0.20000003674E+02 0.  0.
        -12    1    1    2    0    0 -0.11842912614E+02  0.36866535502E+02 -0.19601713823E+02  0.43400728150E+02  0.00000000000E+00 0.  1.
         11    1    3    3    0    0 -0.34303747473E+01 -0.88291657987E+01  0.21195664823E+01  0.97064000506E+01  0.51100000000E-03 0. -1.
        -11    1    3    3    0    0  0.19095567146E+01  0.33564477303E+00  0.29134367693E+01  0.34995968810E+01  0.51100000000E-03 0.  1.
         12    1    3    3    0    0  0.13363730647E+02 -0.28373014477E+02  0.14568710571E+02  0.34581274919E+02  0.00000000000E+00 0. -1.
</event>
<event>
 7    1  0.1019226E-009  0.4778727E+02  0.7816164E-02  0.1312668E+00
        -11   -1    0    0    0    0  0.00000000000E+00  0.00000000000E+00  0.45593999997E+02  0.45594000000E+02  0.51100000000E-03 0. -1.
         11   -1    0    0    0    0 -0.00000000000E+00 -0.00000000000E+00 -0.45593999997E+02  0.45594000000E+02  0.51100000000E-03 0.  1.
    9900012    2    1    2    0    0  0.61428639956E+01 -0.15645659068E+02  0.40013770439E+02  0.47787271314E+02  0.20000001230E+02 0.  0.
        -12    1    1    2    0    0 -0.61428639956E+01  0.15645659068E+02 -0.40013770439E+02  0.43400728686E+02  0.00000000000E+00 0.  1.
         11    1    3    3    0    0  0.61300498524E+01  0.38527896273E+00  0.56010434762E+01  0.83124989837E+01  0.51100000000E-03 0.  1.
        -11    1    3    3    0    0 -0.29946230392E+01 -0.36517073134E+01  0.30457923784E+01  0.56195715960E+01  0.51100000000E-03 0. -1.
         12    1    3    3    0    0  0.30074371825E+01 -0.12379230717E+02  0.31366934584E+02  0.33855200734E+02  0.00000000000E+00 0. -1.
</event>
<event>
 7    1  0.7596051E-010  0.4778725E+02  0.7816164E-02  0.1312668E+00
        -11   -1    0    0    0    0  0.00000000000E+00  0.00000000000E+00  0.45593999997E+02  0.45594000000E+02  0.51100000000E-03 0.  1.
         11   -1    0    0    0    0 -0.00000000000E+00 -0.00000000000E+00 -0.45593999997E+02  0.45594000000E+02  0.51100000000E-03 0. -1.
    9900012    2    1    2    0    0 -0.13873571080E+02  0.37674804154E+02 -0.16485081998E+02  0.47787253797E+02  0.19999921360E+02 0.  0.
         12    1    1    2    0    0  0.13873571080E+02 -0.37674804154E+02  0.16485081998E+02  0.43400746203E+02  0.00000000000E+00 0. -1.
         11    1    3    3    0    0 -0.79976841287E+01  0.79415009824E+01 -0.45793847589E+01  0.12165572502E+02  0.51100000000E-03 0.  1.
        -11    1    3    3    0    0 -0.22781580927E+01  0.11530645394E+02 -0.12366783891E+02  0.17061158564E+02  0.51100000000E-03 0. -1.
         12    1    3    3    0    0 -0.35977288589E+01  0.18202657778E+02  0.46108665186E+00  0.18560522730E+02  0.00000000000E+00 0. -1.
</event>
<event>
 7    1  0.7596051E-010  0.4778727E+02  0.7816164E-02  0.1312668E+00
        -11   -1    0    0    0    0  0.00000000000E+00  0.00000000000E+00  0.45593999997E+02  0.45594000000E+02  0.51100000000E-03 0. -1.
         11   -1    0    0    0    0 -0.00000000000E+00 -0.00000000000E+00 -0.45593999997E+02  0.45594000000E+02  0.51100000000E-03 0.  1.
    9900012    2    1    2    0    0  0.21044791131E+02 -0.11591924276E+02  0.36143707454E+02  0.47787268086E+02  0.19999986509E+02 0.  0.
        -12    1    1    2    0    0 -0.21044791131E+02  0.11591924276E+02 -0.36143707454E+02  0.43400731914E+02  0.00000000000E+00 0.  1.
         11    1    3    3    0    0  0.12254985122E+02 -0.52214835540E+01  0.11470434340E+02  0.17578948065E+02  0.51100000000E-03 0. -1.
        -11    1    3    3    0    0  0.62583580145E+01  0.32101191659E+01  0.13851596889E+02  0.15535077944E+02  0.51100000000E-03 0.  1.
        -12    1    3    3    0    0  0.25314479944E+01 -0.95805598879E+01  0.10821676225E+02  0.14673242077E+02  0.00000000000E+00 0.  1.
</event>
<event>
 7    1  0.7596051E-010  0.4778728E+02  0.7816164E-02  0.1312668E+00
        -11   -1    0    0    0    0  0.00000000000E+00  0.00000000000E+00  0.45593999997E+02  0.45594000000E+02  0.51100000000E-03 0. -1.
         11   -1    0    0    0    0 -0.00000000000E+00 -0.00000000000E+00 -0.45593999997E+02  0.45594000000E+02  0.51100000000E-03 0.  1.
    9900012    2    1    2    0    0 -0.41342492037E+02  0.12486466388E+02  0.43022148396E+01  0.47787279462E+02  0.20000038380E+02 0.  0.
        -12    1    1    2    0    0  0.41342492037E+02 -0.12486466388E+02 -0.43022148396E+01  0.43400720538E+02  0.00000000000E+00 0.  1.
         11    1    3    3    0    0 -0.10540245657E+02  0.76104572349E+01  0.60845475596E+01  0.14354008398E+02  0.51100000000E-03 0. -1.
        -11    1    3    3    0    0 -0.11666167393E+02 -0.18415999926E+01  0.37846051193E+01  0.12402184822E+02  0.51100000000E-03 0.  1.
        -12    1    3    3    0    0 -0.19136078987E+02  0.67176091453E+01 -0.55669378394E+01  0.21031086242E+02  0.00000000000E+00 0.  1.
</event>
<event>
 7    1  0.7596051E-010  0.4778727E+02  0.7816164E-02  0.1312668E+00
        -11   -1    0    0    0    0  0.00000000000E+00  0.00000000000E+00  0.45593999997E+02  0.45594000000E+02  0.51100000000E-03 0. -1.
         11   -1    0    0    0    0 -0.00000000000E+00 -0.00000000000E+00 -0.45593999997E+02  0.45594000000E+02  0.51100000000E-03 0.  1.
    9900012    2    1    2    0    0 -0.34428896616E+02 -0.26292692544E+01 -0.26293750124E+02  0.47787271036E+02  0.19999999962E+02 0.  0.
         12    1    1    2    0    0  0.34428896616E+02  0.26292692544E+01  0.26293750124E+02  0.43400728964E+02  0.00000000000E+00 0. -1.
         11    1    3    3    0    0 -0.54627169884E+01 -0.52608497623E+01 -0.95910358985E+01  0.12227255906E+02  0.51100000000E-03 0. -1.
        -11    1    3    3    0    0 -0.44228855558E+01 -0.29099804685E+01 -0.65638906935E+01  0.84329451714E+01  0.51100000000E-03 0.  1.
        -12    1    3    3    0    0 -0.24543294072E+02  0.55415609764E+01 -0.10138823532E+02  0.27127069959E+02  0.00000000000E+00 0.  1.
</event>
<event>
 7    1  0.7596051E-010  0.4778727E+02  0.7816164E-02  0.1312668E+00
        -11   -1    0    0    0    0  0.00000000000E+00  0.00000000000E+00  0.45593999997E+02  0.45594000000E+02  0.51100000000E-03 0. -1.
         11   -1    0    0    0    0 -0.00000000000E+00 -0.00000000000E+00 -0.45593999997E+02  0.45594000000E+02  0.51100000000E-03 0.  1.
    9900012    2    1    2    0    0  0.13188761181E+02 -0.21431879019E+01  0.41292690767E+02  0.47787274353E+02  0.20000015085E+02 0.  0.
        -12    1    1    2    0    0 -0.13188761181E+02  0.21431879019E+01 -0.41292690767E+02  0.43400725647E+02  0.00000000000E+00 0.  1.
         11    1    3    3    0    0  0.56499874249E+01 -0.24717420581E+01  0.16149498532E+02  0.17286936391E+02  0.51100000000E-03 0. -1.
        -11    1    3    3    0    0 -0.15865405300E+01 -0.51700775939E+01  0.14347226452E+02  0.15332635791E+02  0.51100000000E-03 0.  1.
         12    1    3    3    0    0  0.91253142857E+01  0.54986317501E+01  0.10795965784E+02  0.15167702171E+02  0.00000000000E+00 0. -1.
</event>
<event>
 7    1  0.7596051E-010  0.4778729E+02  0.7816164E-02  0.1312668E+00
        -11   -1    0    0    0    0  0.00000000000E+00  0.00000000000E+00  0.45593999997E+02  0.45594000000E+02  0.51100000000E-03 0.  1.
         11   -1    0    0    0    0 -0.00000000000E+00 -0.00000000000E+00 -0.45593999997E+02  0.45594000000E+02  0.51100000000E-03 0. -1.
    9900012    2    1    2    0    0 -0.25619699269E+02 -0.23567989665E+02 -0.25919158570E+02  0.47787286775E+02  0.20000071724E+02 0.  0.
         12    1    1    2    0    0  0.25619699269E+02  0.23567989665E+02  0.25919158570E+02  0.43400713225E+02  0.00000000000E+00 0. -1.
         11    1    3    3    0    0 -0.17070690760E+02 -0.85190783822E+01 -0.18960712803E+02  0.26897803065E+02  0.51100000000E-03 0. -1.
        -11    1    3    3    0    0 -0.64870163103E+01 -0.29758508693E+01 -0.80369691246E+00  0.71821304635E+01  0.51100000000E-03 0.  1.
         12    1    3    3    0    0 -0.20619921985E+01 -0.12073060413E+02 -0.61547488545E+01  0.13707353247E+02  0.00000000000E+00 0. -1.
</event>
<event>
 7    1  0.7596051E-010  0.4778729E+02  0.7816164E-02  0.1312668E+00
        -11   -1    0    0    0    0  0.00000000000E+00  0.00000000000E+00  0.45593999997E+02  0.45594000000E+02  0.51100000000E-03 0.  1.
         11   -1    0    0    0    0 -0.00000000000E+00 -0.00000000000E+00 -0.45593999997E+02  0.45594000000E+02  0.51100000000E-03 0. -1.
    9900012    2    1    2    0    0 -0.39893360032E+02  0.12328622326E+02  0.11838366672E+02  0.47787285391E+02  0.20000065413E+02 0.  0.
        -12    1    1    2    0    0  0.39893360032E+02 -0.12328622326E+02 -0.11838366672E+02  0.43400714609E+02  0.00000000000E+00 0.  1.
         11    1    3    3    0    0 -0.57769731150E+01 -0.16940840300E+01  0.26449033438E+01  0.65756256760E+01  0.51100000000E-03 0. -1.
        -11    1    3    3    0    0 -0.43901599262E+01 -0.34555285269E+01  0.27774423035E+00  0.55938648264E+01  0.51100000000E-03 0.  1.
         12    1    3    3    0    0 -0.29726226991E+02  0.17478234883E+02  0.89157190976E+01  0.35617794889E+02  0.00000000000E+00 0. -1.
</event>
<event>
 7    1  0.7596051E-010  0.4778727E+02  0.7816164E-02  0.1312668E+00
        -11   -1    0    0    0    0  0.00000000000E+00  0.00000000000E+00  0.45593999997E+02  0.45594000000E+02  0.51100000000E-03 0. -1.
         11   -1    0    0    0    0 -0.00000000000E+00 -0.00000000000E+00 -0.45593999997E+02  0.45594000000E+02  0.51100000000E-03 0.  1.
    9900012    2    1    2    0    0 -0.30648845613E+02 -0.26059132427E+02  0.16284751232E+02  0.47787271401E+02  0.20000001624E+02 0.  0.
        -12    1    1    2    0    0  0.30648845613E+02  0.26059132427E+02 -0.16284751232E+02  0.43400728599E+02  0.00000000000E+00 0.  1.
         11    1    3    3    0    0 -0.23761510299E+01 -0.66598857718E+01  0.66412218209E-01  0.70713918753E+01  0.51100000000E-03 0. -1.
        -11    1    3    3    0    0 -0.44609095801E+00 -0.19040444871E+01  0.59756058683E+01  0.62874675590E+01  0.51100000000E-03 0.  1.
         12    1    3    3    0    0 -0.27826603625E+02 -0.17495202169E+02  0.10242733145E+02  0.34428411966E+02  0.00000000000E+00 0. -1.
</event>
<event>
 7    1  0.7596051E-010  0.4778727E+02  0.7816164E-02  0.1312668E+00
        -11   -1    0    0    0    0  0.00000000000E+00  0.00000000000E+00  0.45593999997E+02  0.45594000000E+02  0.51100000000E-03 0.  1.
         11   -1    0    0    0    0 -0.00000000000E+00 -0.00000000000E+00 -0.45593999997E+02  0.45594000000E+02  0.51100000000E-03 0. -1.
    9900012    2    1    2    0    0  0.15859424648E+02  0.34622437453E+02 -0.20818001109E+02  0.47787266187E+02  0.19999977852E+02 0.  0.
         12    1    1    2    0    0 -0.15859424648E+02 -0.34622437453E+02  0.20818001109E+02  0.43400733813E+02  0.00000000000E+00 0. -1.
         11    1    3    3    0    0  0.22651402703E+01  0.15050324063E+02 -0.63062257758E+01  0.16474574308E+02  0.51100000000E-03 0. -1.
        -11    1    3    3    0    0  0.21270820626E+01  0.75101857925E+01 -0.12237709272E+02  0.14515126497E+02  0.51100000000E-03 0.  1.
        -12    1    3    3    0    0  0.11467202316E+02  0.12061927597E+02 -0.22740660617E+01  0.16797565382E+02  0.00000000000E+00 0.  1.
</event>
<event>
 7    1  0.7596051E-010  0.4778727E+02  0.7816164E-02  0.1312668E+00
        -11   -1    0    0    0    0  0.00000000000E+00  0.00000000000E+00  0.45593999997E+02  0.45594000000E+02  0.51100000000E-03 0. -1.
         11   -1    0    0    0    0 -0.00000000000E+00 -0.00000000000E+00 -0.45593999997E+02  0.45594000000E+02  0.51100000000E-03 0.  1.
    9900012    2    1    2    0    0 -0.11835562802E+02 -0.38080774916E+01 -0.41581745649E+02  0.47787267607E+02  0.19999984327E+02 0.  0.
         12    1    1    2    0    0  0.11835562802E+02  0.38080774916E+01  0.41581745649E+02  0.43400732393E+02  0.00000000000E+00 0. -1.
         11    1    3    3    0    0 -0.26027852545E+01  0.22984117337E+01 -0.41891446152E+00  0.34975244339E+01  0.51100000000E-03 0. -1.
        -11    1    3    3    0    0 -0.63885872761E+01  0.24747252035E+01 -0.12760632028E+02  0.14483509320E+02  0.51100000000E-03 0.  1.
         12    1    3    3    0    0 -0.28441902713E+01 -0.85812144288E+01 -0.28402199160E+02  0.29806233853E+02  0.00000000000E+00 0. -1.
</event>
<event>
 7    1  0.7596051E-010  0.4778726E+02  0.7816164E-02  0.1312668E+00
        -11   -1    0    0    0    0  0.00000000000E+00  0.00000000000E+00  0.45593999997E+02  0.45594000000E+02  0.51100000000E-03 0. -1.
         11   -1    0    0    0    0 -0.00000000000E+00 -0.00000000000E+00 -0.45593999997E+02  0.45594000000E+02  0.51100000000E-03 0.  1.
    9900012    2    1    2    0    0 -0.17339755185E+02 -0.19797227858E+02 -0.34511263624E+02  0.47787255102E+02  0.19999927311E+02 0.  0.
         12    1    1    2    0    0  0.17339755185E+02  0.19797227858E+02  0.34511263624E+02  0.43400744898E+02  0.00000000000E+00 0. -1.
         11    1    3    3    0    0 -0.13414114406E+02 -0.19657845531E+02 -0.17684680854E+02  0.29649912199E+02  0.51100000000E-03 0. -1.
        -11    1    3    3    0    0  0.97377826519E+00 -0.14009106688E+01 -0.45329673827E+01  0.48434066901E+01  0.51100000000E-03 0.  1.
        -12    1    3    3    0    0 -0.48994190447E+01  0.12615283418E+01 -0.12293615388E+02  0.13293936213E+02  0.00000000000E+00 0.  1.
</event>
<event>
 7    1  0.7596051E-010  0.4778727E+02  0.7816164E-02  0.1312668E+00
        -11   -1    0    0    0    0  0.00000000000E+00  0.00000000000E+00  0.45593999997E+02  0.45594000000E+02  0.51100000000E-03 0.  1.
         11   -1    0    0    0    0 -0.00000000000E+00 -0.00000000000E+00 -0.45593999997E+02  0.45594000000E+02  0.51100000000E-03 0. -1.
    9900012    2    1    2    0    0 -0.36163657789E+02  0.23611991460E+02  0.42763060727E+01  0.47787273289E+02  0.20000010234E+02 0.  0.
        -12    1    1    2    0    0  0.36163657789E+02 -0.23611991460E+02 -0.42763060727E+01  0.43400726711E+02  0.00000000000E+00 0.  1.
         11    1    3    3    0    0 -0.57932312696E+01 -0.26270414109E+01  0.16506054502E+01  0.65717101070E+01  0.51100000000E-03 0.  1.
        -11    1    3    3    0    0 -0.81300626442E+01  0.50637957573E+01 -0.29132152270E+01  0.10011332044E+02  0.51100000000E-03 0. -1.
        -12    1    3    3    0    0 -0.22240363876E+02  0.21175237114E+02  0.55389158495E+01  0.31204231138E+02  0.00000000000E+00 0.  1.
</event>
<event>
 7    1  0.7596051E-010  0.4778727E+02  0.7816164E-02  0.1312668E+00
        -11   -1    0    0    0    0  0.00000000000E+00  0.00000000000E+00  0.45593999997E+02  0.45594000000E+02  0.51100000000E-03 0. -1.
         11   -1    0    0    0    0 -0.00000000000E+00 -0.00000000000E+00 -0.45593999997E+02  0.45594000000E+02  0.51100000000E-03 0.  1.
    9900012    2    1    2    0    0 -0.26200095400E+02 -0.14307642514E+02 -0.31503486136E+02  0.47787271066E+02  0.20000000097E+02 0.  0.
         12    1    1    2    0    0  0.26200095400E+02  0.14307642514E+02  0.31503486136E+02  0.43400728934E+02  0.00000000000E+00 0. -1.
         11    1    3    3    0    0 -0.48204127390E+01  0.21734965172E+01 -0.49559769214E+01  0.72472183347E+01  0.51100000000E-03 0. -1.
        -11    1    3    3    0    0  0.19814673822E+01 -0.11347806387E+01 -0.40925998276E+01  0.46865033549E+01  0.51100000000E-03 0.  1.
         12    1    3    3    0    0 -0.23361150043E+02 -0.15346358393E+02 -0.22454909387E+02  0.35853549376E+02  0.00000000000E+00 0. -1.
</event>
<event>
 7    1  0.1240491E-009  0.4778728E+02  0.7816164E-02  0.1312668E+00
        -11   -1    0    0    0    0  0.00000000000E+00  0.00000000000E+00  0.45593999997E+02  0.45594000000E+02  0.51100000000E-03 0. -1.
         11   -1    0    0    0    0 -0.00000000000E+00 -0.00000000000E+00 -0.45593999997E+02  0.45594000000E+02  0.51100000000E-03 0.  1.
    9900012    2    1    2    0    0 -0.19259123667E+02 -0.20961888640E+02  0.32761381289E+02  0.47787277382E+02  0.20000028895E+02 0.  0.
        -12    1    1    2    0    0  0.19259123667E+02  0.20961888640E+02 -0.32761381289E+02  0.43400722618E+02  0.00000000000E+00 0.  1.
         11    1    3    3    0    0 -0.80141312952E+01 -0.77464612221E+01  0.21474954177E+02  0.24195198264E+02  0.51100000000E-03 0. -1.
        -11    1    3    3    0    0  0.11310379151E+01  0.12461514496E+01  0.93012508767E+00  0.19228294622E+01  0.51100000000E-03 0.  1.
         12    1    3    3    0    0 -0.12376030287E+02 -0.14461578868E+02  0.10356302025E+02  0.21669249655E+02  0.00000000000E+00 0. -1.
</event>
<event>
 7    1  0.7596051E-010  0.4778728E+02  0.7816164E-02  0.1312668E+00
        -11   -1    0    0    0    0  0.00000000000E+00  0.00000000000E+00  0.45593999997E+02  0.45594000000E+02  0.51100000000E-03 0. -1.
         11   -1    0    0    0    0 -0.00000000000E+00 -0.00000000000E+00 -0.45593999997E+02  0.45594000000E+02  0.51100000000E-03 0.  1.
    9900012    2    1    2    0    0  0.98795323197E+01 -0.33384028216E+02 -0.25913784874E+02  0.47787277134E+02  0.20000027766E+02 0.  0.
         12    1    1    2    0    0 -0.98795323197E+01  0.33384028216E+02  0.25913784874E+02  0.43400722866E+02  0.00000000000E+00 0. -1.
         11    1    3    3    0    0  0.28932612854E+00 -0.32008674842E+00 -0.35445360332E+01  0.35707003637E+01  0.51100000000E-03 0. -1.
        -11    1    3    3    0    0  0.50762173109E+01 -0.29389784031E+02 -0.23875823979E+02  0.38204480870E+02  0.51100000000E-03 0.  1.
        -12    1    3    3    0    0  0.45139888802E+01 -0.36741574360E+01  0.15065751381E+01  0.60120959010E+01  0.00000000000E+00 0.  1.
</event>
<event>
 7    1  0.7596051E-010  0.4778727E+02  0.7816164E-02  0.1312668E+00
        -11   -1    0    0    0    0  0.00000000000E+00  0.00000000000E+00  0.45593999997E+02  0.45594000000E+02  0.51100000000E-03 0. -1.
         11   -1    0    0    0    0 -0.00000000000E+00 -0.00000000000E+00 -0.45593999997E+02  0.45594000000E+02  0.51100000000E-03 0.  1.
    9900012    2    1    2    0    0  0.99308045949E+01  0.35726480532E+02  0.22552629819E+02  0.47787269558E+02  0.19999993224E+02 0.  0.
        -12    1    1    2    0    0 -0.99308045949E+01 -0.35726480532E+02 -0.22552629819E+02  0.43400730442E+02  0.00000000000E+00 0.  1.
         11    1    3    3    0    0  0.99464009511E+01  0.16291780184E+02  0.13526144471E+02  0.23394648490E+02  0.51100000000E-03 0. -1.
        -11    1    3    3    0    0  0.56264371129E+01  0.71645128316E+01  0.28765928068E+01  0.95531055232E+01  0.51100000000E-03 0.  1.
        -12    1    3    3    0    0 -0.56420334692E+01  0.12270187516E+02  0.61498925411E+01  0.14839515545E+02  0.00000000000E+00 0.  1.
</event>
<event>
 7    1  0.7596051E-010  0.4778727E+02  0.7816164E-02  0.1312668E+00
        -11   -1    0    0    0    0  0.00000000000E+00  0.00000000000E+00  0.45593999997E+02  0.45594000000E+02  0.51100000000E-03 0. -1.
         11   -1    0    0    0    0 -0.00000000000E+00 -0.00000000000E+00 -0.45593999997E+02  0.45594000000E+02  0.51100000000E-03 0.  1.
    9900012    2    1    2    0    0  0.28953544304E+01 -0.27314458410E+02 -0.33602983651E+02  0.47787271599E+02  0.20000002527E+02 0.  0.
         12    1    1    2    0    0 -0.28953544304E+01  0.27314458410E+02  0.33602983651E+02  0.43400728401E+02  0.00000000000E+00 0. -1.
         11    1    3    3    0    0 -0.50585628661E+01 -0.56625611459E+01 -0.12761495739E+02  0.14849559952E+02  0.51100000000E-03 0. -1.
        -11    1    3    3    0    0 -0.71646958842E+00 -0.11248504756E+02 -0.13311148315E+02  0.17442157482E+02  0.51100000000E-03 0.  1.
        -12    1    3    3    0    0  0.86703868849E+01 -0.10403392509E+02 -0.75303395967E+01  0.15495554165E+02  0.00000000000E+00 0.  1.
</event>
<event>
 7    1  0.7596051E-010  0.4778727E+02  0.7816164E-02  0.1312668E+00
        -11   -1    0    0    0    0  0.00000000000E+00  0.00000000000E+00  0.45593999997E+02  0.45594000000E+02  0.51100000000E-03 0.  1.
         11   -1    0    0    0    0 -0.00000000000E+00 -0.00000000000E+00 -0.45593999997E+02  0.45594000000E+02  0.51100000000E-03 0. -1.
    9900012    2    1    2    0    0 -0.42979424245E+02  0.29430503134E+01 -0.52660046233E+01  0.47787271224E+02  0.20000000819E+02 0.  0.
        -12    1    1    2    0    0  0.42979424245E+02 -0.29430503134E+01  0.52660046233E+01  0.43400728776E+02  0.00000000000E+00 0.  1.
         11    1    3    3    0    0 -0.20934311517E+02 -0.10851357124E+01 -0.42297650870E+01  0.21384897268E+02  0.51100000000E-03 0. -1.
        -11    1    3    3    0    0 -0.21463362989E+02  0.51783073209E+01  0.28922804882E+01  0.22267826661E+02  0.51100000000E-03 0.  1.
         12    1    3    3    0    0 -0.58174973880E+00 -0.11501212951E+01 -0.39285200245E+01  0.41345472950E+01  0.00000000000E+00 0. -1.
</event>
<event>
 7    1  0.7596051E-010  0.4778727E+02  0.7816164E-02  0.1312668E+00
        -11   -1    0    0    0    0  0.00000000000E+00  0.00000000000E+00  0.45593999997E+02  0.45594000000E+02  0.51100000000E-03 0. -1.
         11   -1    0    0    0    0 -0.00000000000E+00 -0.00000000000E+00 -0.45593999997E+02  0.45594000000E+02  0.51100000000E-03 0.  1.
    9900012    2    1    2    0    0  0.36183076801E+02 -0.23114306961E+02  0.63353873491E+01  0.47787269984E+02  0.19999995163E+02 0.  0.
         12    1    1    2    0    0 -0.36183076801E+02  0.23114306961E+02 -0.63353873491E+01  0.43400730016E+02  0.00000000000E+00 0. -1.
         11    1    3    3    0    0  0.91705144946E+00 -0.22963071695E+01 -0.27712169547E+01  0.37139808358E+01  0.51100000000E-03 0. -1.
        -11    1    3    3    0    0  0.29079341515E+01 -0.75285952189E+01  0.27025279092E+01  0.85111388404E+01  0.51100000000E-03 0.  1.
        -12    1    3    3    0    0  0.32358091200E+02 -0.13289404573E+02  0.64040763946E+01  0.35562150307E+02  0.00000000000E+00 0.  1.
</event>
<event>
 7    1  0.7596051E-010  0.4778726E+02  0.7816164E-02  0.1312668E+00
        -11   -1    0    0    0    0  0.00000000000E+00  0.00000000000E+00  0.45593999997E+02  0.45594000000E+02  0.51100000000E-03 0. -1.
         11   -1    0    0    0    0 -0.00000000000E+00 -0.00000000000E+00 -0.45593999997E+02  0.45594000000E+02  0.51100000000E-03 0.  1.
    9900012    2    1    2    0    0 -0.13672467504E+02 -0.11175475063E+01  0.41175707746E+02  0.47787260508E+02  0.19999951959E+02 0.  0.
        -12    1    1    2    0    0  0.13672467504E+02  0.11175475063E+01 -0.41175707746E+02  0.43400739492E+02  0.00000000000E+00 0.  1.
         11    1    3    3    0    0  0.26236889548E+01 -0.35053546520E+01  0.55288166146E+01  0.70525930257E+01  0.51100000000E-03 0. -1.
        -11    1    3    3    0    0 -0.59598466317E+01 -0.19882971925E+01  0.22918479395E+02  0.23764044177E+02  0.51100000000E-03 0.  1.
        -12    1    3    3    0    0 -0.10336309827E+02  0.43761043382E+01  0.12728411736E+02  0.16970623305E+02  0.00000000000E+00 0.  1.
</event>
<event>
 7    1  0.7596051E-010  0.4778727E+02  0.7816164E-02  0.1312668E+00
        -11   -1    0    0    0    0  0.00000000000E+00  0.00000000000E+00  0.45593999997E+02  0.45594000000E+02  0.51100000000E-03 0. -1.
         11   -1    0    0    0    0 -0.00000000000E+00 -0.00000000000E+00 -0.45593999997E+02  0.45594000000E+02  0.51100000000E-03 0.  1.
    9900012    2    1    2    0    0  0.91700782292E+01  0.34620981139E+02  0.24513682232E+02  0.47787270900E+02  0.19999999344E+02 0.  0.
        -12    1    1    2    0    0 -0.91700782292E+01 -0.34620981139E+02 -0.24513682232E+02  0.43400729100E+02  0.00000000000E+00 0.  1.
         11    1    3    3    0    0  0.59122117339E+01  0.40092454352E+01  0.83758528995E+01  0.11008324514E+02  0.51100000000E-03 0. -1.
        -11    1    3    3    0    0  0.34441666580E+01  0.76302463768E+01 -0.53075295618E+00  0.83883635294E+01  0.51100000000E-03 0.  1.
         12    1    3    3    0    0 -0.18630016273E+00  0.22981489327E+02  0.16668582289E+02  0.28390582857E+02  0.00000000000E+00 0. -1.
</event>
<event>
 7    1  0.7596051E-010  0.4778727E+02  0.7816164E-02  0.1312668E+00
        -11   -1    0    0    0    0  0.00000000000E+00  0.00000000000E+00  0.45593999997E+02  0.45594000000E+02  0.51100000000E-03 0. -1.
         11   -1    0    0    0    0 -0.00000000000E+00 -0.00000000000E+00 -0.45593999997E+02  0.45594000000E+02  0.51100000000E-03 0.  1.
    9900012    2    1    2    0    0  0.78878857522E+01 -0.36078496088E+02 -0.22797954221E+02  0.47787270303E+02  0.19999996619E+02 0.  0.
         12    1    1    2    0    0 -0.78878857522E+01  0.36078496088E+02  0.22797954221E+02  0.43400729697E+02  0.00000000000E+00 0. -1.
         11    1    3    3    0    0 -0.12674844145E+01  0.26064434513E+00  0.37349064572E-01  0.12945452597E+01  0.51100000000E-03 0. -1.
        -11    1    3    3    0    0 -0.10315825525E+01 -0.22054433975E+02 -0.17443792356E+02  0.28138018987E+02  0.51100000000E-03 0.  1.
         12    1    3    3    0    0  0.10186952719E+02 -0.14284706458E+02 -0.53915109297E+01  0.18354706056E+02  0.00000000000E+00 0. -1.
</event>
<event>
 7    1  0.7596051E-010  0.4778727E+02  0.7816164E-02  0.1312668E+00
        -11   -1    0    0    0    0  0.00000000000E+00  0.00000000000E+00  0.45593999997E+02  0.45594000000E+02  0.51100000000E-03 0. -1.
         11   -1    0    0    0    0 -0.00000000000E+00 -0.00000000000E+00 -0.45593999997E+02  0.45594000000E+02  0.51100000000E-03 0.  1.
    9900012    2    1    2    0    0  0.22568876754E+02  0.15815746416E+02 -0.33528061660E+02  0.47787274760E+02  0.20000016942E+02 0.  0.
         12    1    1    2    0    0 -0.22568876754E+02 -0.15815746416E+02  0.33528061660E+02  0.43400725240E+02  0.00000000000E+00 0. -1.
         11    1    3    3    0    0  0.14634648026E+02  0.11692131511E+02 -0.12163874089E+02  0.22334697115E+02  0.51100000000E-03 0. -1.
        -11    1    3    3    0    0  0.75720482373E+01  0.75666381945E+00 -0.59195008449E+01  0.96410033274E+01  0.51100000000E-03 0.  1.
         12    1    3    3    0    0  0.36218049050E+00  0.33669510853E+01 -0.15444686727E+02  0.15811574318E+02  0.00000000000E+00 0. -1.
</event>
<event>
 7    1  0.7596051E-010  0.4778727E+02  0.7816164E-02  0.1312668E+00
        -11   -1    0    0    0    0  0.00000000000E+00  0.00000000000E+00  0.45593999997E+02  0.45594000000E+02  0.51100000000E-03 0.  1.
         11   -1    0    0    0    0 -0.00000000000E+00 -0.00000000000E+00 -0.45593999997E+02  0.45594000000E+02  0.51100000000E-03 0. -1.
    9900012    2    1    2    0    0  0.14994338326E+02  0.39036183896E+02 -0.11617638374E+02  0.47787270094E+02  0.19999995666E+02 0.  0.
         12    1    1    2    0    0 -0.14994338326E+02 -0.39036183896E+02  0.11617638374E+02  0.43400729906E+02  0.00000000000E+00 0. -1.
         11    1    3    3    0    0 -0.77963540158E+00  0.83518355767E+00  0.15414335231E+00  0.11528761289E+01  0.51100000000E-03 0. -1.
        -11    1    3    3    0    0  0.86304275964E+01  0.36552043322E+02 -0.80406598957E+01  0.38408180943E+02  0.51100000000E-03 0.  1.
        -12    1    3    3    0    0  0.71435461314E+01  0.16489570163E+01 -0.37311218301E+01  0.82262130221E+01  0.00000000000E+00 0.  1.
</event>
<event>
 7    1  0.7596051E-010  0.4778727E+02  0.7816164E-02  0.1312668E+00
        -11   -1    0    0    0    0  0.00000000000E+00  0.00000000000E+00  0.45593999997E+02  0.45594000000E+02  0.51100000000E-03 0. -1.
         11   -1    0    0    0    0 -0.00000000000E+00 -0.00000000000E+00 -0.45593999997E+02  0.45594000000E+02  0.51100000000E-03 0.  1.
    9900012    2    1    2    0    0 -0.12866881743E+02  0.25745909966E+02 -0.32484068571E+02  0.47787271473E+02  0.20000001952E+02 0.  0.
         12    1    1    2    0    0  0.12866881743E+02 -0.25745909966E+02  0.32484068571E+02  0.43400728527E+02  0.00000000000E+00 0. -1.
         11    1    3    3    0    0  0.41341950146E+01  0.29926887669E+01 -0.13188312060E+01  0.52713442769E+01  0.51100000000E-03 0. -1.
        -11    1    3    3    0    0 -0.21582914318E+01  0.54627165330E+01 -0.42509413504E+01  0.72505169781E+01  0.51100000000E-03 0.  1.
         12    1    3    3    0    0 -0.14842785326E+02  0.17290504666E+02 -0.26914296015E+02  0.35265410218E+02  0.00000000000E+00 0. -1.
</event>
<event>
 7    1  0.7596051E-010  0.4778728E+02  0.7816164E-02  0.1312668E+00
        -11   -1    0    0    0    0  0.00000000000E+00  0.00000000000E+00  0.45593999997E+02  0.45594000000E+02  0.51100000000E-03 0. -1.
         11   -1    0    0    0    0 -0.00000000000E+00 -0.00000000000E+00 -0.45593999997E+02  0.45594000000E+02  0.51100000000E-03 0.  1.
    9900012    2    1    2    0    0 -0.36289391772E+02  0.15745041202E+01  0.23753390584E+02  0.47787279008E+02  0.20000036308E+02 0.  0.
        -12    1    1    2    0    0  0.36289391772E+02 -0.15745041202E+01 -0.23753390584E+02  0.43400720992E+02  0.00000000000E+00 0.  1.
         11    1    3    3    0    0 -0.23922526402E+02  0.34924179308E+01  0.24342764477E+02  0.34308226930E+02  0.51100000000E-03 0. -1.
        -11    1    3    3    0    0 -0.55332447330E+00 -0.15241378813E+01  0.19392197893E+00  0.16330248770E+01  0.51100000000E-03 0.  1.
        -12    1    3    3    0    0 -0.11813540897E+02 -0.39377592934E+00 -0.78329587231E+00  0.11846027200E+02  0.00000000000E+00 0.  1.
</event>
<event>
 7    1  0.7596051E-010  0.4778727E+02  0.7816164E-02  0.1312668E+00
        -11   -1    0    0    0    0  0.00000000000E+00  0.00000000000E+00  0.45593999997E+02  0.45594000000E+02  0.51100000000E-03 0. -1.
         11   -1    0    0    0    0 -0.00000000000E+00 -0.00000000000E+00 -0.45593999997E+02  0.45594000000E+02  0.51100000000E-03 0.  1.
    9900012    2    1    2    0    0 -0.44485660841E+01  0.36600360227E+02 -0.22896447888E+02  0.47787269190E+02  0.19999991545E+02 0.  0.
         12    1    1    2    0    0  0.44485660841E+01 -0.36600360227E+02  0.22896447888E+02  0.43400730810E+02  0.00000000000E+00 0. -1.
         11    1    3    3    0    0 -0.55363269938E+01  0.75916306919E+01 -0.91294580281E+01  0.13100793002E+02  0.51100000000E-03 0. -1.
        -11    1    3    3    0    0 -0.56866196982E+01  0.14902934548E+02 -0.90660132774E+01  0.18347416678E+02  0.51100000000E-03 0.  1.
         12    1    3    3    0    0  0.67743806079E+01  0.14105794987E+02 -0.47009765826E+01  0.16339059510E+02  0.00000000000E+00 0. -1.
</event>
<event>
 7    1  0.7596051E-010  0.4778727E+02  0.7816164E-02  0.1312668E+00
        -11   -1    0    0    0    0  0.00000000000E+00  0.00000000000E+00  0.45593999997E+02  0.45594000000E+02  0.51100000000E-03 0. -1.
         11   -1    0    0    0    0 -0.00000000000E+00 -0.00000000000E+00 -0.45593999997E+02  0.45594000000E+02  0.51100000000E-03 0.  1.
    9900012    2    1    2    0    0 -0.81651258597E+01 -0.42837614890E+01  0.42409945644E+02  0.47787269795E+02  0.19999994303E+02 0.  0.
        -12    1    1    2    0    0  0.81651258597E+01  0.42837614890E+01 -0.42409945644E+02  0.43400730205E+02  0.00000000000E+00 0.  1.
         11    1    3    3    0    0 -0.13817174236E+01 -0.37768083469E+01  0.14814804862E+02  0.15350956572E+02  0.51100000000E-03 0. -1.
        -11    1    3    3    0    0  0.32418860848E+01 -0.50764954543E+01  0.93214242032E+01  0.11098179171E+02  0.51100000000E-03 0.  1.
        -12    1    3    3    0    0 -0.10025294521E+02  0.45695423121E+01  0.18273716579E+02  0.21338134051E+02  0.00000000000E+00 0.  1.
</event>
<event>
 7    1  0.7596051E-010  0.4778728E+02  0.7816164E-02  0.1312668E+00
        -11   -1    0    0    0    0  0.00000000000E+00  0.00000000000E+00  0.45593999997E+02  0.45594000000E+02  0.51100000000E-03 0. -1.
         11   -1    0    0    0    0 -0.00000000000E+00 -0.00000000000E+00 -0.45593999997E+02  0.45594000000E+02  0.51100000000E-03 0.  1.
    9900012    2    1    2    0    0 -0.69961547712E+01  0.41102750987E+02  0.12051567866E+02  0.47787278712E+02  0.20000034959E+02 0.  0.
        -12    1    1    2    0    0  0.69961547712E+01 -0.41102750987E+02 -0.12051567866E+02  0.43400721288E+02  0.00000000000E+00 0.  1.
         11    1    3    3    0    0  0.81643403222E+00 -0.99747922519E+00  0.55867708729E-01  0.12902134690E+01  0.51100000000E-03 0. -1.
        -11    1    3    3    0    0 -0.69920382877E+00  0.56001398370E+01  0.69759997356E+01  0.89730164805E+01  0.51100000000E-03 0.  1.
         12    1    3    3    0    0 -0.71133849747E+01  0.36500090375E+02  0.50197004220E+01  0.37524048762E+02  0.00000000000E+00 0. -1.
</event>
<event>
 7    1  0.7596051E-010  0.4778727E+02  0.7816164E-02  0.1312668E+00
        -11   -1    0    0    0    0  0.00000000000E+00  0.00000000000E+00  0.45593999997E+02  0.45594000000E+02  0.51100000000E-03 0. -1.
         11   -1    0    0    0    0 -0.00000000000E+00 -0.00000000000E+00 -0.45593999997E+02  0.45594000000E+02  0.51100000000E-03 0.  1.
    9900012    2    1    2    0    0 -0.18501914528E+02  0.13932767767E+01 -0.39234698254E+02  0.47787267190E+02  0.19999982426E+02 0.  0.
         12    1    1    2    0    0  0.18501914528E+02 -0.13932767767E+01  0.39234698254E+02  0.43400732810E+02  0.00000000000E+00 0. -1.
         11    1    3    3    0    0 -0.38658051891E+01 -0.11325421763E+01 -0.29345623082E+01  0.49838496910E+01  0.51100000000E-03 0. -1.
        -11    1    3    3    0    0  0.33692766447E+01  0.35738432797E+00 -0.12079040169E+02  0.12545236560E+02  0.51100000000E-03 0.  1.
        -12    1    3    3    0    0 -0.18005385983E+02  0.21684346250E+01 -0.24221095777E+02  0.30258180939E+02  0.00000000000E+00 0.  1.
</event>
<event>
 7    1  0.7596051E-010  0.4778727E+02  0.7816164E-02  0.1312668E+00
        -11   -1    0    0    0    0  0.00000000000E+00  0.00000000000E+00  0.45593999997E+02  0.45594000000E+02  0.51100000000E-03 0. -1.
         11   -1    0    0    0    0 -0.00000000000E+00 -0.00000000000E+00 -0.45593999997E+02  0.45594000000E+02  0.51100000000E-03 0.  1.
    9900012    2    1    2    0    0 -0.20438116014E+02  0.10139184399E+02  0.36920232077E+02  0.47787272090E+02  0.20000004769E+02 0.  0.
        -12    1    1    2    0    0  0.20438116014E+02 -0.10139184399E+02 -0.36920232077E+02  0.43400727910E+02  0.00000000000E+00 0.  1.
         11    1    3    3    0    0 -0.16235465852E+01 -0.35319066040E+01  0.80326088814E+00  0.39693193483E+01  0.51100000000E-03 0.  1.
        -11    1    3    3    0    0 -0.60829204927E+01  0.67510036784E+01  0.76643936101E+01  0.11887846822E+02  0.51100000000E-03 0. -1.
        -12    1    3    3    0    0 -0.12731648937E+02  0.69200873244E+01  0.28452577578E+02  0.31930105920E+02  0.00000000000E+00 0.  1.
</event>
<event>
 7    1  0.7596051E-010  0.4778727E+02  0.7816164E-02  0.1312668E+00
        -11   -1    0    0    0    0  0.00000000000E+00  0.00000000000E+00  0.45593999997E+02  0.45594000000E+02  0.51100000000E-03 0. -1.
         11   -1    0    0    0    0 -0.00000000000E+00 -0.00000000000E+00 -0.45593999997E+02  0.45594000000E+02  0.51100000000E-03 0.  1.
    9900012    2    1    2    0    0 -0.11794779337E+02  0.10035786193E+02 -0.40543674036E+02  0.47787270415E+02  0.19999997132E+02 0.  0.
         12    1    1    2    0    0  0.11794779337E+02 -0.10035786193E+02  0.40543674036E+02  0.43400729585E+02  0.00000000000E+00 0. -1.
         11    1    3    3    0    0 -0.53131113841E+01  0.83334758951E+01 -0.12859056215E+02  0.16218239734E+02  0.51100000000E-03 0. -1.
        -11    1    3    3    0    0 -0.91785976958E+01  0.15492193242E+01 -0.99323988200E+01  0.13612467916E+02  0.51100000000E-03 0.  1.
        -12    1    3    3    0    0  0.26969297427E+01  0.15309097415E+00 -0.17752219001E+02  0.17956562765E+02  0.00000000000E+00 0.  1.
</event>
<event>
 7    1  0.7596051E-010  0.4778727E+02  0.7816164E-02  0.1312668E+00
        -11   -1    0    0    0    0  0.00000000000E+00  0.00000000000E+00  0.45593999997E+02  0.45594000000E+02  0.51100000000E-03 0. -1.
         11   -1    0    0    0    0 -0.00000000000E+00 -0.00000000000E+00 -0.45593999997E+02  0.45594000000E+02  0.51100000000E-03 0.  1.
    9900012    2    1    2    0    0 -0.17762096757E+02  0.13631677990E+02 -0.37179411360E+02  0.47787270109E+02  0.19999995734E+02 0.  0.
         12    1    1    2    0    0  0.17762096757E+02 -0.13631677990E+02  0.37179411360E+02  0.43400729891E+02  0.00000000000E+00 0. -1.
         11    1    3    3    0    0 -0.43190510440E+01 -0.20574160385E+00 -0.12357660177E+02  0.13092299142E+02  0.51100000000E-03 0. -1.
        -11    1    3    3    0    0  0.12929081225E+01  0.62075085575E+01 -0.12534329738E+02  0.14046857163E+02  0.51100000000E-03 0.  1.
         12    1    3    3    0    0 -0.14735953836E+02  0.76299110367E+01 -0.12287421444E+02  0.20648113803E+02  0.00000000000E+00 0. -1.
</event>
<event>
 7    1  0.7596051E-010  0.4778728E+02  0.7816164E-02  0.1312668E+00
        -11   -1    0    0    0    0  0.00000000000E+00  0.00000000000E+00  0.45593999997E+02  0.45594000000E+02  0.51100000000E-03 0. -1.
         11   -1    0    0    0    0 -0.00000000000E+00 -0.00000000000E+00 -0.45593999997E+02  0.45594000000E+02  0.51100000000E-03 0.  1.
    9900012    2    1    2    0    0  0.13895316432E+02 -0.14229155465E+02 -0.38575560855E+02  0.47787279047E+02  0.20000036487E+02 0.  0.
         12    1    1    2    0    0 -0.13895316432E+02  0.14229155465E+02  0.38575560855E+02  0.43400720953E+02  0.00000000000E+00 0. -1.
         11    1    3    3    0    0  0.53270351434E+01 -0.24819089860E+01 -0.97210715776E+00  0.59566910463E+01  0.51100000000E-03 0. -1.
        -11    1    3    3    0    0 -0.32086868490E+00  0.19490486750E+01 -0.47128251004E+01  0.51100360213E+01  0.51100000000E-03 0.  1.
        -12    1    3    3    0    0  0.88891499730E+01 -0.13696295154E+02 -0.32890628597E+02  0.36720551979E+02  0.00000000000E+00 0.  1.
</event>
<event>
 7    1  0.7596051E-010  0.4778727E+02  0.7816164E-02  0.1312668E+00
        -11   -1    0    0    0    0  0.00000000000E+00  0.00000000000E+00  0.45593999997E+02  0.45594000000E+02  0.51100000000E-03 0. -1.
         11   -1    0    0    0    0 -0.00000000000E+00 -0.00000000000E+00 -0.45593999997E+02  0.45594000000E+02  0.51100000000E-03 0.  1.
    9900012    2    1    2    0    0  0.36683180375E+02  0.11195964523E+02  0.20312999329E+02  0.47787270908E+02  0.19999999378E+02 0.  0.
        -12    1    1    2    0    0 -0.36683180375E+02 -0.11195964523E+02 -0.20312999329E+02  0.43400729092E+02  0.00000000000E+00 0.  1.
         11    1    3    3    0    0  0.69944691438E+01  0.43612667728E+01 -0.16347038000E+00  0.82443901711E+01  0.51100000000E-03 0. -1.
        -11    1    3    3    0    0  0.38485893357E+01  0.71146927680E+00 -0.23154993101E+01  0.45474570612E+01  0.51100000000E-03 0.  1.
        -12    1    3    3    0    0  0.25840121895E+02  0.61232284734E+01  0.22791969019E+02  0.34995423676E+02  0.00000000000E+00 0.  1.
</event>
<event>
 7    1  0.1066303E-009  0.4778727E+02  0.7816164E-02  0.1312668E+00
        -11   -1    0    0    0    0  0.00000000000E+00  0.00000000000E+00  0.45593999997E+02  0.45594000000E+02  0.51100000000E-03 0. -1.
         11   -1    0    0    0    0 -0.00000000000E+00 -0.00000000000E+00 -0.45593999997E+02  0.45594000000E+02  0.51100000000E-03 0.  1.
    9900012    2    1    2    0    0  0.18161548825E+02 -0.52867699258E+01  0.39061894321E+02  0.47787269823E+02  0.19999994432E+02 0.  0.
        -12    1    1    2    0    0 -0.18161548825E+02  0.52867699258E+01 -0.39061894321E+02  0.43400730177E+02  0.00000000000E+00 0.  1.
         11    1    3    3    0    0  0.15180242450E+01  0.22499634430E+01  0.37435168458E+00  0.27398672500E+01  0.51100000000E-03 0. -1.
        -11    1    3    3    0    0 -0.50501059963E-01  0.11716917978E+00  0.15349261806E+02  0.15349792090E+02  0.51100000000E-03 0.  1.
         12    1    3    3    0    0  0.16694025640E+02 -0.76539025485E+01  0.23338280831E+02  0.29697610483E+02  0.00000000000E+00 0. -1.
</event>
<event>
 7    1  0.7596051E-010  0.4778725E+02  0.7816164E-02  0.1312668E+00
        -11   -1    0    0    0    0  0.00000000000E+00  0.00000000000E+00  0.45593999997E+02  0.45594000000E+02  0.51100000000E-03 0. -1.
         11   -1    0    0    0    0 -0.00000000000E+00 -0.00000000000E+00 -0.45593999997E+02  0.45594000000E+02  0.51100000000E-03 0.  1.
    9900012    2    1    2    0    0  0.18663310240E+02  0.21426797729E+02  0.32805459980E+02  0.47787250991E+02  0.19999908570E+02 0.  0.
        -12    1    1    2    0    0 -0.18663310240E+02 -0.21426797729E+02 -0.32805459980E+02  0.43400749009E+02  0.00000000000E+00 0.  1.
         11    1    3    3    0    0  0.13526332618E+02  0.10746292450E+02  0.15271783338E+02  0.23058010367E+02  0.51100000000E-03 0. -1.
        -11    1    3    3    0    0  0.52339348085E+01 -0.90422242577E+00  0.85649064441E+01  0.10078160270E+02  0.51100000000E-03 0.  1.
        -12    1    3    3    0    0 -0.96957186442E-01  0.11584727704E+02  0.89687701981E+01  0.14651080354E+02  0.00000000000E+00 0.  1.
</event>
<event>
 7    1  0.7596051E-010  0.4778727E+02  0.7816164E-02  0.1312668E+00
        -11   -1    0    0    0    0  0.00000000000E+00  0.00000000000E+00  0.45593999997E+02  0.45594000000E+02  0.51100000000E-03 0. -1.
         11   -1    0    0    0    0 -0.00000000000E+00 -0.00000000000E+00 -0.45593999997E+02  0.45594000000E+02  0.51100000000E-03 0.  1.
    9900012    2    1    2    0    0 -0.27862671694E+02 -0.30204717327E+02  0.13963163568E+02  0.47787270057E+02  0.19999995499E+02 0.  0.
        -12    1    1    2    0    0  0.27862671694E+02  0.30204717327E+02 -0.13963163568E+02  0.43400729943E+02  0.00000000000E+00 0.  1.
         11    1    3    3    0    0 -0.19108045203E+02 -0.19372530692E+02  0.27036643608E+01  0.27344508372E+02  0.51100000000E-03 0. -1.
        -11    1    3    3    0    0 -0.21334997865E+01 -0.22273634319E-01 -0.13804993610E+01  0.25412784579E+01  0.51100000000E-03 0.  1.
         12    1    3    3    0    0 -0.66211267047E+01 -0.10809913001E+02  0.12639998568E+02  0.17901483227E+02  0.00000000000E+00 0. -1.
</event>
<event>
 7    1  0.7596051E-010  0.4778727E+02  0.7816164E-02  0.1312668E+00
        -11   -1    0    0    0    0  0.00000000000E+00  0.00000000000E+00  0.45593999997E+02  0.45594000000E+02  0.51100000000E-03 0. -1.
         11   -1    0    0    0    0 -0.00000000000E+00 -0.00000000000E+00 -0.45593999997E+02  0.45594000000E+02  0.51100000000E-03 0.  1.
    9900012    2    1    2    0    0  0.40650050245E+02 -0.83602826952E+00  0.15182156038E+02  0.47787269704E+02  0.19999993890E+02 0.  0.
        -12    1    1    2    0    0 -0.40650050245E+02  0.83602826952E+00 -0.15182156038E+02  0.43400730296E+02  0.00000000000E+00 0.  1.
         11    1    3    3    0    0  0.21645983008E+00 -0.19285991731E+01  0.68854061958E+00  0.20592323993E+01  0.51100000000E-03 0.  1.
        -11    1    3    3    0    0  0.12174215175E+00  0.26843853782E+01 -0.41340004071E+00  0.27187581476E+01  0.51100000000E-03 0. -1.
         12    1    3    3    0    0  0.40311848264E+02 -0.15918144747E+01  0.14907015459E+02  0.43009279158E+02  0.00000000000E+00 0. -1.
</event>
<event>
 7    1  0.7596051E-010  0.4778727E+02  0.7816164E-02  0.1312668E+00
        -11   -1    0    0    0    0  0.00000000000E+00  0.00000000000E+00  0.45593999997E+02  0.45594000000E+02  0.51100000000E-03 0. -1.
         11   -1    0    0    0    0 -0.00000000000E+00 -0.00000000000E+00 -0.45593999997E+02  0.45594000000E+02  0.51100000000E-03 0.  1.
    9900012    2    1    2    0    0 -0.21651256529E+01 -0.15035152622E+02 -0.40655621975E+02  0.47787272107E+02  0.20000004846E+02 0.  0.
         12    1    1    2    0    0  0.21651256529E+01  0.15035152622E+02  0.40655621975E+02  0.43400727893E+02  0.00000000000E+00 0. -1.
         11    1    3    3    0    0 -0.56825839486E+00 -0.51671033570E+01 -0.99169983862E+01  0.11196817939E+02  0.51100000000E-03 0.  1.
        -11    1    3    3    0    0  0.26468052612E+01 -0.10779421654E+02 -0.86300549873E+01  0.14059849168E+02  0.51100000000E-03 0. -1.
         12    1    3    3    0    0 -0.42436725193E+01  0.91137238916E+00 -0.22108568601E+02  0.22530605000E+02  0.00000000000E+00 0. -1.
</event>
<event>
 7    1  0.7596051E-010  0.4778727E+02  0.7816164E-02  0.1312668E+00
        -11   -1    0    0    0    0  0.00000000000E+00  0.00000000000E+00  0.45593999997E+02  0.45594000000E+02  0.51100000000E-03 0. -1.
         11   -1    0    0    0    0 -0.00000000000E+00 -0.00000000000E+00 -0.45593999997E+02  0.45594000000E+02  0.51100000000E-03 0.  1.
    9900012    2    1    2    0    0 -0.13486704174E+02  0.34503067541E+02 -0.22611288925E+02  0.47787271365E+02  0.20000001463E+02 0.  0.
         12    1    1    2    0    0  0.13486704174E+02 -0.34503067541E+02  0.22611288925E+02  0.43400728635E+02  0.00000000000E+00 0. -1.
         11    1    3    3    0    0 -0.37642407404E+00 -0.13008702263E+01 -0.17167654786E+01  0.21866052225E+01  0.51100000000E-03 0. -1.
        -11    1    3    3    0    0 -0.92613425715E+01  0.16901645367E+02 -0.17463129414E+02  0.26007671398E+02  0.51100000000E-03 0.  1.
        -12    1    3    3    0    0 -0.38489375281E+01  0.18902292400E+02 -0.34313940322E+01  0.19592994745E+02  0.00000000000E+00 0.  1.
</event>
<event>
 7    1  0.7596051E-010  0.4778727E+02  0.7816164E-02  0.1312668E+00
        -11   -1    0    0    0    0  0.00000000000E+00  0.00000000000E+00  0.45593999997E+02  0.45594000000E+02  0.51100000000E-03 0. -1.
         11   -1    0    0    0    0 -0.00000000000E+00 -0.00000000000E+00 -0.45593999997E+02  0.45594000000E+02  0.51100000000E-03 0.  1.
    9900012    2    1    2    0    0 -0.26455132892E+02  0.28061961904E+02  0.19906666930E+02  0.47787272466E+02  0.20000006482E+02 0.  0.
        -12    1    1    2    0    0  0.26455132892E+02 -0.28061961904E+02 -0.19906666930E+02  0.43400727534E+02  0.00000000000E+00 0.  1.
         11    1    3    3    0    0 -0.68152179356E+01  0.65908657416E+01 -0.97595517474E+00  0.95309598413E+01  0.51100000000E-03 0. -1.
        -11    1    3    3    0    0 -0.78375539995E+01  0.38600363584E+00  0.42766507523E+01  0.89367775747E+01  0.51100000000E-03 0.  1.
         12    1    3    3    0    0 -0.11802360957E+02  0.21085092526E+02  0.16605971352E+02  0.29319535050E+02  0.00000000000E+00 0. -1.
</event>
<event>
 7    1  0.7596051E-010  0.4778727E+02  0.7816164E-02  0.1312668E+00
        -11   -1    0    0    0    0  0.00000000000E+00  0.00000000000E+00  0.45593999997E+02  0.45594000000E+02  0.51100000000E-03 0. -1.
         11   -1    0    0    0    0 -0.00000000000E+00 -0.00000000000E+00 -0.45593999997E+02  0.45594000000E+02  0.51100000000E-03 0.  1.
    9900012    2    1    2    0    0 -0.81628200761E+01 -0.28398645793E+02  0.31788497599E+02  0.47787270811E+02  0.19999998936E+02 0.  0.
        -12    1    1    2    0    0  0.81628200761E+01  0.28398645793E+02 -0.31788497599E+02  0.43400729189E+02  0.00000000000E+00 0.  1.
         11    1    3    3    0    0 -0.66167379364E+01 -0.63667452465E+01  0.43892305811E+01  0.10177524812E+02  0.51100000000E-03 0. -1.
        -11    1    3    3    0    0 -0.13241750002E+01 -0.29607340661E+01 -0.10056968412E+01  0.33957049399E+01  0.51100000000E-03 0.  1.
        -12    1    3    3    0    0 -0.22190713950E+00 -0.19071166481E+02  0.28404963860E+02  0.34214041059E+02  0.00000000000E+00 0.  1.
</event>
<event>
 7    1  0.7596051E-010  0.4778725E+02  0.7816164E-02  0.1312668E+00
        -11   -1    0    0    0    0  0.00000000000E+00  0.00000000000E+00  0.45593999997E+02  0.45594000000E+02  0.51100000000E-03 0. -1.
         11   -1    0    0    0    0 -0.00000000000E+00 -0.00000000000E+00 -0.45593999997E+02  0.45594000000E+02  0.51100000000E-03 0.  1.
    9900012    2    1    2    0    0  0.16786589196E+02 -0.18681343130E+02  0.35395525795E+02  0.47787246501E+02  0.19999888097E+02 0.  0.
        -12    1    1    2    0    0 -0.16786589196E+02  0.18681343130E+02 -0.35395525795E+02  0.43400753499E+02  0.00000000000E+00 0.  1.
         11    1    3    3    0    0 -0.19183748670E+00 -0.14276899157E+02  0.15583719236E+02  0.21135727019E+02  0.51100000000E-03 0. -1.
        -11    1    3    3    0    0  0.35977017537E+01 -0.19977881696E+01  0.59588777009E+01  0.72417428285E+01  0.51100000000E-03 0.  1.
         12    1    3    3    0    0  0.13380724929E+02 -0.24066558030E+01  0.13852928858E+02  0.19409776653E+02  0.00000000000E+00 0. -1.
</event>
<event>
 7    1  0.9923834E-010  0.4778727E+02  0.7816164E-02  0.1312668E+00
        -11   -1    0    0    0    0  0.00000000000E+00  0.00000000000E+00  0.45593999997E+02  0.45594000000E+02  0.51100000000E-03 0. -1.
         11   -1    0    0    0    0 -0.00000000000E+00 -0.00000000000E+00 -0.45593999997E+02  0.45594000000E+02  0.51100000000E-03 0.  1.
    9900012    2    1    2    0    0  0.87966858624E+01 -0.15822214569E+02  0.39444890435E+02  0.47787268008E+02  0.19999986156E+02 0.  0.
        -12    1    1    2    0    0 -0.87966858624E+01  0.15822214569E+02 -0.39444890435E+02  0.43400731992E+02  0.00000000000E+00 0.  1.
         11    1    3    3    0    0  0.49406333856E+01 -0.19660770434E+01  0.33535577584E+01  0.62866260499E+01  0.51100000000E-03 0. -1.
        -11    1    3    3    0    0  0.30202902300E+01  0.24419966674E+01  0.45097962238E+01  0.59517865418E+01  0.51100000000E-03 0.  1.
         12    1    3    3    0    0  0.83576224682E+00 -0.16298134193E+02  0.31581536453E+02  0.35548855416E+02  0.00000000000E+00 0. -1.
</event>
<event>
 7    1  0.7596051E-010  0.4778727E+02  0.7816164E-02  0.1312668E+00
        -11   -1    0    0    0    0  0.00000000000E+00  0.00000000000E+00  0.45593999997E+02  0.45594000000E+02  0.51100000000E-03 0. -1.
         11   -1    0    0    0    0 -0.00000000000E+00 -0.00000000000E+00 -0.45593999997E+02  0.45594000000E+02  0.51100000000E-03 0.  1.
    9900012    2    1    2    0    0 -0.14036572177E+01 -0.20405376593E+02 -0.38278893297E+02  0.47787270518E+02  0.19999997602E+02 0.  0.
         12    1    1    2    0    0  0.14036572177E+01  0.20405376593E+02  0.38278893297E+02  0.43400729482E+02  0.00000000000E+00 0. -1.
         11    1    3    3    0    0 -0.15286363208E+01 -0.86216709239E+01 -0.15961086257E+02  0.18205115031E+02  0.51100000000E-03 0. -1.
        -11    1    3    3    0    0  0.15741629341E+00 -0.12453200112E+02 -0.24400045628E+02  0.27394692913E+02  0.51100000000E-03 0.  1.
         12    1    3    3    0    0 -0.32437190285E-01  0.66949444276E+00  0.20822385875E+01  0.21874625746E+01  0.00000000000E+00 0. -1.
</event>
<event>
 7    1  0.7596051E-010  0.4778728E+02  0.7816164E-02  0.1312668E+00
        -11   -1    0    0    0    0  0.00000000000E+00  0.00000000000E+00  0.45593999997E+02  0.45594000000E+02  0.51100000000E-03 0. -1.
         11   -1    0    0    0    0 -0.00000000000E+00 -0.00000000000E+00 -0.45593999997E+02  0.45594000000E+02  0.51100000000E-03 0.  1.
    9900012    2    1    2    0    0 -0.14061023579E+02  0.11973647575E+02 -0.39275201782E+02  0.47787284621E+02  0.20000061903E+02 0.  0.
         12    1    1    2    0    0  0.14061023579E+02 -0.11973647575E+02  0.39275201782E+02  0.43400715379E+02  0.00000000000E+00 0. -1.
         11    1    3    3    0    0 -0.61792618915E+01  0.47576323848E+01 -0.11727301865E+02  0.14083605814E+02  0.51100000000E-03 0. -1.
        -11    1    3    3    0    0 -0.81855417921E+01  0.10437112386E+01 -0.26076729624E+02  0.27351202089E+02  0.51100000000E-03 0.  1.
         12    1    3    3    0    0  0.30378010471E+00  0.61723039517E+01 -0.14711702935E+01  0.63524767183E+01  0.00000000000E+00 0. -1.
</event>
<event>
 7    1  0.7596051E-010  0.4778727E+02  0.7816164E-02  0.1312668E+00
        -11   -1    0    0    0    0  0.00000000000E+00  0.00000000000E+00  0.45593999997E+02  0.45594000000E+02  0.51100000000E-03 0. -1.
         11   -1    0    0    0    0 -0.00000000000E+00 -0.00000000000E+00 -0.45593999997E+02  0.45594000000E+02  0.51100000000E-03 0.  1.
    9900012    2    1    2    0    0  0.21202716776E+02 -0.12609046377E+01 -0.37848098565E+02  0.47787266779E+02  0.19999980550E+02 0.  0.
         12    1    1    2    0    0 -0.21202716776E+02  0.12609046377E+01  0.37848098565E+02  0.43400733221E+02  0.00000000000E+00 0. -1.
         11    1    3    3    0    0  0.13224939295E+00  0.38544399144E+01 -0.43593557605E+01  0.58204965307E+01  0.51100000000E-03 0. -1.
        -11    1    3    3    0    0  0.97939378206E+00 -0.23970384902E+01  0.25380527558E+00  0.26018115003E+01  0.51100000000E-03 0.  1.
        -12    1    3    3    0    0  0.20091073601E+02 -0.27183060619E+01 -0.33742548080E+02  0.39364958748E+02  0.00000000000E+00 0.  1.
</event>
<event>
 7    1  0.7596051E-010  0.4778727E+02  0.7816164E-02  0.1312668E+00
        -11   -1    0    0    0    0  0.00000000000E+00  0.00000000000E+00  0.45593999997E+02  0.45594000000E+02  0.51100000000E-03 0. -1.
         11   -1    0    0    0    0 -0.00000000000E+00 -0.00000000000E+00 -0.45593999997E+02  0.45594000000E+02  0.51100000000E-03 0.  1.
    9900012    2    1    2    0    0 -0.20058726665E+02  0.44413117110E+01  0.38230160791E+02  0.47787274670E+02  0.20000016528E+02 0.  0.
        -12    1    1    2    0    0  0.20058726665E+02 -0.44413117110E+01 -0.38230160791E+02  0.43400725330E+02  0.00000000000E+00 0.  1.
         11    1    3    3    0    0 -0.17461092072E+01  0.26766940225E+01  0.45652938282E+01  0.55727458450E+01  0.51100000000E-03 0. -1.
        -11    1    3    3    0    0 -0.19697779992E+00 -0.58239384770E+01  0.79442155845E+01  0.98522901475E+01  0.51100000000E-03 0.  1.
         12    1    3    3    0    0 -0.18115639658E+02  0.75885561656E+01  0.25720651378E+02  0.32362238677E+02  0.00000000000E+00 0. -1.
</event>
<event>
 7    1  0.7596051E-010  0.4778727E+02  0.7816164E-02  0.1312668E+00
        -11   -1    0    0    0    0  0.00000000000E+00  0.00000000000E+00  0.45593999997E+02  0.45594000000E+02  0.51100000000E-03 0. -1.
         11   -1    0    0    0    0 -0.00000000000E+00 -0.00000000000E+00 -0.45593999997E+02  0.45594000000E+02  0.51100000000E-03 0.  1.
    9900012    2    1    2    0    0 -0.60415165951E+00  0.18863634647E+02  0.39082240975E+02  0.47787271078E+02  0.20000000154E+02 0.  0.
        -12    1    1    2    0    0  0.60415165951E+00 -0.18863634647E+02 -0.39082240975E+02  0.43400728922E+02  0.00000000000E+00 0.  1.
         11    1    3    3    0    0  0.91633671584E+00 -0.18043041778E+00  0.33709115812E+00  0.99290423630E+00  0.51100000000E-03 0.  1.
        -11    1    3    3    0    0  0.60587172539E+00  0.21688026739E+02  0.37203038178E+02  0.43067431248E+02  0.51100000000E-03 0. -1.
         12    1    3    3    0    0 -0.21263601007E+01 -0.26439616745E+01  0.15421116391E+01  0.37269355940E+01  0.00000000000E+00 0. -1.
</event>
<event>
 7    1  0.7596051E-010  0.4778727E+02  0.7816164E-02  0.1312668E+00
        -11   -1    0    0    0    0  0.00000000000E+00  0.00000000000E+00  0.45593999997E+02  0.45594000000E+02  0.51100000000E-03 0. -1.
         11   -1    0    0    0    0 -0.00000000000E+00 -0.00000000000E+00 -0.45593999997E+02  0.45594000000E+02  0.51100000000E-03 0.  1.
    9900012    2    1    2    0    0  0.24473588114E+02 -0.19206817686E+02 -0.30261609520E+02  0.47787269920E+02  0.19999994872E+02 0.  0.
         12    1    1    2    0    0 -0.24473588114E+02  0.19206817686E+02  0.30261609520E+02  0.43400730080E+02  0.00000000000E+00 0. -1.
         11    1    3    3    0    0  0.75362389507E+00 -0.26646235699E+01 -0.86844590830E+00  0.29021313377E+01  0.51100000000E-03 0. -1.
        -11    1    3    3    0    0  0.20552938523E+02 -0.40253732274E+01 -0.16794300548E+02  0.26845398911E+02  0.51100000000E-03 0.  1.
        -12    1    3    3    0    0  0.31670256963E+01 -0.12516820889E+02 -0.12598863063E+02  0.18039739671E+02  0.00000000000E+00 0.  1.
</event>
<event>
 7    1  0.7596051E-010  0.4778726E+02  0.7816164E-02  0.1312668E+00
        -11   -1    0    0    0    0  0.00000000000E+00  0.00000000000E+00  0.45593999997E+02  0.45594000000E+02  0.51100000000E-03 0. -1.
         11   -1    0    0    0    0 -0.00000000000E+00 -0.00000000000E+00 -0.45593999997E+02  0.45594000000E+02  0.51100000000E-03 0.  1.
    9900012    2    1    2    0    0  0.71673055520E-01  0.20910441187E+02 -0.38031205830E+02  0.47787259171E+02  0.19999945863E+02 0.  0.
         12    1    1    2    0    0 -0.71673055520E-01 -0.20910441187E+02  0.38031205830E+02  0.43400740829E+02  0.00000000000E+00 0. -1.
         11    1    3    3    0    0 -0.18628827044E+01  0.15527453973E+02 -0.14872761089E+02  0.21581732589E+02  0.51100000000E-03 0. -1.
        -11    1    3    3    0    0 -0.36351510592E+01  0.55545282618E+01 -0.13802158449E+02  0.15315570036E+02  0.51100000000E-03 0.  1.
         12    1    3    3    0    0  0.55697068191E+01 -0.17154104790E+00 -0.93562862924E+01  0.10889956546E+02  0.00000000000E+00 0. -1.
</event>
<event>
 7    1  0.7596051E-010  0.4778733E+02  0.7816164E-02  0.1312668E+00
        -11   -1    0    0    0    0  0.00000000000E+00  0.00000000000E+00  0.45593999997E+02  0.45594000000E+02  0.51100000000E-03 0. -1.
         11   -1    0    0    0    0 -0.00000000000E+00 -0.00000000000E+00 -0.45593999997E+02  0.45594000000E+02  0.51100000000E-03 0.  1.
    9900012    2    1    2    0    0  0.42297380748E+01  0.15168528277E+02 -0.40443091215E+02  0.47787325336E+02  0.20000247536E+02 0.  0.
         12    1    1    2    0    0 -0.42297380748E+01 -0.15168528277E+02  0.40443091215E+02  0.43400674664E+02  0.00000000000E+00 0. -1.
         11    1    3    3    0    0 -0.26846271170E+01  0.59191096670E+01 -0.52067661531E+01  0.83278746413E+01  0.51100000000E-03 0. -1.
        -11    1    3    3    0    0 -0.17036709658E-01  0.12991009198E+01  0.10504843281E+01  0.16707695933E+01  0.51100000000E-03 0.  1.
        -12    1    3    3    0    0  0.69314019014E+01  0.79503176902E+01 -0.36286809390E+02  0.37788681101E+02  0.00000000000E+00 0.  1.
</event>
<event>
 7    1  0.7596051E-010  0.4778727E+02  0.7816164E-02  0.1312668E+00
        -11   -1    0    0    0    0  0.00000000000E+00  0.00000000000E+00  0.45593999997E+02  0.45594000000E+02  0.51100000000E-03 0. -1.
         11   -1    0    0    0    0 -0.00000000000E+00 -0.00000000000E+00 -0.45593999997E+02  0.45594000000E+02  0.51100000000E-03 0.  1.
    9900012    2    1    2    0    0 -0.70208950334E+01 -0.86608863818E+01 -0.41944242084E+02  0.47787270006E+02  0.19999995267E+02 0.  0.
         12    1    1    2    0    0  0.70208950334E+01  0.86608863818E+01  0.41944242084E+02  0.43400729994E+02  0.00000000000E+00 0. -1.
         11    1    3    3    0    0 -0.91248394897E+01 -0.40396032432E+00 -0.12623098956E+02  0.15581030363E+02  0.51100000000E-03 0. -1.
        -11    1    3    3    0    0 -0.22527380312E+01 -0.32069079597E+01 -0.21818429302E+02  0.22167610263E+02  0.51100000000E-03 0.  1.
         12    1    3    3    0    0  0.43566824875E+01 -0.50500180978E+01 -0.75027138258E+01  0.10038629380E+02  0.00000000000E+00 0. -1.
</event>
<event>
 7    1  0.7596051E-010  0.4778727E+02  0.7816164E-02  0.1312668E+00
        -11   -1    0    0    0    0  0.00000000000E+00  0.00000000000E+00  0.45593999997E+02  0.45594000000E+02  0.51100000000E-03 0. -1.
         11   -1    0    0    0    0 -0.00000000000E+00 -0.00000000000E+00 -0.45593999997E+02  0.45594000000E+02  0.51100000000E-03 0.  1.
    9900012    2    1    2    0    0  0.13531291137E+02 -0.80754137679E+01  0.40439032286E+02  0.47787268674E+02  0.19999989194E+02 0.  0.
        -12    1    1    2    0    0 -0.13531291137E+02  0.80754137679E+01 -0.40439032286E+02  0.43400731326E+02  0.00000000000E+00 0.  1.
         11    1    3    3    0    0  0.18584959931E+01 -0.79647885539E+01  0.20995361265E+02  0.22532133920E+02  0.51100000000E-03 0. -1.
        -11    1    3    3    0    0  0.35839326153E+01 -0.38159404033E+01  0.18725879992E+01  0.55599064946E+01  0.51100000000E-03 0.  1.
        -12    1    3    3    0    0  0.80888625291E+01  0.37053151893E+01  0.17571083022E+02  0.19695228260E+02  0.00000000000E+00 0.  1.
</event>
<event>
 7    1  0.7596051E-010  0.4778727E+02  0.7816164E-02  0.1312668E+00
        -11   -1    0    0    0    0  0.00000000000E+00  0.00000000000E+00  0.45593999997E+02  0.45594000000E+02  0.51100000000E-03 0. -1.
         11   -1    0    0    0    0 -0.00000000000E+00 -0.00000000000E+00 -0.45593999997E+02  0.45594000000E+02  0.51100000000E-03 0.  1.
    9900012    2    1    2    0    0 -0.30317924993E+02  0.12542292253E+02  0.28410170069E+02  0.47787269197E+02  0.19999991578E+02 0.  0.
        -12    1    1    2    0    0  0.30317924993E+02 -0.12542292253E+02 -0.28410170069E+02  0.43400730803E+02  0.00000000000E+00 0.  1.
         11    1    3    3    0    0 -0.11798708605E+02  0.77101050609E+01  0.10028786645E+02  0.17298318029E+02  0.51100000000E-03 0. -1.
        -11    1    3    3    0    0 -0.56783886734E+01  0.75273838979E+01  0.13548407150E+02  0.16506512134E+02  0.51100000000E-03 0.  1.
        -12    1    3    3    0    0 -0.12840827714E+02 -0.26951967056E+01  0.48329762738E+01  0.13982439034E+02  0.00000000000E+00 0.  1.
</event>
<event>
 7    1  0.7596051E-010  0.4778727E+02  0.7816164E-02  0.1312668E+00
        -11   -1    0    0    0    0  0.00000000000E+00  0.00000000000E+00  0.45593999997E+02  0.45594000000E+02  0.51100000000E-03 0. -1.
         11   -1    0    0    0    0 -0.00000000000E+00 -0.00000000000E+00 -0.45593999997E+02  0.45594000000E+02  0.51100000000E-03 0.  1.
    9900012    2    1    2    0    0 -0.28691412655E+02  0.31783387251E+02 -0.70881831494E+01  0.47787271830E+02  0.20000003582E+02 0.  0.
        -12    1    1    2    0    0  0.28691412655E+02 -0.31783387251E+02  0.70881831494E+01  0.43400728170E+02  0.00000000000E+00 0.  1.
         11    1    3    3    0    0 -0.25095237086E+01  0.10355833933E+02  0.43865752185E+01  0.11523152698E+02  0.51100000000E-03 0. -1.
        -11    1    3    3    0    0 -0.40682035884E+01  0.20810442734E+01 -0.36762313799E+01  0.58647850024E+01  0.51100000000E-03 0.  1.
         12    1    3    3    0    0 -0.22113685358E+02  0.19346509045E+02 -0.77985269880E+01  0.30399334129E+02  0.00000000000E+00 0. -1.
</event>
<event>
 7    1  0.7596051E-010  0.4778728E+02  0.7816164E-02  0.1312668E+00
        -11   -1    0    0    0    0  0.00000000000E+00  0.00000000000E+00  0.45593999997E+02  0.45594000000E+02  0.51100000000E-03 0. -1.
         11   -1    0    0    0    0 -0.00000000000E+00 -0.00000000000E+00 -0.45593999997E+02  0.45594000000E+02  0.51100000000E-03 0.  1.
    9900012    2    1    2    0    0 -0.39298535371E+01  0.41423481568E+02  0.12339939898E+02  0.47787277762E+02  0.20000030630E+02 0.  0.
        -12    1    1    2    0    0  0.39298535371E+01 -0.41423481568E+02 -0.12339939898E+02  0.43400722238E+02  0.00000000000E+00 0.  1.
         11    1    3    3    0    0  0.34260011171E+01  0.14039578256E+02  0.11448938819E+02  0.18437067055E+02  0.51100000000E-03 0. -1.
        -11    1    3    3    0    0 -0.80005788118E+00  0.14767345239E+02  0.26470220999E+01  0.15024024237E+02  0.51100000000E-03 0.  1.
        -12    1    3    3    0    0 -0.65557967730E+01  0.12616558073E+02 -0.17560210207E+01  0.14326186470E+02  0.00000000000E+00 0.  1.
</event>
<event>
 7    1  0.7596051E-010  0.4778727E+02  0.7816164E-02  0.1312668E+00
        -11   -1    0    0    0    0  0.00000000000E+00  0.00000000000E+00  0.45593999997E+02  0.45594000000E+02  0.51100000000E-03 0.  1.
         11   -1    0    0    0    0 -0.00000000000E+00 -0.00000000000E+00 -0.45593999997E+02  0.45594000000E+02  0.51100000000E-03 0. -1.
    9900012    2    1    2    0    0 -0.28120353177E+02 -0.28603594778E+02  0.16574181093E+02  0.47787269868E+02  0.19999994638E+02 0.  0.
        -12    1    1    2    0    0  0.28120353177E+02  0.28603594778E+02 -0.16574181093E+02  0.43400730132E+02  0.00000000000E+00 0.  1.
         11    1    3    3    0    0 -0.30086372576E+01 -0.40543816077E+01  0.93633449180E-01  0.50496213573E+01  0.51100000000E-03 0. -1.
        -11    1    3    3    0    0 -0.12697657809E+01 -0.12105707111E+02  0.78878852372E+01  0.14504453922E+02  0.51100000000E-03 0.  1.
         12    1    3    3    0    0 -0.23841950139E+02 -0.12443506059E+02  0.85926624071E+01  0.28233194589E+02  0.00000000000E+00 0. -1.
</event>
<event>
 7    1  0.7596051E-010  0.4778727E+02  0.7816164E-02  0.1312668E+00
        -11   -1    0    0    0    0  0.00000000000E+00  0.00000000000E+00  0.45593999997E+02  0.45594000000E+02  0.51100000000E-03 0. -1.
         11   -1    0    0    0    0 -0.00000000000E+00 -0.00000000000E+00 -0.45593999997E+02  0.45594000000E+02  0.51100000000E-03 0.  1.
    9900012    2    1    2    0    0 -0.36210509579E+02  0.44076939316E+01  0.23515839816E+02  0.47787268531E+02  0.19999988541E+02 0.  0.
        -12    1    1    2    0    0  0.36210509579E+02 -0.44076939316E+01 -0.23515839816E+02  0.43400731469E+02  0.00000000000E+00 0.  1.
         11    1    3    3    0    0 -0.12614712439E+02  0.52399296743E+01  0.11396785811E+02  0.17789731870E+02  0.51100000000E-03 0. -1.
        -11    1    3    3    0    0 -0.70531811550E+01  0.93790443468E+00  0.11283417801E+02  0.13339510736E+02  0.51100000000E-03 0.  1.
        -12    1    3    3    0    0 -0.16542615985E+02 -0.17701401774E+01  0.83563620419E+00  0.16658025926E+02  0.00000000000E+00 0.  1.
</event>
<event>
 7    1  0.7596051E-010  0.4778727E+02  0.7816164E-02  0.1312668E+00
        -11   -1    0    0    0    0  0.00000000000E+00  0.00000000000E+00  0.45593999997E+02  0.45594000000E+02  0.51100000000E-03 0. -1.
         11   -1    0    0    0    0 -0.00000000000E+00 -0.00000000000E+00 -0.45593999997E+02  0.45594000000E+02  0.51100000000E-03 0.  1.
    9900012    2    1    2    0    0 -0.16560218846E+02  0.36474996745E+02 -0.16702014085E+02  0.47787268321E+02  0.19999987584E+02 0.  0.
         12    1    1    2    0    0  0.16560218846E+02 -0.36474996745E+02  0.16702014085E+02  0.43400731679E+02  0.00000000000E+00 0. -1.
         11    1    3    3    0    0  0.18699096806E+01  0.66315827863E+01 -0.92525274292E+00  0.69520173593E+01  0.51100000000E-03 0. -1.
        -11    1    3    3    0    0 -0.10892725224E+02  0.13864155392E+02 -0.75975419066E+00  0.17647761735E+02  0.51100000000E-03 0.  1.
        -12    1    3    3    0    0 -0.75374033024E+01  0.15979258566E+02 -0.15017007152E+02  0.23187489227E+02  0.00000000000E+00 0.  1.
</event>
<event>
 7    1  0.7596051E-010  0.4778727E+02  0.7816164E-02  0.1312668E+00
        -11   -1    0    0    0    0  0.00000000000E+00  0.00000000000E+00  0.45593999997E+02  0.45594000000E+02  0.51100000000E-03 0. -1.
         11   -1    0    0    0    0 -0.00000000000E+00 -0.00000000000E+00 -0.45593999997E+02  0.45594000000E+02  0.51100000000E-03 0.  1.
    9900012    2    1    2    0    0  0.19765552642E+02 -0.79432188605E+01  0.37813376792E+02  0.47787271187E+02  0.20000000649E+02 0.  0.
        -12    1    1    2    0    0 -0.19765552642E+02  0.79432188605E+01 -0.37813376792E+02  0.43400728813E+02  0.00000000000E+00 0.  1.
         11    1    3    3    0    0  0.82228497469E+01  0.67288145912E+00  0.13948095158E+02  0.16205473958E+02  0.51100000000E-03 0. -1.
        -11    1    3    3    0    0  0.12541849487E+02 -0.11215368365E+01  0.11308966422E+02  0.16924791142E+02  0.51100000000E-03 0.  1.
         12    1    3    3    0    0 -0.99914659097E+00 -0.74945634831E+01  0.12556315212E+02  0.14657006087E+02  0.00000000000E+00 0. -1.
</event>
<event>
 7    1  0.7596051E-010  0.4778727E+02  0.7816164E-02  0.1312668E+00
        -11   -1    0    0    0    0  0.00000000000E+00  0.00000000000E+00  0.45593999997E+02  0.45594000000E+02  0.51100000000E-03 0.  1.
         11   -1    0    0    0    0 -0.00000000000E+00 -0.00000000000E+00 -0.45593999997E+02  0.45594000000E+02  0.51100000000E-03 0. -1.
    9900012    2    1    2    0    0 -0.33867014053E+02  0.17751964013E+02 -0.20530863494E+02  0.47787271630E+02  0.20000002672E+02 0.  0.
         12    1    1    2    0    0  0.33867014053E+02 -0.17751964013E+02  0.20530863494E+02  0.43400728370E+02  0.00000000000E+00 0. -1.
         11    1    3    3    0    0 -0.15330090719E+02 -0.53078394414E+00 -0.97912333018E+01  0.18197847754E+02  0.51100000000E-03 0. -1.
        -11    1    3    3    0    0  0.41509920516E+00  0.25957885956E+01 -0.25440318815E+01  0.36582132604E+01  0.51100000000E-03 0.  1.
        -12    1    3    3    0    0 -0.18952022539E+02  0.15686959362E+02 -0.81955983106E+01  0.25931210616E+02  0.00000000000E+00 0.  1.
</event>
<event>
 7    1  0.7596051E-010  0.4778727E+02  0.7816164E-02  0.1312668E+00
        -11   -1    0    0    0    0  0.00000000000E+00  0.00000000000E+00  0.45593999997E+02  0.45594000000E+02  0.51100000000E-03 0. -1.
         11   -1    0    0    0    0 -0.00000000000E+00 -0.00000000000E+00 -0.45593999997E+02  0.45594000000E+02  0.51100000000E-03 0.  1.
    9900012    2    1    2    0    0 -0.14001658191E+01  0.20168908633E+02 -0.38404145520E+02  0.47787265756E+02  0.19999975889E+02 0.  0.
         12    1    1    2    0    0  0.14001658191E+01 -0.20168908633E+02  0.38404145520E+02  0.43400734244E+02  0.00000000000E+00 0. -1.
         11    1    3    3    0    0  0.46549559785E+01  0.98383241100E+01 -0.17349383685E+02  0.20480780038E+02  0.51100000000E-03 0. -1.
        -11    1    3    3    0    0  0.24133534569E+01  0.79607152766E+01 -0.12664695817E+02  0.15152286396E+02  0.51100000000E-03 0.  1.
         12    1    3    3    0    0 -0.84684752545E+01  0.23698692463E+01 -0.83900660185E+01  0.12154199323E+02  0.00000000000E+00 0. -1.
</event>
<event>
 7    1  0.7596051E-010  0.4778727E+02  0.7816164E-02  0.1312668E+00
        -11   -1    0    0    0    0  0.00000000000E+00  0.00000000000E+00  0.45593999997E+02  0.45594000000E+02  0.51100000000E-03 0. -1.
         11   -1    0    0    0    0 -0.00000000000E+00 -0.00000000000E+00 -0.45593999997E+02  0.45594000000E+02  0.51100000000E-03 0.  1.
    9900012    2    1    2    0    0  0.21082161571E+02  0.22009774790E+01  0.37872437202E+02  0.47787270305E+02  0.19999996630E+02 0.  0.
        -12    1    1    2    0    0 -0.21082161571E+02 -0.22009774790E+01 -0.37872437202E+02  0.43400729695E+02  0.00000000000E+00 0.  1.
         11    1    3    3    0    0  0.16235166438E+02 -0.24463358646E+00  0.20503992072E+02  0.26154429185E+02  0.51100000000E-03 0. -1.
        -11    1    3    3    0    0  0.77401286794E+01  0.24089082039E+01  0.16842904088E+02  0.18692133348E+02  0.51100000000E-03 0.  1.
        -12    1    3    3    0    0 -0.28931335458E+01  0.36702861644E-01  0.52554104215E+00  0.29407077721E+01  0.00000000000E+00 0.  1.
</event>
<event>
 7    1  0.7596051E-010  0.4778727E+02  0.7816164E-02  0.1312668E+00
        -11   -1    0    0    0    0  0.00000000000E+00  0.00000000000E+00  0.45593999997E+02  0.45594000000E+02  0.51100000000E-03 0. -1.
         11   -1    0    0    0    0 -0.00000000000E+00 -0.00000000000E+00 -0.45593999997E+02  0.45594000000E+02  0.51100000000E-03 0.  1.
    9900012    2    1    2    0    0 -0.44204332843E+00 -0.32590301832E+02 -0.28658335196E+02  0.47787270144E+02  0.19999995894E+02 0.  0.
         12    1    1    2    0    0  0.44204332843E+00  0.32590301832E+02  0.28658335196E+02  0.43400729856E+02  0.00000000000E+00 0. -1.
         11    1    3    3    0    0 -0.53690259893E+00 -0.87242351060E+01 -0.10174995767E+02  0.13413839186E+02  0.51100000000E-03 0. -1.
        -11    1    3    3    0    0 -0.22351868005E+01 -0.25726572064E+02 -0.15318059656E+02  0.30024915022E+02  0.51100000000E-03 0.  1.
         12    1    3    3    0    0  0.23300460710E+01  0.18605053375E+01 -0.31652797735E+01  0.43485159364E+01  0.00000000000E+00 0. -1.
</event>
<event>
 7    1  0.7596051E-010  0.4778727E+02  0.7816164E-02  0.1312668E+00
        -11   -1    0    0    0    0  0.00000000000E+00  0.00000000000E+00  0.45593999997E+02  0.45594000000E+02  0.51100000000E-03 0. -1.
         11   -1    0    0    0    0 -0.00000000000E+00 -0.00000000000E+00 -0.45593999997E+02  0.45594000000E+02  0.51100000000E-03 0.  1.
    9900012    2    1    2    0    0 -0.42069810545E+01  0.36579917665E+02  0.22974642162E+02  0.47787271337E+02  0.20000001334E+02 0.  0.
        -12    1    1    2    0    0  0.42069810545E+01 -0.36579917665E+02 -0.22974642162E+02  0.43400728663E+02  0.00000000000E+00 0.  1.
         11    1    3    3    0    0  0.14830369561E+01  0.10271890388E+02  0.51941752108E+01  0.11605627391E+02  0.51100000000E-03 0. -1.
        -11    1    3    3    0    0  0.49363750117E+01  0.38802878823E+01  0.13633160474E+01  0.64251897414E+01  0.51100000000E-03 0.  1.
        -12    1    3    3    0    0 -0.10626393022E+02  0.22427739395E+02  0.16417150904E+02  0.29756454205E+02  0.00000000000E+00 0.  1.
</event>
<event>
 7    1  0.7596051E-010  0.4778727E+02  0.7816164E-02  0.1312668E+00
        -11   -1    0    0    0    0  0.00000000000E+00  0.00000000000E+00  0.45593999997E+02  0.45594000000E+02  0.51100000000E-03 0. -1.
         11   -1    0    0    0    0 -0.00000000000E+00 -0.00000000000E+00 -0.45593999997E+02  0.45594000000E+02  0.51100000000E-03 0.  1.
    9900012    2    1    2    0    0  0.27384255145E+02 -0.23957168257E+01 -0.33585505983E+02  0.47787273035E+02  0.20000009077E+02 0.  0.
         12    1    1    2    0    0 -0.27384255145E+02  0.23957168257E+01  0.33585505983E+02  0.43400726965E+02  0.00000000000E+00 0. -1.
         11    1    3    3    0    0  0.40564525230E+01 -0.52327722477E+01 -0.22563995961E+01  0.69948589597E+01  0.51100000000E-03 0. -1.
        -11    1    3    3    0    0 -0.68082766427E+00  0.13260576583E+01 -0.45837941420E+01  0.48200751259E+01  0.51100000000E-03 0.  1.
        -12    1    3    3    0    0  0.24008630286E+02  0.15109977637E+01 -0.26745312245E+02  0.35972338950E+02  0.00000000000E+00 0.  1.
</event>
<event>
 7    1  0.7596051E-010  0.4778726E+02  0.7816164E-02  0.1312668E+00
        -11   -1    0    0    0    0  0.00000000000E+00  0.00000000000E+00  0.45593999997E+02  0.45594000000E+02  0.51100000000E-03 0. -1.
         11   -1    0    0    0    0 -0.00000000000E+00 -0.00000000000E+00 -0.45593999997E+02  0.45594000000E+02  0.51100000000E-03 0.  1.
    9900012    2    1    2    0    0  0.10556623205E+02 -0.19688815537E+02  0.37209308312E+02  0.47787258350E+02  0.19999942120E+02 0.  0.
        -12    1    1    2    0    0 -0.10556623205E+02  0.19688815537E+02 -0.37209308312E+02  0.43400741650E+02  0.00000000000E+00 0.  1.
         11    1    3    3    0    0  0.16539999770E+01 -0.81679695267E+01  0.11997099400E+02  0.14607595161E+02  0.51100000000E-03 0. -1.
        -11    1    3    3    0    0 -0.31760760596E+01  0.45404131684E+00  0.60277666457E+00  0.32644988318E+01  0.51100000000E-03 0.  1.
         12    1    3    3    0    0  0.12078699287E+02 -0.11974887327E+02  0.24609432247E+02  0.29915164357E+02  0.00000000000E+00 0. -1.
</event>
<event>
 7    1  0.7596051E-010  0.4778727E+02  0.7816164E-02  0.1312668E+00
        -11   -1    0    0    0    0  0.00000000000E+00  0.00000000000E+00  0.45593999997E+02  0.45594000000E+02  0.51100000000E-03 0.  1.
         11   -1    0    0    0    0 -0.00000000000E+00 -0.00000000000E+00 -0.45593999997E+02  0.45594000000E+02  0.51100000000E-03 0. -1.
    9900012    2    1    2    0    0 -0.26989642909E+02  0.31887237096E+02 -0.11763778912E+02  0.47787271800E+02  0.20000003445E+02 0.  0.
        -12    1    1    2    0    0  0.26989642909E+02 -0.31887237096E+02  0.11763778912E+02  0.43400728200E+02  0.00000000000E+00 0.  1.
         11    1    3    3    0    0 -0.50835033137E+01  0.30016683110E+01 -0.41763178555E+01  0.72314348286E+01  0.51100000000E-03 0. -1.
        -11    1    3    3    0    0 -0.77903037380E+01  0.13791497061E+01 -0.53651929084E+01  0.95590889444E+01  0.51100000000E-03 0.  1.
         12    1    3    3    0    0 -0.14115835857E+02  0.27506419079E+02 -0.22222681486E+01  0.30996748027E+02  0.00000000000E+00 0. -1.
</event>
<event>
 7    1  0.7596051E-010  0.4778728E+02  0.7816164E-02  0.1312668E+00
        -11   -1    0    0    0    0  0.00000000000E+00  0.00000000000E+00  0.45593999997E+02  0.45594000000E+02  0.51100000000E-03 0. -1.
         11   -1    0    0    0    0 -0.00000000000E+00 -0.00000000000E+00 -0.45593999997E+02  0.45594000000E+02  0.51100000000E-03 0.  1.
    9900012    2    1    2    0    0 -0.25298317492E+02 -0.27850786039E+02  0.21632188672E+02  0.47787277222E+02  0.20000028164E+02 0.  0.
        -12    1    1    2    0    0  0.25298317492E+02  0.27850786039E+02 -0.21632188672E+02  0.43400722778E+02  0.00000000000E+00 0.  1.
         11    1    3    3    0    0  0.13957121563E+01 -0.28819266627E+01 -0.60923046947E+00  0.32595514628E+01  0.51100000000E-03 0.  1.
        -11    1    3    3    0    0  0.17538459127E+00  0.10888114390E+01  0.10122914919E+01  0.14969984737E+01  0.51100000000E-03 0. -1.
         12    1    3    3    0    0 -0.26869414240E+02 -0.26057670816E+02  0.21229127649E+02  0.43030727285E+02  0.00000000000E+00 0. -1.
</event>
<event>
 7    1  0.7596051E-010  0.4778727E+02  0.7816164E-02  0.1312668E+00
        -11   -1    0    0    0    0  0.00000000000E+00  0.00000000000E+00  0.45593999997E+02  0.45594000000E+02  0.51100000000E-03 0. -1.
         11   -1    0    0    0    0 -0.00000000000E+00 -0.00000000000E+00 -0.45593999997E+02  0.45594000000E+02  0.51100000000E-03 0.  1.
    9900012    2    1    2    0    0 -0.25910181558E+02 -0.13747335218E+02 -0.31989010154E+02  0.47787268386E+02  0.19999987880E+02 0.  0.
         12    1    1    2    0    0  0.25910181558E+02  0.13747335218E+02  0.31989010154E+02  0.43400731614E+02  0.00000000000E+00 0. -1.
         11    1    3    3    0    0 -0.10730725162E+01  0.20735232689E+01 -0.56580163152E+01  0.61207950673E+01  0.51100000000E-03 0. -1.
        -11    1    3    3    0    0 -0.85312514663E+01 -0.10724042751E+02 -0.18102151842E+02  0.22704079943E+02  0.51100000000E-03 0.  1.
        -12    1    3    3    0    0 -0.16305857575E+02 -0.50968157361E+01 -0.82288419970E+01  0.18962393376E+02  0.00000000000E+00 0.  1.
</event>
<event>
 7    1  0.7596051E-010  0.4778727E+02  0.7816164E-02  0.1312668E+00
        -11   -1    0    0    0    0  0.00000000000E+00  0.00000000000E+00  0.45593999997E+02  0.45594000000E+02  0.51100000000E-03 0. -1.
         11   -1    0    0    0    0 -0.00000000000E+00 -0.00000000000E+00 -0.45593999997E+02  0.45594000000E+02  0.51100000000E-03 0.  1.
    9900012    2    1    2    0    0 -0.20278921047E+01 -0.42346261196E+02  0.92900755802E+01  0.47787266274E+02  0.19999978250E+02 0.  0.
        -12    1    1    2    0    0  0.20278921047E+01  0.42346261196E+02 -0.92900755802E+01  0.43400733726E+02  0.00000000000E+00 0.  1.
         11    1    3    3    0    0  0.34476697607E+01 -0.77281293784E+01  0.68938736049E+01  0.10914939487E+02  0.51100000000E-03 0. -1.
        -11    1    3    3    0    0 -0.31290106005E+01 -0.18066287640E+02  0.68480537325E+01  0.19572360528E+02  0.51100000000E-03 0.  1.
        -12    1    3    3    0    0 -0.23465512649E+01 -0.16551844177E+02 -0.44518517573E+01  0.17299966259E+02  0.00000000000E+00 0.  1.
</event>
<event>
 7    1  0.7596051E-010  0.4778728E+02  0.7816164E-02  0.1312668E+00
        -11   -1    0    0    0    0  0.00000000000E+00  0.00000000000E+00  0.45593999997E+02  0.45594000000E+02  0.51100000000E-03 0. -1.
         11   -1    0    0    0    0 -0.00000000000E+00 -0.00000000000E+00 -0.45593999997E+02  0.45594000000E+02  0.51100000000E-03 0.  1.
    9900012    2    1    2    0    0 -0.58143025621E+01 -0.92045360196E+00  0.42999644339E+02  0.47787276937E+02  0.20000026864E+02 0.  0.
        -12    1    1    2    0    0  0.58143025621E+01  0.92045360196E+00 -0.42999644339E+02  0.43400723063E+02  0.00000000000E+00 0.  1.
         11    1    3    3    0    0  0.18848757604E+01  0.47645198528E+01  0.25673772172E+02  0.26180068446E+02  0.51100000000E-03 0. -1.
        -11    1    3    3    0    0 -0.44948319237E+01  0.15590412812E+01  0.46013944557E+01  0.66186822659E+01  0.51100000000E-03 0.  1.
        -12    1    3    3    0    0 -0.32043463989E+01 -0.72440147360E+01  0.12724477712E+02  0.14988526225E+02  0.00000000000E+00 0.  1.
</event>
<event>
 7    1  0.7596051E-010  0.4778727E+02  0.7816164E-02  0.1312668E+00
        -11   -1    0    0    0    0  0.00000000000E+00  0.00000000000E+00  0.45593999997E+02  0.45594000000E+02  0.51100000000E-03 0.  1.
         11   -1    0    0    0    0 -0.00000000000E+00 -0.00000000000E+00 -0.45593999997E+02  0.45594000000E+02  0.51100000000E-03 0. -1.
    9900012    2    1    2    0    0  0.36639092248E+02 -0.22286613131E+02  0.66713685239E+01  0.47787270011E+02  0.19999995287E+02 0.  0.
         12    1    1    2    0    0 -0.36639092248E+02  0.22286613131E+02 -0.66713685239E+01  0.43400729989E+02  0.00000000000E+00 0. -1.
         11    1    3    3    0    0  0.98363720887E+01 -0.74018095751E+01 -0.32634238232E+01  0.12735420534E+02  0.51100000000E-03 0. -1.
        -11    1    3    3    0    0  0.24436030050E+02 -0.13877873585E+02  0.37466971328E+01  0.28350532262E+02  0.51100000000E-03 0.  1.
        -12    1    3    3    0    0  0.23666901093E+01 -0.10069299703E+01  0.61880952142E+01  0.67013172152E+01  0.00000000000E+00 0.  1.
</event>
<event>
 7    1  0.7596051E-010  0.4778727E+02  0.7816164E-02  0.1312668E+00
        -11   -1    0    0    0    0  0.00000000000E+00  0.00000000000E+00  0.45593999997E+02  0.45594000000E+02  0.51100000000E-03 0.  1.
         11   -1    0    0    0    0 -0.00000000000E+00 -0.00000000000E+00 -0.45593999997E+02  0.45594000000E+02  0.51100000000E-03 0. -1.
    9900012    2    1    2    0    0  0.33555852030E+02 -0.27509944986E+02  0.91161158738E+00  0.47787270579E+02  0.19999997880E+02 0.  0.
         12    1    1    2    0    0 -0.33555852030E+02  0.27509944986E+02 -0.91161158738E+00  0.43400729421E+02  0.00000000000E+00 0. -1.
         11    1    3    3    0    0  0.25291530588E+01 -0.90498421005E+01  0.31585844726E+01  0.99132695601E+01  0.51100000000E-03 0. -1.
        -11    1    3    3    0    0  0.13549193190E+02 -0.11673894746E+02  0.35824209403E+01  0.18239906653E+02  0.51100000000E-03 0.  1.
        -12    1    3    3    0    0  0.17477505781E+02 -0.67862081388E+01 -0.58293938255E+01  0.19634094366E+02  0.00000000000E+00 0.  1.
</event>
<event>
 7    1  0.7596051E-010  0.4778727E+02  0.7816164E-02  0.1312668E+00
        -11   -1    0    0    0    0  0.00000000000E+00  0.00000000000E+00  0.45593999997E+02  0.45594000000E+02  0.51100000000E-03 0. -1.
         11   -1    0    0    0    0 -0.00000000000E+00 -0.00000000000E+00 -0.45593999997E+02  0.45594000000E+02  0.51100000000E-03 0.  1.
    9900012    2    1    2    0    0  0.26558722226E+00 -0.18973529977E+02 -0.39032776869E+02  0.47787273664E+02  0.20000011945E+02 0.  0.
         12    1    1    2    0    0 -0.26558722226E+00  0.18973529977E+02  0.39032776869E+02  0.43400726336E+02  0.00000000000E+00 0. -1.
         11    1    3    3    0    0 -0.22244863418E+01 -0.14768823074E+02 -0.31774404126E+02  0.35109531930E+02  0.51100000000E-03 0.  1.
        -11    1    3    3    0    0  0.16872632186E+00 -0.68593461890E+01 -0.45818008974E+01  0.82505756427E+01  0.51100000000E-03 0. -1.
        -12    1    3    3    0    0  0.23213472422E+01  0.26546392863E+01 -0.26765718453E+01  0.44271660916E+01  0.00000000000E+00 0.  1.
</event>
<event>
 7    1  0.7596051E-010  0.4778727E+02  0.7816164E-02  0.1312668E+00
        -11   -1    0    0    0    0  0.00000000000E+00  0.00000000000E+00  0.45593999997E+02  0.45594000000E+02  0.51100000000E-03 0.  1.
         11   -1    0    0    0    0 -0.00000000000E+00 -0.00000000000E+00 -0.45593999997E+02  0.45594000000E+02  0.51100000000E-03 0. -1.
    9900012    2    1    2    0    0  0.41493688491E+02 -0.11331975205E+02  0.57864853107E+01  0.47787271217E+02  0.20000000788E+02 0.  0.
         12    1    1    2    0    0 -0.41493688491E+02  0.11331975205E+02 -0.57864853107E+01  0.43400728783E+02  0.00000000000E+00 0. -1.
         11    1    3    3    0    0  0.42519583515E-02  0.75672242261E+00 -0.10346322202E+01  0.12818389119E+01  0.51100000000E-03 0. -1.
        -11    1    3    3    0    0  0.86849562514E+01 -0.56387729803E+01  0.79485517394E+01  0.13053876850E+02  0.51100000000E-03 0.  1.
         12    1    3    3    0    0  0.32804480281E+02 -0.64499246471E+01 -0.11274342085E+01  0.33451555455E+02  0.00000000000E+00 0. -1.
</event>
<event>
 7    1  0.7596051E-010  0.4778727E+02  0.7816164E-02  0.1312668E+00
        -11   -1    0    0    0    0  0.00000000000E+00  0.00000000000E+00  0.45593999997E+02  0.45594000000E+02  0.51100000000E-03 0. -1.
         11   -1    0    0    0    0 -0.00000000000E+00 -0.00000000000E+00 -0.45593999997E+02  0.45594000000E+02  0.51100000000E-03 0.  1.
    9900012    2    1    2    0    0  0.32472798496E+01 -0.17666649031E+02  0.39509091370E+02  0.47787267111E+02  0.19999982066E+02 0.  0.
        -12    1    1    2    0    0 -0.32472798496E+01  0.17666649031E+02 -0.39509091370E+02  0.43400732889E+02  0.00000000000E+00 0.  1.
         11    1    3    3    0    0  0.39811583076E+01 -0.18099371919E+01  0.82209818455E+01  0.93118224249E+01  0.51100000000E-03 0. -1.
        -11    1    3    3    0    0  0.53534966376E+00 -0.35593117539E+01  0.23695590405E+02  0.23967400867E+02  0.51100000000E-03 0.  1.
        -12    1    3    3    0    0 -0.12692281218E+01 -0.12297400085E+02  0.75925191199E+01  0.14508043819E+02  0.00000000000E+00 0.  1.
</event>
<event>
 7    1  0.7596051E-010  0.4778727E+02  0.7816164E-02  0.1312668E+00
        -11   -1    0    0    0    0  0.00000000000E+00  0.00000000000E+00  0.45593999997E+02  0.45594000000E+02  0.51100000000E-03 0. -1.
         11   -1    0    0    0    0 -0.00000000000E+00 -0.00000000000E+00 -0.45593999997E+02  0.45594000000E+02  0.51100000000E-03 0.  1.
    9900012    2    1    2    0    0  0.13522479567E+02 -0.39433809914E+02 -0.12072306837E+02  0.47787269472E+02  0.19999992829E+02 0.  0.
         12    1    1    2    0    0 -0.13522479567E+02  0.39433809914E+02  0.12072306837E+02  0.43400730528E+02  0.00000000000E+00 0. -1.
         11    1    3    3    0    0 -0.10616717201E+01 -0.68185597815E+01  0.12023110516E+01  0.70046739011E+01  0.51100000000E-03 0. -1.
        -11    1    3    3    0    0  0.94471197698E+01 -0.28060848704E+02 -0.49947548246E+01  0.30026769356E+02  0.51100000000E-03 0.  1.
         12    1    3    3    0    0  0.51370315176E+01 -0.45544014287E+01 -0.82798630645E+01  0.10755826214E+02  0.00000000000E+00 0. -1.
</event>
<event>
 7    1  0.9112377E-010  0.4778727E+02  0.7816164E-02  0.1312668E+00
        -11   -1    0    0    0    0  0.00000000000E+00  0.00000000000E+00  0.45593999997E+02  0.45594000000E+02  0.51100000000E-03 0. -1.
         11   -1    0    0    0    0 -0.00000000000E+00 -0.00000000000E+00 -0.45593999997E+02  0.45594000000E+02  0.51100000000E-03 0.  1.
    9900012    2    1    2    0    0  0.89783371230E+01  0.17089943729E+02  0.38870895909E+02  0.47787271171E+02  0.20000000577E+02 0.  0.
        -12    1    1    2    0    0 -0.89783371230E+01 -0.17089943729E+02 -0.38870895909E+02  0.43400728829E+02  0.00000000000E+00 0.  1.
         11    1    3    3    0    0  0.50382187222E+01  0.10452156413E+01  0.11682855873E+02  0.12765784161E+02  0.51100000000E-03 0. -1.
        -11    1    3    3    0    0 -0.15437102739E+01 -0.15835614229E+01  0.83794802210E+01  0.86663947074E+01  0.51100000000E-03 0.  1.
         12    1    3    3    0    0  0.54838286748E+01  0.17628289510E+02  0.18808559815E+02  0.26355092303E+02  0.00000000000E+00 0. -1.
</event>
<event>
 7    1  0.7596051E-010  0.4778727E+02  0.7816164E-02  0.1312668E+00
        -11   -1    0    0    0    0  0.00000000000E+00  0.00000000000E+00  0.45593999997E+02  0.45594000000E+02  0.51100000000E-03 0. -1.
         11   -1    0    0    0    0 -0.00000000000E+00 -0.00000000000E+00 -0.45593999997E+02  0.45594000000E+02  0.51100000000E-03 0.  1.
    9900012    2    1    2    0    0  0.24203562394E+02 -0.34947981679E+02 -0.87435352411E+01  0.47787271152E+02  0.20000000492E+02 0.  0.
         12    1    1    2    0    0 -0.24203562394E+02  0.34947981679E+02  0.87435352411E+01  0.43400728848E+02  0.00000000000E+00 0. -1.
         11    1    3    3    0    0  0.14800730722E+02 -0.83023078379E+01  0.16312572486E+01  0.17048488080E+02  0.51100000000E-03 0. -1.
        -11    1    3    3    0    0  0.46919899107E+01 -0.69703607046E+01 -0.51073898576E+01  0.98329105098E+01  0.51100000000E-03 0.  1.
         12    1    3    3    0    0  0.47108417611E+01 -0.19675313137E+02 -0.52674026321E+01  0.20905872563E+02  0.00000000000E+00 0. -1.
</event>
<event>
 7    1  0.7596051E-010  0.4778727E+02  0.7816164E-02  0.1312668E+00
        -11   -1    0    0    0    0  0.00000000000E+00  0.00000000000E+00  0.45593999997E+02  0.45594000000E+02  0.51100000000E-03 0. -1.
         11   -1    0    0    0    0 -0.00000000000E+00 -0.00000000000E+00 -0.45593999997E+02  0.45594000000E+02  0.51100000000E-03 0.  1.
    9900012    2    1    2    0    0  0.34506704130E+02  0.77132306558E+01 -0.25167776079E+02  0.47787268326E+02  0.19999987605E+02 0.  0.
         12    1    1    2    0    0 -0.34506704130E+02 -0.77132306558E+01  0.25167776079E+02  0.43400731674E+02  0.00000000000E+00 0. -1.
         11    1    3    3    0    0  0.11765819420E+02  0.46076273169E+01 -0.60638911911E+01  0.14015545396E+02  0.51100000000E-03 0. -1.
        -11    1    3    3    0    0  0.53510166141E+01  0.51730190190E+01 -0.13445428935E+02  0.15367923220E+02  0.51100000000E-03 0.  1.
         12    1    3    3    0    0  0.17389868097E+02 -0.20674156800E+01 -0.56584559529E+01  0.18403799710E+02  0.00000000000E+00 0. -1.
</event>
<event>
 7    1  0.7596051E-010  0.4778727E+02  0.7816164E-02  0.1312668E+00
        -11   -1    0    0    0    0  0.00000000000E+00  0.00000000000E+00  0.45593999997E+02  0.45594000000E+02  0.51100000000E-03 0.  1.
         11   -1    0    0    0    0 -0.00000000000E+00 -0.00000000000E+00 -0.45593999997E+02  0.45594000000E+02  0.51100000000E-03 0. -1.
    9900012    2    1    2    0    0  0.66713242499E+01 -0.35645417818E+02  0.23843685338E+02  0.47787266029E+02  0.19999977134E+02 0.  0.
        -12    1    1    2    0    0 -0.66713242499E+01  0.35645417818E+02 -0.23843685338E+02  0.43400733971E+02  0.00000000000E+00 0.  1.
         11    1    3    3    0    0 -0.50008526873E+01 -0.75176140157E+01  0.36367030889E+01  0.97338922178E+01  0.51100000000E-03 0. -1.
        -11    1    3    3    0    0 -0.82057000274E+00 -0.85604708445E+01  0.83453776362E+01  0.11983335277E+02  0.51100000000E-03 0.  1.
         12    1    3    3    0    0  0.12492746940E+02 -0.19567332958E+02  0.11861604613E+02  0.26070038535E+02  0.00000000000E+00 0. -1.
</event>
<event>
 7    1  0.7596051E-010  0.4778727E+02  0.7816164E-02  0.1312668E+00
        -11   -1    0    0    0    0  0.00000000000E+00  0.00000000000E+00  0.45593999997E+02  0.45594000000E+02  0.51100000000E-03 0. -1.
         11   -1    0    0    0    0 -0.00000000000E+00 -0.00000000000E+00 -0.45593999997E+02  0.45594000000E+02  0.51100000000E-03 0.  1.
    9900012    2    1    2    0    0 -0.11198059597E+02 -0.12892052562E+02 -0.39900151054E+02  0.47787267147E+02  0.19999982231E+02 0.  0.
         12    1    1    2    0    0  0.11198059597E+02  0.12892052562E+02  0.39900151054E+02  0.43400732853E+02  0.00000000000E+00 0. -1.
         11    1    3    3    0    0  0.16304030875E+01 -0.66538866709E+01 -0.17888497820E+02  0.19155437258E+02  0.51100000000E-03 0. -1.
        -11    1    3    3    0    0 -0.67111761722E+01 -0.82730397601E+01 -0.18349008562E+02  0.21217190859E+02  0.51100000000E-03 0.  1.
         12    1    3    3    0    0 -0.61172865127E+01  0.20348738693E+01 -0.36626446728E+01  0.74146390298E+01  0.00000000000E+00 0. -1.
</event>
<event>
 7    1  0.7596051E-010  0.4778727E+02  0.7816164E-02  0.1312668E+00
        -11   -1    0    0    0    0  0.00000000000E+00  0.00000000000E+00  0.45593999997E+02  0.45594000000E+02  0.51100000000E-03 0. -1.
         11   -1    0    0    0    0 -0.00000000000E+00 -0.00000000000E+00 -0.45593999997E+02  0.45594000000E+02  0.51100000000E-03 0.  1.
    9900012    2    1    2    0    0  0.15650367337E+02  0.20253252800E+02  0.35049893156E+02  0.47787271239E+02  0.20000000887E+02 0.  0.
        -12    1    1    2    0    0 -0.15650367337E+02 -0.20253252800E+02 -0.35049893156E+02  0.43400728761E+02  0.00000000000E+00 0.  1.
         11    1    3    3    0    0  0.14296643249E+02  0.16147787003E+02  0.24897964311E+02  0.32940152707E+02  0.51100000000E-03 0. -1.
        -11    1    3    3    0    0  0.50433617515E+01  0.36499611923E+01  0.90221165618E+01  0.10961583005E+02  0.51100000000E-03 0.  1.
        -12    1    3    3    0    0 -0.36896376637E+01  0.45550460426E+00  0.11298122836E+01  0.38855355268E+01  0.00000000000E+00 0.  1.
</event>
<event>
 7    1  0.7596051E-010  0.4778727E+02  0.7816164E-02  0.1312668E+00
        -11   -1    0    0    0    0  0.00000000000E+00  0.00000000000E+00  0.45593999997E+02  0.45594000000E+02  0.51100000000E-03 0. -1.
         11   -1    0    0    0    0 -0.00000000000E+00 -0.00000000000E+00 -0.45593999997E+02  0.45594000000E+02  0.51100000000E-03 0.  1.
    9900012    2    1    2    0    0 -0.28136063847E+02 -0.28540656708E+02  0.16655817181E+02  0.47787269360E+02  0.19999992318E+02 0.  0.
        -12    1    1    2    0    0  0.28136063847E+02  0.28540656708E+02 -0.16655817181E+02  0.43400730640E+02  0.00000000000E+00 0.  1.
         11    1    3    3    0    0 -0.84968313142E+01 -0.24253109557E+00  0.60765443399E+01  0.10448892529E+02  0.51100000000E-03 0. -1.
        -11    1    3    3    0    0  0.29626585487E+00 -0.52739789298E+00 -0.10645768003E+01  0.12244370213E+01  0.51100000000E-03 0.  1.
         12    1    3    3    0    0 -0.19935498388E+02 -0.27770727720E+02  0.11643849642E+02  0.36113939809E+02  0.00000000000E+00 0. -1.
</event>
<event>
 7    1  0.7596051E-010  0.4778727E+02  0.7816164E-02  0.1312668E+00
        -11   -1    0    0    0    0  0.00000000000E+00  0.00000000000E+00  0.45593999997E+02  0.45594000000E+02  0.51100000000E-03 0.  1.
         11   -1    0    0    0    0 -0.00000000000E+00 -0.00000000000E+00 -0.45593999997E+02  0.45594000000E+02  0.51100000000E-03 0. -1.
    9900012    2    1    2    0    0 -0.27052349658E+02  0.12102320794E+01 -0.33916503168E+02  0.47787268775E+02  0.19999989654E+02 0.  0.
         12    1    1    2    0    0  0.27052349658E+02 -0.12102320794E+01  0.33916503168E+02  0.43400731225E+02  0.00000000000E+00 0. -1.
         11    1    3    3    0    0 -0.77738278509E+01 -0.10228677060E+00 -0.24909652800E+02  0.26094705688E+02  0.51100000000E-03 0. -1.
        -11    1    3    3    0    0 -0.79643817690E+01  0.18369069511E-02 -0.58232813144E+01  0.98662042278E+01  0.51100000000E-03 0.  1.
         12    1    3    3    0    0 -0.11314140038E+02  0.13106819431E+01 -0.31835690531E+01  0.11826358860E+02  0.00000000000E+00 0. -1.
</event>
<event>
 7    1  0.7596051E-010  0.4778727E+02  0.7816164E-02  0.1312668E+00
        -11   -1    0    0    0    0  0.00000000000E+00  0.00000000000E+00  0.45593999997E+02  0.45594000000E+02  0.51100000000E-03 0. -1.
         11   -1    0    0    0    0 -0.00000000000E+00 -0.00000000000E+00 -0.45593999997E+02  0.45594000000E+02  0.51100000000E-03 0.  1.
    9900012    2    1    2    0    0 -0.19512616362E+01  0.68271703581E+01 -0.42815950218E+02  0.47787271088E+02  0.20000000196E+02 0.  0.
         12    1    1    2    0    0  0.19512616362E+01 -0.68271703581E+01  0.42815950218E+02  0.43400728912E+02  0.00000000000E+00 0. -1.
         11    1    3    3    0    0 -0.34378454971E+00  0.31728250656E+01 -0.21102362208E+02  0.21342321751E+02  0.51100000000E-03 0. -1.
        -11    1    3    3    0    0 -0.45027801893E+01  0.64207581726E+01 -0.20948155211E+02  0.22367976483E+02  0.51100000000E-03 0.  1.
         12    1    3    3    0    0  0.28953031029E+01 -0.27664128801E+01 -0.76543279966E+00  0.40769728539E+01  0.00000000000E+00 0. -1.
</event>
<event>
 7    1  0.7596051E-010  0.4778727E+02  0.7816164E-02  0.1312668E+00
        -11   -1    0    0    0    0  0.00000000000E+00  0.00000000000E+00  0.45593999997E+02  0.45594000000E+02  0.51100000000E-03 0. -1.
         11   -1    0    0    0    0 -0.00000000000E+00 -0.00000000000E+00 -0.45593999997E+02  0.45594000000E+02  0.51100000000E-03 0.  1.
    9900012    2    1    2    0    0 -0.16327289805E+02  0.19075854895E+02  0.35399924049E+02  0.47787271261E+02  0.20000000989E+02 0.  0.
        -12    1    1    2    0    0  0.16327289805E+02 -0.19075854895E+02 -0.35399924049E+02  0.43400728739E+02  0.00000000000E+00 0.  1.
         11    1    3    3    0    0 -0.35273044472E+01  0.83720992546E+01  0.28188283949E+01  0.95120826517E+01  0.51100000000E-03 0. -1.
        -11    1    3    3    0    0 -0.80885638582E+01  0.71293995510E+01  0.92497795331E+01  0.14206041846E+02  0.51100000000E-03 0.  1.
         12    1    3    3    0    0 -0.47114214999E+01  0.35743560889E+01  0.23331316121E+02  0.24069146764E+02  0.00000000000E+00 0. -1.
</event>
<event>
 7    1  0.7596051E-010  0.4778727E+02  0.7816164E-02  0.1312668E+00
        -11   -1    0    0    0    0  0.00000000000E+00  0.00000000000E+00  0.45593999997E+02  0.45594000000E+02  0.51100000000E-03 0. -1.
         11   -1    0    0    0    0 -0.00000000000E+00 -0.00000000000E+00 -0.45593999997E+02  0.45594000000E+02  0.51100000000E-03 0.  1.
    9900012    2    1    2    0    0  0.97937868279E+01  0.31030849310E+02 -0.28719181663E+02  0.47787271150E+02  0.20000000479E+02 0.  0.
         12    1    1    2    0    0 -0.97937868279E+01 -0.31030849310E+02  0.28719181663E+02  0.43400728850E+02  0.00000000000E+00 0. -1.
         11    1    3    3    0    0  0.69249268774E+01  0.17674451461E+02 -0.13745404541E+02  0.23436659168E+02  0.51100000000E-03 0. -1.
        -11    1    3    3    0    0 -0.23030832193E+01  0.13510613057E+02 -0.87655788814E+01  0.16268873067E+02  0.51100000000E-03 0.  1.
         12    1    3    3    0    0  0.51719431698E+01 -0.15421520744E+00 -0.62081982413E+01  0.80817389146E+01  0.00000000000E+00 0. -1.
</event>
<event>
 7    1  0.7596051E-010  0.4778727E+02  0.7816164E-02  0.1312668E+00
        -11   -1    0    0    0    0  0.00000000000E+00  0.00000000000E+00  0.45593999997E+02  0.45594000000E+02  0.51100000000E-03 0.  1.
         11   -1    0    0    0    0 -0.00000000000E+00 -0.00000000000E+00 -0.45593999997E+02  0.45594000000E+02  0.51100000000E-03 0. -1.
    9900012    2    1    2    0    0 -0.30487277500E+02 -0.30889209802E+02  0.76853940598E-01  0.47787270996E+02  0.19999999778E+02 0.  0.
        -12    1    1    2    0    0  0.30487277500E+02  0.30889209802E+02 -0.76853940598E-01  0.43400729004E+02  0.00000000000E+00 0.  1.
         11    1    3    3    0    0 -0.59874943401E+01 -0.15988767429E+02 -0.28658137973E+00  0.17075505894E+02  0.51100000000E-03 0. -1.
        -11    1    3    3    0    0 -0.40005542439E+00 -0.40813773207E+01  0.12278105879E+01  0.42807948184E+01  0.51100000000E-03 0.  1.
        -12    1    3    3    0    0 -0.24099727735E+02 -0.10819065053E+02 -0.86437526759E+00  0.26430970284E+02  0.00000000000E+00 0.  1.
</event>
<event>
 7    1  0.7596051E-010  0.4778727E+02  0.7816164E-02  0.1312668E+00
        -11   -1    0    0    0    0  0.00000000000E+00  0.00000000000E+00  0.45593999997E+02  0.45594000000E+02  0.51100000000E-03 0. -1.
         11   -1    0    0    0    0 -0.00000000000E+00 -0.00000000000E+00 -0.45593999997E+02  0.45594000000E+02  0.51100000000E-03 0.  1.
    9900012    2    1    2    0    0  0.26261942394E+02  0.24950344269E+02 -0.23904269752E+02  0.47787269478E+02  0.19999992860E+02 0.  0.
         12    1    1    2    0    0 -0.26261942394E+02 -0.24950344269E+02  0.23904269752E+02  0.43400730522E+02  0.00000000000E+00 0. -1.
         11    1    3    3    0    0 -0.17610963349E+01  0.56979129035E+00 -0.23662236080E+01  0.30041865521E+01  0.51100000000E-03 0. -1.
        -11    1    3    3    0    0  0.76110144454E+01  0.32141443438E+01 -0.10531447672E+02  0.13385426967E+02  0.51100000000E-03 0.  1.
        -12    1    3    3    0    0  0.20412024284E+02  0.21166408635E+02 -0.11006598472E+02  0.31397655960E+02  0.00000000000E+00 0.  1.
</event>
<event>
 7    1  0.7596051E-010  0.4778727E+02  0.7816164E-02  0.1312668E+00
        -11   -1    0    0    0    0  0.00000000000E+00  0.00000000000E+00  0.45593999997E+02  0.45594000000E+02  0.51100000000E-03 0. -1.
         11   -1    0    0    0    0 -0.00000000000E+00 -0.00000000000E+00 -0.45593999997E+02  0.45594000000E+02  0.51100000000E-03 0.  1.
    9900012    2    1    2    0    0 -0.31257294531E+02  0.10664837704E+01  0.30090981641E+02  0.47787273910E+02  0.20000013065E+02 0.  0.
        -12    1    1    2    0    0  0.31257294531E+02 -0.10664837704E+01 -0.30090981641E+02  0.43400726090E+02  0.00000000000E+00 0.  1.
         11    1    3    3    0    0 -0.11759465870E+02  0.68051147263E+01  0.73005759930E+01  0.15423781445E+02  0.51100000000E-03 0. -1.
        -11    1    3    3    0    0 -0.37421678613E+01  0.24297660004E+01  0.84145554820E+01  0.95243019345E+01  0.51100000000E-03 0.  1.
         12    1    3    3    0    0 -0.15755660800E+02 -0.81683969564E+01  0.14375850166E+02  0.22839190530E+02  0.00000000000E+00 0. -1.
</event>
<event>
 7    1  0.7596051E-010  0.4778727E+02  0.7816164E-02  0.1312668E+00
        -11   -1    0    0    0    0  0.00000000000E+00  0.00000000000E+00  0.45593999997E+02  0.45594000000E+02  0.51100000000E-03 0. -1.
         11   -1    0    0    0    0 -0.00000000000E+00 -0.00000000000E+00 -0.45593999997E+02  0.45594000000E+02  0.51100000000E-03 0.  1.
    9900012    2    1    2    0    0 -0.21114580639E+02 -0.36762131127E+02 -0.92921007602E+01  0.47787274925E+02  0.20000017692E+02 0.  0.
         12    1    1    2    0    0  0.21114580639E+02  0.36762131127E+02  0.92921007602E+01  0.43400725075E+02  0.00000000000E+00 0. -1.
         11    1    3    3    0    0 -0.16653046354E+02 -0.19045640375E+02 -0.84826710185E+01  0.26683629402E+02  0.51100000000E-03 0. -1.
        -11    1    3    3    0    0 -0.46040461744E+01 -0.16238751399E+02 -0.42075854065E+01  0.17395346027E+02  0.51100000000E-03 0.  1.
         12    1    3    3    0    0  0.14251188995E+00 -0.14777393525E+01  0.33981556648E+01  0.37082994964E+01  0.00000000000E+00 0. -1.
</event>
<event>
 7    1  0.7596051E-010  0.4778726E+02  0.7816164E-02  0.1312668E+00
        -11   -1    0    0    0    0  0.00000000000E+00  0.00000000000E+00  0.45593999997E+02  0.45594000000E+02  0.51100000000E-03 0. -1.
         11   -1    0    0    0    0 -0.00000000000E+00 -0.00000000000E+00 -0.45593999997E+02  0.45594000000E+02  0.51100000000E-03 0.  1.
    9900012    2    1    2    0    0  0.42765633486E+02  0.73716854225E+01 -0.61889984686E+00  0.47787260485E+02  0.19999951857E+02 0.  0.
        -12    1    1    2    0    0 -0.42765633486E+02 -0.73716854225E+01  0.61889984686E+00  0.43400739515E+02  0.00000000000E+00 0.  1.
         11    1    3    3    0    0 -0.50450627736E+00 -0.31076078570E+00  0.10477690999E+01  0.12037105954E+01  0.51100000000E-03 0. -1.
        -11    1    3    3    0    0  0.20838904227E+02  0.51667370362E+01  0.67308443296E+01  0.22500208147E+02  0.51100000000E-03 0.  1.
        -12    1    3    3    0    0  0.22431235536E+02  0.25157091719E+01 -0.83975132763E+01  0.24083341743E+02  0.00000000000E+00 0.  1.
</event>
<event>
 7    1  0.7596051E-010  0.4778727E+02  0.7816164E-02  0.1312668E+00
        -11   -1    0    0    0    0  0.00000000000E+00  0.00000000000E+00  0.45593999997E+02  0.45594000000E+02  0.51100000000E-03 0. -1.
         11   -1    0    0    0    0 -0.00000000000E+00 -0.00000000000E+00 -0.45593999997E+02  0.45594000000E+02  0.51100000000E-03 0.  1.
    9900012    2    1    2    0    0  0.27037136127E+02  0.32139006749E+02 -0.10940802426E+02  0.47787266798E+02  0.19999980638E+02 0.  0.
         12    1    1    2    0    0 -0.27037136127E+02 -0.32139006749E+02  0.10940802426E+02  0.43400733202E+02  0.00000000000E+00 0. -1.
         11    1    3    3    0    0  0.74184187041E+00  0.10957744913E+01  0.33999709460E+01  0.36484042801E+01  0.51100000000E-03 0. -1.
        -11    1    3    3    0    0  0.54410146270E+01  0.38068865473E+01  0.71106138786E+00  0.66785203386E+01  0.51100000000E-03 0.  1.
        -12    1    3    3    0    0  0.20854279630E+02  0.27236345711E+02 -0.15051834760E+02  0.37460342179E+02  0.00000000000E+00 0.  1.
</event>
<event>
 7    1  0.7596051E-010  0.4778727E+02  0.7816164E-02  0.1312668E+00
        -11   -1    0    0    0    0  0.00000000000E+00  0.00000000000E+00  0.45593999997E+02  0.45594000000E+02  0.51100000000E-03 0. -1.
         11   -1    0    0    0    0 -0.00000000000E+00 -0.00000000000E+00 -0.45593999997E+02  0.45594000000E+02  0.51100000000E-03 0.  1.
    9900012    2    1    2    0    0 -0.25007406831E+02  0.20914270000E+02  0.28650412367E+02  0.47787271725E+02  0.20000003101E+02 0.  0.
        -12    1    1    2    0    0  0.25007406831E+02 -0.20914270000E+02 -0.28650412367E+02  0.43400728275E+02  0.00000000000E+00 0.  1.
         11    1    3    3    0    0 -0.16659470378E+02  0.96932595512E+01  0.70828651059E+01  0.20534464015E+02  0.51100000000E-03 0. -1.
        -11    1    3    3    0    0 -0.50947189730E+00  0.38400138646E+01  0.94250870127E+00  0.39866766871E+01  0.51100000000E-03 0.  1.
        -12    1    3    3    0    0 -0.78384645553E+01  0.73809965845E+01  0.20625038560E+02  0.23266131022E+02  0.00000000000E+00 0.  1.
</event>
<event>
 7    1  0.7596051E-010  0.4778733E+02  0.7816164E-02  0.1312667E+00
        -11   -1    0    0    0    0  0.00000000000E+00  0.00000000000E+00  0.45593999997E+02  0.45594000000E+02  0.51100000000E-03 0. -1.
         11   -1    0    0    0    0 -0.00000000000E+00 -0.00000000000E+00 -0.45593999997E+02  0.45594000000E+02  0.51100000000E-03 0.  1.
    9900012    2    1    2    0    0 -0.40656778575E+01 -0.28389838984E+02  0.32574612172E+02  0.47787331202E+02  0.20000274279E+02 0.  0.
        -12    1    1    2    0    0  0.40656778575E+01  0.28389838984E+02 -0.32574612172E+02  0.43400668798E+02  0.00000000000E+00 0.  1.
         11    1    3    3    0    0  0.12026466374E+01  0.21072914965E+01  0.13159624786E+01  0.27602162763E+01  0.51100000000E-03 0. -1.
        -11    1    3    3    0    0 -0.53967062176E+01 -0.68121813971E+01  0.75076846179E+01  0.11484580183E+02  0.51100000000E-03 0.  1.
         12    1    3    3    0    0  0.12838172263E+00 -0.23684949084E+02  0.23750965075E+02  0.33542534743E+02  0.00000000000E+00 0. -1.
</event>
<event>
 7    1  0.7596051E-010  0.4778727E+02  0.7816164E-02  0.1312668E+00
        -11   -1    0    0    0    0  0.00000000000E+00  0.00000000000E+00  0.45593999997E+02  0.45594000000E+02  0.51100000000E-03 0.  1.
         11   -1    0    0    0    0 -0.00000000000E+00 -0.00000000000E+00 -0.45593999997E+02  0.45594000000E+02  0.51100000000E-03 0. -1.
    9900012    2    1    2    0    0  0.69350484984E+01  0.42733351205E+02  0.30641564345E+01  0.47787271233E+02  0.20000000858E+02 0.  0.
         12    1    1    2    0    0 -0.69350484984E+01 -0.42733351205E+02 -0.30641564345E+01  0.43400728767E+02  0.00000000000E+00 0. -1.
         11    1    3    3    0    0  0.28090336428E+01  0.18815189442E+02  0.28080317555E+01  0.19229848319E+02  0.51100000000E-03 0. -1.
        -11    1    3    3    0    0  0.82618644757E+01  0.22166164955E+02  0.19976154233E+01  0.23740002971E+02  0.51100000000E-03 0.  1.
         12    1    3    3    0    0 -0.41358496201E+01  0.17519968080E+01 -0.17414907443E+01  0.48174199431E+01  0.00000000000E+00 0. -1.
</event>
<event>
 7    1  0.7596051E-010  0.4778727E+02  0.7816164E-02  0.1312668E+00
        -11   -1    0    0    0    0  0.00000000000E+00  0.00000000000E+00  0.45593999997E+02  0.45594000000E+02  0.51100000000E-03 0. -1.
         11   -1    0    0    0    0 -0.00000000000E+00 -0.00000000000E+00 -0.45593999997E+02  0.45594000000E+02  0.51100000000E-03 0.  1.
    9900012    2    1    2    0    0 -0.16354613686E+02  0.81026961551E+01  0.39376341750E+02  0.47787270013E+02  0.19999995298E+02 0.  0.
        -12    1    1    2    0    0  0.16354613686E+02 -0.81026961551E+01 -0.39376341750E+02  0.43400729987E+02  0.00000000000E+00 0.  1.
         11    1    3    3    0    0 -0.11519640069E+02  0.41912085011E+01  0.16303224915E+02  0.20397634149E+02  0.51100000000E-03 0. -1.
        -11    1    3    3    0    0 -0.80858850894E+01  0.17036200476E+01  0.69591576048E+01  0.10803413061E+02  0.51100000000E-03 0.  1.
        -12    1    3    3    0    0  0.32509114725E+01  0.22078676065E+01  0.16113959231E+02  0.16586222803E+02  0.00000000000E+00 0.  1.
</event>
<event>
 7    1  0.7596051E-010  0.4778727E+02  0.7816164E-02  0.1312668E+00
        -11   -1    0    0    0    0  0.00000000000E+00  0.00000000000E+00  0.45593999997E+02  0.45594000000E+02  0.51100000000E-03 0. -1.
         11   -1    0    0    0    0 -0.00000000000E+00 -0.00000000000E+00 -0.45593999997E+02  0.45594000000E+02  0.51100000000E-03 0.  1.
    9900012    2    1    2    0    0  0.26689622119E+02  0.11140084581E+02 -0.32360250027E+02  0.47787271952E+02  0.20000004137E+02 0.  0.
         12    1    1    2    0    0 -0.26689622119E+02 -0.11140084581E+02  0.32360250027E+02  0.43400728048E+02  0.00000000000E+00 0. -1.
         11    1    3    3    0    0  0.44165598464E+01  0.38072403936E+01 -0.13582259873E+02  0.14781030539E+02  0.51100000000E-03 0. -1.
        -11    1    3    3    0    0  0.95245014081E+01  0.65689546956E+00 -0.15567292452E+02  0.18261660200E+02  0.51100000000E-03 0.  1.
         12    1    3    3    0    0  0.12748560864E+02  0.66759487174E+01 -0.32106977028E+01  0.14744581212E+02  0.00000000000E+00 0. -1.
</event>
<event>
 7    1  0.7596051E-010  0.4778727E+02  0.7816164E-02  0.1312668E+00
        -11   -1    0    0    0    0  0.00000000000E+00  0.00000000000E+00  0.45593999997E+02  0.45594000000E+02  0.51100000000E-03 0.  1.
         11   -1    0    0    0    0 -0.00000000000E+00 -0.00000000000E+00 -0.45593999997E+02  0.45594000000E+02  0.51100000000E-03 0. -1.
    9900012    2    1    2    0    0  0.33092603951E+02 -0.60581637786E+01  0.27418995415E+02  0.47787273114E+02  0.20000009437E+02 0.  0.
        -12    1    1    2    0    0 -0.33092603951E+02  0.60581637786E+01 -0.27418995415E+02  0.43400726886E+02  0.00000000000E+00 0.  1.
         11    1    3    3    0    0  0.18609942929E+02 -0.47350038118E+01  0.10636753893E+02  0.21952010627E+02  0.51100000000E-03 0. -1.
        -11    1    3    3    0    0  0.10379713620E+02 -0.70579273376E+01  0.11516006674E+02  0.17034412321E+02  0.51100000000E-03 0.  1.
        -12    1    3    3    0    0  0.41029474024E+01  0.57347673707E+01  0.52662348478E+01  0.88008501666E+01  0.00000000000E+00 0.  1.
</event>
<event>
 7    1  0.7596051E-010  0.4778727E+02  0.7816164E-02  0.1312668E+00
        -11   -1    0    0    0    0  0.00000000000E+00  0.00000000000E+00  0.45593999997E+02  0.45594000000E+02  0.51100000000E-03 0. -1.
         11   -1    0    0    0    0 -0.00000000000E+00 -0.00000000000E+00 -0.45593999997E+02  0.45594000000E+02  0.51100000000E-03 0.  1.
    9900012    2    1    2    0    0  0.25767995236E+02 -0.18183650212E+02  0.29815906407E+02  0.47787274334E+02  0.20000014996E+02 0.  0.
        -12    1    1    2    0    0 -0.25767995236E+02  0.18183650212E+02 -0.29815906407E+02  0.43400725666E+02  0.00000000000E+00 0.  1.
         11    1    3    3    0    0  0.10917566993E+02 -0.60838837630E+01  0.17883473344E+02  0.21818009300E+02  0.51100000000E-03 0. -1.
        -11    1    3    3    0    0  0.13297668343E+02 -0.10821829670E+02  0.14675566237E+02  0.22567946858E+02  0.51100000000E-03 0.  1.
        -12    1    3    3    0    0  0.15527599002E+01 -0.12779367788E+01 -0.27431331743E+01  0.34013181754E+01  0.00000000000E+00 0.  1.
</event>
<event>
 7    1  0.7596051E-010  0.4778727E+02  0.7816164E-02  0.1312668E+00
        -11   -1    0    0    0    0  0.00000000000E+00  0.00000000000E+00  0.45593999997E+02  0.45594000000E+02  0.51100000000E-03 0. -1.
         11   -1    0    0    0    0 -0.00000000000E+00 -0.00000000000E+00 -0.45593999997E+02  0.45594000000E+02  0.51100000000E-03 0.  1.
    9900012    2    1    2    0    0  0.12947789494E+02  0.21086659757E+02  0.35655726154E+02  0.47787270974E+02  0.19999999677E+02 0.  0.
        -12    1    1    2    0    0 -0.12947789494E+02 -0.21086659757E+02 -0.35655726154E+02  0.43400729026E+02  0.00000000000E+00 0.  1.
         11    1    3    3    0    0  0.53680596694E+01  0.10306749726E+02  0.19665984774E+02  0.22842856913E+02  0.51100000000E-03 0. -1.
        -11    1    3    3    0    0  0.60083930842E+01  0.13257916501E+02  0.16459930246E+02  0.21972765901E+02  0.51100000000E-03 0.  1.
        -12    1    3    3    0    0  0.15713367400E+01 -0.24780064702E+01 -0.47018886598E+00  0.29716481599E+01  0.00000000000E+00 0.  1.
</event>
<event>
 7    1  0.7596051E-010  0.4778727E+02  0.7816164E-02  0.1312668E+00
        -11   -1    0    0    0    0  0.00000000000E+00  0.00000000000E+00  0.45593999997E+02  0.45594000000E+02  0.51100000000E-03 0. -1.
         11   -1    0    0    0    0 -0.00000000000E+00 -0.00000000000E+00 -0.45593999997E+02  0.45594000000E+02  0.51100000000E-03 0.  1.
    9900012    2    1    2    0    0 -0.62845373894E+01  0.81681156555E+01  0.42159342674E+02  0.47787266155E+02  0.19999977708E+02 0.  0.
        -12    1    1    2    0    0  0.62845373894E+01 -0.81681156555E+01 -0.42159342674E+02  0.43400733845E+02  0.00000000000E+00 0.  1.
         11    1    3    3    0    0 -0.11736766537E+01  0.24246050038E+01  0.81578588573E+01  0.85910935106E+01  0.51100000000E-03 0. -1.
        -11    1    3    3    0    0  0.61581642678E+01  0.52781907389E+01  0.16309795599E+02  0.18215150765E+02  0.51100000000E-03 0.  1.
        -12    1    3    3    0    0 -0.11269025003E+02  0.46531991274E+00  0.17691688217E+02  0.20981021880E+02  0.00000000000E+00 0.  1.
</event>
<event>
 7    1  0.7596051E-010  0.4778727E+02  0.7816164E-02  0.1312668E+00
        -11   -1    0    0    0    0  0.00000000000E+00  0.00000000000E+00  0.45593999997E+02  0.45594000000E+02  0.51100000000E-03 0. -1.
         11   -1    0    0    0    0 -0.00000000000E+00 -0.00000000000E+00 -0.45593999997E+02  0.45594000000E+02  0.51100000000E-03 0.  1.
    9900012    2    1    2    0    0 -0.22907649220E+02  0.23241589041E+02  0.28612789704E+02  0.47787267419E+02  0.19999983470E+02 0.  0.
        -12    1    1    2    0    0  0.22907649220E+02 -0.23241589041E+02 -0.28612789704E+02  0.43400732581E+02  0.00000000000E+00 0.  1.
         11    1    3    3    0    0 -0.22137181964E+02  0.16353847354E+02  0.16637301199E+02  0.32160580530E+02  0.51100000000E-03 0. -1.
        -11    1    3    3    0    0 -0.12135175353E+00  0.92822013051E+00 -0.97767513763E+00  0.13535759287E+01  0.51100000000E-03 0.  1.
         12    1    3    3    0    0 -0.64911550194E+00  0.59595215567E+01  0.12953163643E+02  0.14273110960E+02  0.00000000000E+00 0. -1.
</event>
<event>
 7    1  0.7596051E-010  0.4778727E+02  0.7816164E-02  0.1312668E+00
        -11   -1    0    0    0    0  0.00000000000E+00  0.00000000000E+00  0.45593999997E+02  0.45594000000E+02  0.51100000000E-03 0. -1.
         11   -1    0    0    0    0 -0.00000000000E+00 -0.00000000000E+00 -0.45593999997E+02  0.45594000000E+02  0.51100000000E-03 0.  1.
    9900012    2    1    2    0    0  0.28366023547E+02 -0.16049497966E+02 -0.28660176249E+02  0.47787269828E+02  0.19999994454E+02 0.  0.
         12    1    1    2    0    0 -0.28366023547E+02  0.16049497966E+02  0.28660176249E+02  0.43400730172E+02  0.00000000000E+00 0. -1.
         11    1    3    3    0    0  0.62108159485E+01  0.11592805129E+01 -0.31238120056E+01  0.70481464060E+01  0.51100000000E-03 0. -1.
        -11    1    3    3    0    0 -0.70208523381E+00  0.61969146680E+00 -0.53102478325E+01  0.53921863370E+01  0.51100000000E-03 0.  1.
        -12    1    3    3    0    0  0.22857292832E+02 -0.17828469946E+02 -0.20226116411E+02  0.35346937085E+02  0.00000000000E+00 0.  1.
</event>
<event>
 7    1  0.7596051E-010  0.4778727E+02  0.7816164E-02  0.1312668E+00
        -11   -1    0    0    0    0  0.00000000000E+00  0.00000000000E+00  0.45593999997E+02  0.45594000000E+02  0.51100000000E-03 0. -1.
         11   -1    0    0    0    0 -0.00000000000E+00 -0.00000000000E+00 -0.45593999997E+02  0.45594000000E+02  0.51100000000E-03 0.  1.
    9900012    2    1    2    0    0 -0.29258937963E+01  0.11363483744E+02 -0.41784370007E+02  0.47787271962E+02  0.20000004185E+02 0.  0.
         12    1    1    2    0    0  0.29258937963E+01 -0.11363483744E+02  0.41784370007E+02  0.43400728038E+02  0.00000000000E+00 0. -1.
         11    1    3    3    0    0  0.25625125083E+00  0.38569650131E+01 -0.15451360266E+02  0.15927535218E+02  0.51100000000E-03 0. -1.
        -11    1    3    3    0    0  0.17941809968E+01  0.10475546015E+02 -0.22578920776E+02  0.24955236192E+02  0.51100000000E-03 0.  1.
         12    1    3    3    0    0 -0.49763260439E+01 -0.29690272838E+01 -0.37540889660E+01  0.69045005520E+01  0.00000000000E+00 0. -1.
</event>
<event>
 7    1  0.7596051E-010  0.4778727E+02  0.7816164E-02  0.1312668E+00
        -11   -1    0    0    0    0  0.00000000000E+00  0.00000000000E+00  0.45593999997E+02  0.45594000000E+02  0.51100000000E-03 0. -1.
         11   -1    0    0    0    0 -0.00000000000E+00 -0.00000000000E+00 -0.45593999997E+02  0.45594000000E+02  0.51100000000E-03 0.  1.
    9900012    2    1    2    0    0 -0.26839766729E+02  0.15149136003E+02 -0.30557384127E+02  0.47787272767E+02  0.20000007852E+02 0.  0.
         12    1    1    2    0    0  0.26839766729E+02 -0.15149136003E+02  0.30557384127E+02  0.43400727233E+02  0.00000000000E+00 0. -1.
         11    1    3    3    0    0 -0.73103986640E+01  0.81926063087E+01 -0.30923180798E+01  0.11407153813E+02  0.51100000000E-03 0. -1.
        -11    1    3    3    0    0 -0.66126237697E+01  0.63677721251E+01 -0.49840207416E+01  0.10445849796E+02  0.51100000000E-03 0.  1.
        -12    1    3    3    0    0 -0.12916744295E+02  0.58875756918E+00 -0.22481045305E+02  0.25934269157E+02  0.00000000000E+00 0.  1.
</event>
<event>
 7    1  0.7596051E-010  0.4778727E+02  0.7816164E-02  0.1312668E+00
        -11   -1    0    0    0    0  0.00000000000E+00  0.00000000000E+00  0.45593999997E+02  0.45594000000E+02  0.51100000000E-03 0. -1.
         11   -1    0    0    0    0 -0.00000000000E+00 -0.00000000000E+00 -0.45593999997E+02  0.45594000000E+02  0.51100000000E-03 0.  1.
    9900012    2    1    2    0    0  0.34409051272E+02  0.23434360544E+02 -0.12266668069E+02  0.47787271792E+02  0.20000003407E+02 0.  0.
         12    1    1    2    0    0 -0.34409051272E+02 -0.23434360544E+02  0.12266668069E+02  0.43400728208E+02  0.00000000000E+00 0. -1.
         11    1    3    3    0    0  0.11256192296E+02  0.10016711440E+01 -0.79752945210E+01  0.13831505089E+02  0.51100000000E-03 0.  1.
        -11    1    3    3    0    0 -0.61063382475E-01 -0.14659836098E+00  0.11128591109E+01  0.11241332118E+01  0.51100000000E-03 0. -1.
        -12    1    3    3    0    0  0.23213922358E+02  0.22579287761E+02 -0.54042326585E+01  0.32831633491E+02  0.00000000000E+00 0.  1.
</event>
<event>
 7    1  0.7596051E-010  0.4778727E+02  0.7816164E-02  0.1312668E+00
        -11   -1    0    0    0    0  0.00000000000E+00  0.00000000000E+00  0.45593999997E+02  0.45594000000E+02  0.51100000000E-03 0. -1.
         11   -1    0    0    0    0 -0.00000000000E+00 -0.00000000000E+00 -0.45593999997E+02  0.45594000000E+02  0.51100000000E-03 0.  1.
    9900012    2    1    2    0    0  0.74302364042E+01 -0.14546233411E+02 -0.40209724836E+02  0.47787270849E+02  0.19999999109E+02 0.  0.
         12    1    1    2    0    0 -0.74302364042E+01  0.14546233411E+02  0.40209724836E+02  0.43400729151E+02  0.00000000000E+00 0. -1.
         11    1    3    3    0    0  0.29882924758E+01 -0.72305150496E+00 -0.12466961961E+01  0.33176719347E+01  0.51100000000E-03 0. -1.
        -11    1    3    3    0    0  0.33718215746E+01  0.30378628595E+01 -0.84095591971E+01  0.95560701983E+01  0.51100000000E-03 0.  1.
         12    1    3    3    0    0  0.10701223538E+01 -0.16861044765E+02 -0.30553469443E+02  0.34913528716E+02  0.00000000000E+00 0. -1.
</event>
<event>
 7    1  0.7596051E-010  0.4778726E+02  0.7816164E-02  0.1312668E+00
        -11   -1    0    0    0    0  0.00000000000E+00  0.00000000000E+00  0.45593999997E+02  0.45594000000E+02  0.51100000000E-03 0. -1.
         11   -1    0    0    0    0 -0.00000000000E+00 -0.00000000000E+00 -0.45593999997E+02  0.45594000000E+02  0.51100000000E-03 0.  1.
    9900012    2    1    2    0    0 -0.75911271252E+01 -0.17265392232E+01  0.42696811226E+02  0.47787264550E+02  0.19999970389E+02 0.  0.
        -12    1    1    2    0    0  0.75911271252E+01  0.17265392232E+01 -0.42696811226E+02  0.43400735450E+02  0.00000000000E+00 0.  1.
         11    1    3    3    0    0 -0.63167098364E+01  0.64143574647E+00  0.31951740559E+02  0.32576463712E+02  0.51100000000E-03 0. -1.
        -11    1    3    3    0    0 -0.26966769212E+01 -0.41714971007E+01  0.11709639525E+02  0.12719634922E+02  0.51100000000E-03 0.  1.
        -12    1    3    3    0    0  0.14222596324E+01  0.18035221310E+01 -0.96456885794E+00  0.24911659160E+01  0.00000000000E+00 0.  1.
</event>
<event>
 7    1  0.7596051E-010  0.4778727E+02  0.7816164E-02  0.1312668E+00
        -11   -1    0    0    0    0  0.00000000000E+00  0.00000000000E+00  0.45593999997E+02  0.45594000000E+02  0.51100000000E-03 0. -1.
         11   -1    0    0    0    0 -0.00000000000E+00 -0.00000000000E+00 -0.45593999997E+02  0.45594000000E+02  0.51100000000E-03 0.  1.
    9900012    2    1    2    0    0 -0.40708347981E+02 -0.13588835710E+02 -0.64650793943E+01  0.47787270711E+02  0.19999998479E+02 0.  0.
         12    1    1    2    0    0  0.40708347981E+02  0.13588835710E+02  0.64650793943E+01  0.43400729289E+02  0.00000000000E+00 0. -1.
         11    1    3    3    0    0 -0.80321321682E+00  0.42395804835E+00 -0.31818394302E+01  0.33089264602E+01  0.51100000000E-03 0. -1.
        -11    1    3    3    0    0 -0.74412550794E+01 -0.86993198153E+01 -0.36908399246E+00  0.11453674767E+02  0.51100000000E-03 0.  1.
         12    1    3    3    0    0 -0.32463879684E+02 -0.53134739427E+01 -0.29141559716E+01  0.33024669484E+02  0.00000000000E+00 0. -1.
</event>
<event>
 7    1  0.7596051E-010  0.4778727E+02  0.7816164E-02  0.1312668E+00
        -11   -1    0    0    0    0  0.00000000000E+00  0.00000000000E+00  0.45593999997E+02  0.45594000000E+02  0.51100000000E-03 0. -1.
         11   -1    0    0    0    0 -0.00000000000E+00 -0.00000000000E+00 -0.45593999997E+02  0.45594000000E+02  0.51100000000E-03 0.  1.
    9900012    2    1    2    0    0  0.76774144565E+01 -0.23279884936E+02 -0.35815185743E+02  0.47787271144E+02  0.20000000455E+02 0.  0.
         12    1    1    2    0    0 -0.76774144565E+01  0.23279884936E+02  0.35815185743E+02  0.43400728856E+02  0.00000000000E+00 0. -1.
         11    1    3    3    0    0  0.50839073395E+00 -0.22234954645E+02 -0.21278818284E+02  0.30780509694E+02  0.51100000000E-03 0.  1.
        -11    1    3    3    0    0  0.82058615822E+00  0.35917552736E+00  0.18397183966E+00  0.91444770295E+00  0.51100000000E-03 0. -1.
        -12    1    3    3    0    0  0.63484375644E+01 -0.14041058185E+01 -0.14720339299E+02  0.16092313747E+02  0.00000000000E+00 0.  1.
</event>
<event>
 7    1  0.7596051E-010  0.4778727E+02  0.7816164E-02  0.1312668E+00
        -11   -1    0    0    0    0  0.00000000000E+00  0.00000000000E+00  0.45593999997E+02  0.45594000000E+02  0.51100000000E-03 0. -1.
         11   -1    0    0    0    0 -0.00000000000E+00 -0.00000000000E+00 -0.45593999997E+02  0.45594000000E+02  0.51100000000E-03 0.  1.
    9900012    2    1    2    0    0 -0.20983359668E+02 -0.36117356308E+02 -0.11783835017E+02  0.47787267548E+02  0.19999984061E+02 0.  0.
         12    1    1    2    0    0  0.20983359668E+02  0.36117356308E+02  0.11783835017E+02  0.43400732452E+02  0.00000000000E+00 0. -1.
         11    1    3    3    0    0 -0.15069274545E+02 -0.20734060543E+02 -0.40561057317E+01  0.25950651165E+02  0.51100000000E-03 0. -1.
        -11    1    3    3    0    0 -0.91587036616E+01 -0.13109988208E+02 -0.79684386981E+01  0.17867558846E+02  0.51100000000E-03 0.  1.
         12    1    3    3    0    0  0.32446185392E+01 -0.22733075568E+01  0.24070941263E+00  0.39690575372E+01  0.00000000000E+00 0. -1.
</event>
<event>
 7    1  0.7596051E-010  0.4778727E+02  0.7816164E-02  0.1312668E+00
        -11   -1    0    0    0    0  0.00000000000E+00  0.00000000000E+00  0.45593999997E+02  0.45594000000E+02  0.51100000000E-03 0. -1.
         11   -1    0    0    0    0 -0.00000000000E+00 -0.00000000000E+00 -0.45593999997E+02  0.45594000000E+02  0.51100000000E-03 0.  1.
    9900012    2    1    2    0    0  0.34657062070E+02  0.16068546482E+02  0.20598860707E+02  0.47787271898E+02  0.20000003893E+02 0.  0.
        -12    1    1    2    0    0 -0.34657062070E+02 -0.16068546482E+02 -0.20598860707E+02  0.43400728102E+02  0.00000000000E+00 0.  1.
         11    1    3    3    0    0  0.63271770086E+01  0.81988600075E+01  0.16407681733E+01  0.10485542179E+02  0.51100000000E-03 0.  1.
        -11    1    3    3    0    0  0.13402506325E+02  0.65659471994E+01  0.26552367940E+01  0.15158796822E+02  0.51100000000E-03 0. -1.
        -12    1    3    3    0    0  0.14927378736E+02  0.13037392753E+01  0.16302855739E+02  0.22142932897E+02  0.00000000000E+00 0.  1.
</event>
<event>
 7    1  0.7596051E-010  0.4778727E+02  0.7816164E-02  0.1312668E+00
        -11   -1    0    0    0    0  0.00000000000E+00  0.00000000000E+00  0.45593999997E+02  0.45594000000E+02  0.51100000000E-03 0. -1.
         11   -1    0    0    0    0 -0.00000000000E+00 -0.00000000000E+00 -0.45593999997E+02  0.45594000000E+02  0.51100000000E-03 0.  1.
    9900012    2    1    2    0    0 -0.10140313853E+02  0.29740770903E+02 -0.29937996561E+02  0.47787273542E+02  0.20000011390E+02 0.  0.
         12    1    1    2    0    0  0.10140313853E+02 -0.29740770903E+02  0.29937996561E+02  0.43400726458E+02  0.00000000000E+00 0. -1.
         11    1    3    3    0    0 -0.56697039116E+01  0.13891814664E+02 -0.56434648775E+01  0.16030494477E+02  0.51100000000E-03 0. -1.
        -11    1    3    3    0    0 -0.14894943163E+01  0.16371410979E+02 -0.16052420705E+02  0.22976551123E+02  0.51100000000E-03 0.  1.
         12    1    3    3    0    0 -0.29811156250E+01 -0.52245474015E+00 -0.82421109787E+01  0.87802279418E+01  0.00000000000E+00 0. -1.
</event>
<event>
 7    1  0.7596051E-010  0.4778727E+02  0.7816164E-02  0.1312668E+00
        -11   -1    0    0    0    0  0.00000000000E+00  0.00000000000E+00  0.45593999997E+02  0.45594000000E+02  0.51100000000E-03 0. -1.
         11   -1    0    0    0    0 -0.00000000000E+00 -0.00000000000E+00 -0.45593999997E+02  0.45594000000E+02  0.51100000000E-03 0.  1.
    9900012    2    1    2    0    0 -0.66052429064E+01  0.18215495465E+02 -0.38835420421E+02  0.47787269728E+02  0.19999993996E+02 0.  0.
         12    1    1    2    0    0  0.66052429064E+01 -0.18215495465E+02  0.38835420421E+02  0.43400730272E+02  0.00000000000E+00 0. -1.
         11    1    3    3    0    0 -0.54998772625E+01  0.15499941467E+01 -0.96364349533E+01  0.11203214299E+02  0.51100000000E-03 0. -1.
        -11    1    3    3    0    0 -0.53054114601E+01  0.16048988956E+02 -0.18425144323E+02  0.25004067287E+02  0.51100000000E-03 0.  1.
         12    1    3    3    0    0  0.42000458162E+01  0.61651236139E+00 -0.10773841145E+02  0.11579988142E+02  0.00000000000E+00 0. -1.
</event>
<event>
 7    1  0.7596051E-010  0.4778727E+02  0.7816164E-02  0.1312668E+00
        -11   -1    0    0    0    0  0.00000000000E+00  0.00000000000E+00  0.45593999997E+02  0.45594000000E+02  0.51100000000E-03 0. -1.
         11   -1    0    0    0    0 -0.00000000000E+00 -0.00000000000E+00 -0.45593999997E+02  0.45594000000E+02  0.51100000000E-03 0.  1.
    9900012    2    1    2    0    0 -0.36005691777E+02 -0.52470239107E+01  0.23657603759E+02  0.47787270560E+02  0.19999997793E+02 0.  0.
        -12    1    1    2    0    0  0.36005691777E+02  0.52470239107E+01 -0.23657603759E+02  0.43400729440E+02  0.00000000000E+00 0.  1.
         11    1    3    3    0    0 -0.60786556774E+00 -0.16996477628E+01  0.21829696336E+01  0.28326065291E+01  0.51100000000E-03 0. -1.
        -11    1    3    3    0    0 -0.40560171854E+01 -0.51905220445E-02 -0.29888241845E+01  0.50382906443E+01  0.51100000000E-03 0.  1.
         12    1    3    3    0    0 -0.31341809024E+02 -0.35421856259E+01  0.24463458309E+02  0.39916373387E+02  0.00000000000E+00 0. -1.
</event>
<event>
 7    1  0.7596051E-010  0.4778727E+02  0.7816164E-02  0.1312668E+00
        -11   -1    0    0    0    0  0.00000000000E+00  0.00000000000E+00  0.45593999997E+02  0.45594000000E+02  0.51100000000E-03 0. -1.
         11   -1    0    0    0    0 -0.00000000000E+00 -0.00000000000E+00 -0.45593999997E+02  0.45594000000E+02  0.51100000000E-03 0.  1.
    9900012    2    1    2    0    0  0.17595891938E+02  0.62035618276E+01  0.39185757724E+02  0.47787271886E+02  0.20000003837E+02 0.  0.
        -12    1    1    2    0    0 -0.17595891938E+02 -0.62035618276E+01 -0.39185757724E+02  0.43400728114E+02  0.00000000000E+00 0.  1.
         11    1    3    3    0    0  0.14923259433E+00  0.17891292273E+01  0.97266119595E+01  0.98909167538E+01  0.51100000000E-03 0. -1.
        -11    1    3    3    0    0  0.14340813232E+02  0.97889251357E+01  0.19039836985E+02  0.25768146463E+02  0.51100000000E-03 0.  1.
        -12    1    3    3    0    0  0.31058461117E+01 -0.53744925354E+01  0.10419308779E+02  0.12128208669E+02  0.00000000000E+00 0.  1.
</event>
<event>
 7    1  0.7596051E-010  0.4778727E+02  0.7816164E-02  0.1312668E+00
        -11   -1    0    0    0    0  0.00000000000E+00  0.00000000000E+00  0.45593999997E+02  0.45594000000E+02  0.51100000000E-03 0. -1.
         11   -1    0    0    0    0 -0.00000000000E+00 -0.00000000000E+00 -0.45593999997E+02  0.45594000000E+02  0.51100000000E-03 0.  1.
    9900012    2    1    2    0    0 -0.33522982878E+02  0.27411127489E+02  0.29091166990E+01  0.47787271306E+02  0.20000001191E+02 0.  0.
        -12    1    1    2    0    0  0.33522982878E+02 -0.27411127489E+02 -0.29091166990E+01  0.43400728694E+02  0.00000000000E+00 0.  1.
         11    1    3    3    0    0 -0.29283102908E+01  0.51972658088E+01  0.36009400369E+00  0.59763066353E+01  0.51100000000E-03 0. -1.
        -11    1    3    3    0    0 -0.17261211939E+02  0.14617114301E+02  0.10025227011E+02  0.24740950770E+02  0.51100000000E-03 0.  1.
         12    1    3    3    0    0 -0.13333460648E+02  0.75967473784E+01 -0.74762043162E+01  0.17070013900E+02  0.00000000000E+00 0. -1.
</event>
<event>
 7    1  0.7596051E-010  0.4778727E+02  0.7816164E-02  0.1312668E+00
        -11   -1    0    0    0    0  0.00000000000E+00  0.00000000000E+00  0.45593999997E+02  0.45594000000E+02  0.51100000000E-03 0. -1.
         11   -1    0    0    0    0 -0.00000000000E+00 -0.00000000000E+00 -0.45593999997E+02  0.45594000000E+02  0.51100000000E-03 0.  1.
    9900012    2    1    2    0    0  0.38813485489E+02  0.34554068388E+01  0.19110113973E+02  0.47787274795E+02  0.20000017100E+02 0.  0.
        -12    1    1    2    0    0 -0.38813485489E+02 -0.34554068388E+01 -0.19110113973E+02  0.43400725205E+02  0.00000000000E+00 0.  1.
         11    1    3    3    0    0  0.11880032058E+02  0.49016680917E+01  0.48950817906E+01  0.13752212105E+02  0.51100000000E-03 0. -1.
        -11    1    3    3    0    0  0.37626915320E+01  0.59964096923E+00 -0.32013059080E+01  0.49765225444E+01  0.51100000000E-03 0.  1.
         12    1    3    3    0    0  0.23170761899E+02 -0.20459022221E+01  0.17416338091E+02  0.29058540145E+02  0.00000000000E+00 0. -1.
</event>
<event>
 7    1  0.7596051E-010  0.4778727E+02  0.7816164E-02  0.1312668E+00
        -11   -1    0    0    0    0  0.00000000000E+00  0.00000000000E+00  0.45593999997E+02  0.45594000000E+02  0.51100000000E-03 0. -1.
         11   -1    0    0    0    0 -0.00000000000E+00 -0.00000000000E+00 -0.45593999997E+02  0.45594000000E+02  0.51100000000E-03 0.  1.
    9900012    2    1    2    0    0  0.24438436316E+02  0.11206297215E+02 -0.34070589666E+02  0.47787270201E+02  0.19999996156E+02 0.  0.
         12    1    1    2    0    0 -0.24438436316E+02 -0.11206297215E+02  0.34070589666E+02  0.43400729799E+02  0.00000000000E+00 0. -1.
         11    1    3    3    0    0  0.33270382460E+01  0.21765736623E+01  0.69517418944E-01  0.39763663476E+01  0.51100000000E-03 0. -1.
        -11    1    3    3    0    0  0.10697693449E+02  0.43589518330E+01 -0.51359274321E+01  0.12641948309E+02  0.51100000000E-03 0.  1.
        -12    1    3    3    0    0  0.10413704622E+02  0.46707717200E+01 -0.29004179653E+02  0.31168955545E+02  0.00000000000E+00 0.  1.
</event>
<event>
 7    1  0.7596051E-010  0.4778727E+02  0.7816164E-02  0.1312668E+00
        -11   -1    0    0    0    0  0.00000000000E+00  0.00000000000E+00  0.45593999997E+02  0.45594000000E+02  0.51100000000E-03 0. -1.
         11   -1    0    0    0    0 -0.00000000000E+00 -0.00000000000E+00 -0.45593999997E+02  0.45594000000E+02  0.51100000000E-03 0.  1.
    9900012    2    1    2    0    0  0.19666964575E+01  0.10146506217E+02  0.42152151961E+02  0.47787269611E+02  0.19999993465E+02 0.  0.
        -12    1    1    2    0    0 -0.19666964575E+01 -0.10146506217E+02 -0.42152151961E+02  0.43400730389E+02  0.00000000000E+00 0.  1.
         11    1    3    3    0    0  0.17116949775E+01  0.99649345958E+01  0.19275426153E+02  0.21766301359E+02  0.51100000000E-03 0. -1.
        -11    1    3    3    0    0  0.71618404624E+00  0.44163417231E+01  0.20811405971E+02  0.21286888278E+02  0.51100000000E-03 0.  1.
        -12    1    3    3    0    0 -0.46118256626E+00 -0.42347701022E+01  0.20653198365E+01  0.47340799745E+01  0.00000000000E+00 0.  1.
</event>
<event>
 7    1  0.7596051E-010  0.4778727E+02  0.7816164E-02  0.1312668E+00
        -11   -1    0    0    0    0  0.00000000000E+00  0.00000000000E+00  0.45593999997E+02  0.45594000000E+02  0.51100000000E-03 0. -1.
         11   -1    0    0    0    0 -0.00000000000E+00 -0.00000000000E+00 -0.45593999997E+02  0.45594000000E+02  0.51100000000E-03 0.  1.
    9900012    2    1    2    0    0 -0.35475064626E+02  0.20661439310E+02 -0.14080058000E+02  0.47787270538E+02  0.19999997689E+02 0.  0.
         12    1    1    2    0    0  0.35475064626E+02 -0.20661439310E+02  0.14080058000E+02  0.43400729462E+02  0.00000000000E+00 0. -1.
         11    1    3    3    0    0 -0.17983394092E+02  0.12666828772E+02 -0.13882737277E+02  0.26011178535E+02  0.51100000000E-03 0.  1.
        -11    1    3    3    0    0 -0.10749855592E+02  0.18304097780E+01 -0.43515842492E+01  0.11740787066E+02  0.51100000000E-03 0. -1.
         12    1    3    3    0    0 -0.67418149424E+01  0.61642007597E+01  0.41542635259E+01  0.10035304936E+02  0.00000000000E+00 0. -1.
</event>
<event>
 7    1  0.7596051E-010  0.4778727E+02  0.7816164E-02  0.1312668E+00
        -11   -1    0    0    0    0  0.00000000000E+00  0.00000000000E+00  0.45593999997E+02  0.45594000000E+02  0.51100000000E-03 0. -1.
         11   -1    0    0    0    0 -0.00000000000E+00 -0.00000000000E+00 -0.45593999997E+02  0.45594000000E+02  0.51100000000E-03 0.  1.
    9900012    2    1    2    0    0 -0.13872514196E+02  0.29703319411E+02 -0.28440983099E+02  0.47787270124E+02  0.19999995802E+02 0.  0.
         12    1    1    2    0    0  0.13872514196E+02 -0.29703319411E+02  0.28440983099E+02  0.43400729876E+02  0.00000000000E+00 0. -1.
         11    1    3    3    0    0 -0.94019580549E+01  0.11769829348E+02 -0.18752536947E+02  0.24053759381E+02  0.51100000000E-03 0. -1.
        -11    1    3    3    0    0  0.32711516719E-01  0.16979307172E+02 -0.67470699135E+01  0.18270766125E+02  0.51100000000E-03 0.  1.
         12    1    3    3    0    0 -0.45032676578E+01  0.95418289092E+00 -0.29413762384E+01  0.54627446181E+01  0.00000000000E+00 0. -1.
</event>
<event>
 7    1  0.7596051E-010  0.4778725E+02  0.7816164E-02  0.1312668E+00
        -11   -1    0    0    0    0  0.00000000000E+00  0.00000000000E+00  0.45593999997E+02  0.45594000000E+02  0.51100000000E-03 0. -1.
         11   -1    0    0    0    0 -0.00000000000E+00 -0.00000000000E+00 -0.45593999997E+02  0.45594000000E+02  0.51100000000E-03 0.  1.
    9900012    2    1    2    0    0  0.11348115765E+02 -0.15760967048E+02 -0.38812851365E+02  0.47787248338E+02  0.19999896472E+02 0.  0.
         12    1    1    2    0    0 -0.11348115765E+02  0.15760967048E+02  0.38812851365E+02  0.43400751662E+02  0.00000000000E+00 0. -1.
         11    1    3    3    0    0  0.37962801318E+01 -0.34177016948E+01 -0.24245248152E+01  0.56542681714E+01  0.51100000000E-03 0. -1.
        -11    1    3    3    0    0  0.60424234565E+01  0.15322584568E+01 -0.17990947291E+02  0.19040296266E+02  0.51100000000E-03 0.  1.
         12    1    3    3    0    0  0.15094121771E+01 -0.13875523810E+02 -0.18397379259E+02  0.23092683901E+02  0.00000000000E+00 0. -1.
</event>
<event>
 7    1  0.7596051E-010  0.4778727E+02  0.7816164E-02  0.1312668E+00
        -11   -1    0    0    0    0  0.00000000000E+00  0.00000000000E+00  0.45593999997E+02  0.45594000000E+02  0.51100000000E-03 0. -1.
         11   -1    0    0    0    0 -0.00000000000E+00 -0.00000000000E+00 -0.45593999997E+02  0.45594000000E+02  0.51100000000E-03 0.  1.
    9900012    2    1    2    0    0 -0.38471986993E+02  0.10045962926E+01  0.20062909963E+02  0.47787270132E+02  0.19999995838E+02 0.  0.
        -12    1    1    2    0    0  0.38471986993E+02 -0.10045962926E+01 -0.20062909963E+02  0.43400729868E+02  0.00000000000E+00 0.  1.
         11    1    3    3    0    0 -0.55438552676E+01  0.64399918318E+00  0.11430886632E+01  0.56969920246E+01  0.51100000000E-03 0. -1.
        -11    1    3    3    0    0 -0.49203377479E+01 -0.29071357424E+01  0.11640999204E+02  0.12968192800E+02  0.51100000000E-03 0.  1.
        -12    1    3    3    0    0 -0.28007793978E+02  0.32677328518E+01  0.72788220956E+01  0.29122085307E+02  0.00000000000E+00 0.  1.
</event>
<event>
 7    1  0.7596051E-010  0.4778727E+02  0.7816164E-02  0.1312668E+00
        -11   -1    0    0    0    0  0.00000000000E+00  0.00000000000E+00  0.45593999997E+02  0.45594000000E+02  0.51100000000E-03 0. -1.
         11   -1    0    0    0    0 -0.00000000000E+00 -0.00000000000E+00 -0.45593999997E+02  0.45594000000E+02  0.51100000000E-03 0.  1.
    9900012    2    1    2    0    0  0.45597803406E+01  0.52127482012E+01 -0.42844592483E+02  0.47787269066E+02  0.19999990978E+02 0.  0.
         12    1    1    2    0    0 -0.45597803406E+01 -0.52127482012E+01  0.42844592483E+02  0.43400730934E+02  0.00000000000E+00 0. -1.
         11    1    3    3    0    0 -0.33341737215E+01 -0.18208223655E+01 -0.15105702789E+02  0.15576083124E+02  0.51100000000E-03 0. -1.
        -11    1    3    3    0    0  0.34072195184E+00  0.50941100747E+01 -0.21851731100E+02  0.22440236211E+02  0.51100000000E-03 0.  1.
         12    1    3    3    0    0  0.75532321102E+01  0.19394604920E+01 -0.58871585953E+01  0.97709497305E+01  0.00000000000E+00 0. -1.
</event>
<event>
 7    1  0.7596051E-010  0.4778727E+02  0.7816164E-02  0.1312668E+00
        -11   -1    0    0    0    0  0.00000000000E+00  0.00000000000E+00  0.45593999997E+02  0.45594000000E+02  0.51100000000E-03 0. -1.
         11   -1    0    0    0    0 -0.00000000000E+00 -0.00000000000E+00 -0.45593999997E+02  0.45594000000E+02  0.51100000000E-03 0.  1.
    9900012    2    1    2    0    0 -0.13364605598E+02 -0.23915489414E+02  0.33660960808E+02  0.47787267296E+02  0.19999982910E+02 0.  0.
        -12    1    1    2    0    0  0.13364605598E+02  0.23915489414E+02 -0.33660960808E+02  0.43400732704E+02  0.00000000000E+00 0.  1.
         11    1    3    3    0    0 -0.78664497824E+01 -0.66914116103E+01  0.16070231134E+02  0.19102574446E+02  0.51100000000E-03 0. -1.
        -11    1    3    3    0    0 -0.99683881394E+01 -0.12627839848E+02  0.10996449208E+02  0.19487252161E+02  0.51100000000E-03 0.  1.
         12    1    3    3    0    0  0.44702323234E+01 -0.45962379554E+01  0.65942804663E+01  0.91974406895E+01  0.00000000000E+00 0. -1.
</event>
<event>
 7    1  0.7596051E-010  0.4778727E+02  0.7816164E-02  0.1312668E+00
        -11   -1    0    0    0    0  0.00000000000E+00  0.00000000000E+00  0.45593999997E+02  0.45594000000E+02  0.51100000000E-03 0.  1.
         11   -1    0    0    0    0 -0.00000000000E+00 -0.00000000000E+00 -0.45593999997E+02  0.45594000000E+02  0.51100000000E-03 0. -1.
    9900012    2    1    2    0    0  0.40080177224E+02 -0.70720981664E+01 -0.15072774065E+02  0.47787266173E+02  0.19999977788E+02 0.  0.
         12    1    1    2    0    0 -0.40080177224E+02  0.70720981664E+01  0.15072774065E+02  0.43400733827E+02  0.00000000000E+00 0. -1.
         11    1    3    3    0    0  0.97192694684E+01 -0.28507201263E+01 -0.76322223828E+01  0.12682335077E+02  0.51100000000E-03 0. -1.
        -11    1    3    3    0    0  0.28910080263E+02  0.90500021388E+00 -0.55512438466E+01  0.29452131921E+02  0.51100000000E-03 0.  1.
        -12    1    3    3    0    0  0.14508274924E+01 -0.51263782539E+01 -0.18893078353E+01  0.56527991749E+01  0.00000000000E+00 0.  1.
</event>
<event>
 7    1  0.7596051E-010  0.4778726E+02  0.7816164E-02  0.1312668E+00
        -11   -1    0    0    0    0  0.00000000000E+00  0.00000000000E+00  0.45593999997E+02  0.45594000000E+02  0.51100000000E-03 0. -1.
         11   -1    0    0    0    0 -0.00000000000E+00 -0.00000000000E+00 -0.45593999997E+02  0.45594000000E+02  0.51100000000E-03 0.  1.
    9900012    2    1    2    0    0  0.42137594439E+02  0.70126656357E+01 -0.76726491329E+01  0.47787263957E+02  0.19999967683E+02 0.  0.
        -12    1    1    2    0    0 -0.42137594439E+02 -0.70126656357E+01  0.76726491329E+01  0.43400736043E+02  0.00000000000E+00 0.  1.
         11    1    3    3    0    0 -0.70092687480E+00 -0.22895881563E+00 -0.16494963780E+01  0.18068091170E+01  0.51100000000E-03 0. -1.
        -11    1    3    3    0    0  0.21603666118E+02  0.10344403850E+02 -0.51641388497E+01  0.24502926582E+02  0.51100000000E-03 0.  1.
         12    1    3    3    0    0  0.21234855196E+02 -0.31027793989E+01 -0.85901390520E+00  0.21477528258E+02  0.00000000000E+00 0. -1.
</event>
<event>
 7    1  0.7596051E-010  0.4778727E+02  0.7816164E-02  0.1312668E+00
        -11   -1    0    0    0    0  0.00000000000E+00  0.00000000000E+00  0.45593999997E+02  0.45594000000E+02  0.51100000000E-03 0. -1.
         11   -1    0    0    0    0 -0.00000000000E+00 -0.00000000000E+00 -0.45593999997E+02  0.45594000000E+02  0.51100000000E-03 0.  1.
    9900012    2    1    2    0    0  0.32364037495E+02 -0.59226066150E+01  0.28303973963E+02  0.47787272653E+02  0.20000007336E+02 0.  0.
        -12    1    1    2    0    0 -0.32364037495E+02  0.59226066150E+01 -0.28303973963E+02  0.43400727347E+02  0.00000000000E+00 0.  1.
         11    1    3    3    0    0  0.10485514780E+00 -0.76143676515E+00 -0.75691409296E+00  0.10787491620E+01  0.51100000000E-03 0. -1.
        -11    1    3    3    0    0  0.97370440237E+01 -0.93286189624E+01  0.85813035299E+01  0.15983489250E+02  0.51100000000E-03 0.  1.
         12    1    3    3    0    0  0.22522138324E+02  0.41674491126E+01  0.20479584526E+02  0.30725034242E+02  0.00000000000E+00 0. -1.
</event>
<event>
 7    1  0.7596051E-010  0.4778727E+02  0.7816164E-02  0.1312668E+00
        -11   -1    0    0    0    0  0.00000000000E+00  0.00000000000E+00  0.45593999997E+02  0.45594000000E+02  0.51100000000E-03 0. -1.
         11   -1    0    0    0    0 -0.00000000000E+00 -0.00000000000E+00 -0.45593999997E+02  0.45594000000E+02  0.51100000000E-03 0.  1.
    9900012    2    1    2    0    0 -0.87361072385E+01 -0.36812203856E+02 -0.21264184684E+02  0.47787268754E+02  0.19999989559E+02 0.  0.
         12    1    1    2    0    0  0.87361072385E+01  0.36812203856E+02  0.21264184684E+02  0.43400731246E+02  0.00000000000E+00 0. -1.
         11    1    3    3    0    0 -0.11500257234E+01  0.34299002168E+00 -0.52867732682E+01  0.54212704387E+01  0.51100000000E-03 0. -1.
        -11    1    3    3    0    0  0.14446903966E+01 -0.12930683985E+02 -0.81543115387E+01  0.15355211349E+02  0.51100000000E-03 0.  1.
        -12    1    3    3    0    0 -0.90307719117E+01 -0.24224509893E+02 -0.78230998769E+01  0.27010786966E+02  0.00000000000E+00 0.  1.
</event>
<event>
 7    1  0.7596051E-010  0.4778727E+02  0.7816164E-02  0.1312668E+00
        -11   -1    0    0    0    0  0.00000000000E+00  0.00000000000E+00  0.45593999997E+02  0.45594000000E+02  0.51100000000E-03 0. -1.
         11   -1    0    0    0    0 -0.00000000000E+00 -0.00000000000E+00 -0.45593999997E+02  0.45594000000E+02  0.51100000000E-03 0.  1.
    9900012    2    1    2    0    0  0.18203337930E+01 -0.14833796448E+02 -0.40746386829E+02  0.47787272220E+02  0.20000005361E+02 0.  0.
         12    1    1    2    0    0 -0.18203337930E+01  0.14833796448E+02  0.40746386829E+02  0.43400727780E+02  0.00000000000E+00 0. -1.
         11    1    3    3    0    0  0.30772926095E+01 -0.35057364682E+01 -0.49325223494E+01  0.67889391643E+01  0.51100000000E-03 0. -1.
        -11    1    3    3    0    0  0.67442322211E+01 -0.90485945282E+00 -0.11581162136E+02  0.13432302690E+02  0.51100000000E-03 0.  1.
        -12    1    3    3    0    0 -0.80011910376E+01 -0.10423200527E+02 -0.24232702344E+02  0.27566030366E+02  0.00000000000E+00 0.  1.
</event>
<event>
 7    1  0.7596051E-010  0.4778727E+02  0.7816164E-02  0.1312668E+00
        -11   -1    0    0    0    0  0.00000000000E+00  0.00000000000E+00  0.45593999997E+02  0.45594000000E+02  0.51100000000E-03 0.  1.
         11   -1    0    0    0    0 -0.00000000000E+00 -0.00000000000E+00 -0.45593999997E+02  0.45594000000E+02  0.51100000000E-03 0. -1.
    9900012    2    1    2    0    0  0.17504387607E+02 -0.28427530982E+02 -0.27732568685E+02  0.47787268796E+02  0.19999989746E+02 0.  0.
         12    1    1    2    0    0 -0.17504387607E+02  0.28427530982E+02  0.27732568685E+02  0.43400731204E+02  0.00000000000E+00 0. -1.
         11    1    3    3    0    0 -0.20382528395E+01 -0.66776519570E+01 -0.68964102660E+01  0.98135612860E+01  0.51100000000E-03 0.  1.
        -11    1    3    3    0    0  0.14696423667E+00 -0.41195111324E+00  0.14596090539E+01  0.15237326071E+01  0.51100000000E-03 0. -1.
        -12    1    3    3    0    0  0.19395676209E+02 -0.21337927912E+02 -0.22295767472E+02  0.36449974902E+02  0.00000000000E+00 0.  1.
</event>
<event>
 7    1  0.7596051E-010  0.4778727E+02  0.7816164E-02  0.1312668E+00
        -11   -1    0    0    0    0  0.00000000000E+00  0.00000000000E+00  0.45593999997E+02  0.45594000000E+02  0.51100000000E-03 0. -1.
         11   -1    0    0    0    0 -0.00000000000E+00 -0.00000000000E+00 -0.45593999997E+02  0.45594000000E+02  0.51100000000E-03 0.  1.
    9900012    2    1    2    0    0 -0.36580877108E+02  0.43121197328E+01  0.22953620991E+02  0.47787266560E+02  0.19999979552E+02 0.  0.
        -12    1    1    2    0    0  0.36580877108E+02 -0.43121197328E+01 -0.22953620991E+02  0.43400733440E+02  0.00000000000E+00 0.  1.
         11    1    3    3    0    0 -0.14976932369E+01  0.66766375832E+00  0.61774290041E+01  0.63913605193E+01  0.51100000000E-03 0. -1.
        -11    1    3    3    0    0 -0.14671766286E+00  0.27100198563E+01  0.23373663463E+01  0.35817614929E+01  0.51100000000E-03 0.  1.
        -12    1    3    3    0    0 -0.34936466208E+02  0.93443611820E+00  0.14438825640E+02  0.37814144547E+02  0.00000000000E+00 0.  1.
</event>
<event>
 7    1  0.7596051E-010  0.4778725E+02  0.7816164E-02  0.1312668E+00
        -11   -1    0    0    0    0  0.00000000000E+00  0.00000000000E+00  0.45593999997E+02  0.45594000000E+02  0.51100000000E-03 0. -1.
         11   -1    0    0    0    0 -0.00000000000E+00 -0.00000000000E+00 -0.45593999997E+02  0.45594000000E+02  0.51100000000E-03 0.  1.
    9900012    2    1    2    0    0 -0.29260478750E+02 -0.57493848186E+01 -0.31534007953E+02  0.47787254614E+02  0.19999925085E+02 0.  0.
         12    1    1    2    0    0  0.29260478750E+02  0.57493848186E+01  0.31534007953E+02  0.43400745386E+02  0.00000000000E+00 0. -1.
         11    1    3    3    0    0  0.48517835498E+00 -0.26263008870E+01  0.10727906095E+00  0.26728942073E+01  0.51100000000E-03 0. -1.
        -11    1    3    3    0    0 -0.64621977657E+01 -0.51213892534E+01 -0.12150171353E+02  0.14683844593E+02  0.51100000000E-03 0.  1.
        -12    1    3    3    0    0 -0.23283459339E+02  0.19983053217E+01 -0.19491115661E+02  0.30430515814E+02  0.00000000000E+00 0.  1.
</event>
<event>
 7    1 -0.7596051E-010  0.4778727E+02  0.7816164E-02  0.1312668E+00
        -11   -1    0    0    0    0  0.00000000000E+00  0.00000000000E+00  0.45593999997E+02  0.45594000000E+02  0.51100000000E-03 0. -1.
         11   -1    0    0    0    0 -0.00000000000E+00 -0.00000000000E+00 -0.45593999997E+02  0.45594000000E+02  0.51100000000E-03 0.  1.
    9900012    2    1    2    0    0 -0.34167298194E+02  0.20068826652E+02  0.17704834692E+02  0.47787271429E+02  0.20000001753E+02 0.  0.
        -12    1    1    2    0    0  0.34167298194E+02 -0.20068826652E+02 -0.17704834692E+02  0.43400728571E+02  0.00000000000E+00 0.  1.
         11    1    3    3    0    0 -0.13402186402E+02  0.10967279856E+02  0.66709632801E+01  0.18558059682E+02  0.51100000000E-03 0. -1.
        -11    1    3    3    0    0 -0.19918256848E+02  0.44650975594E+01  0.12914306867E+02  0.24154779531E+02  0.51100000000E-03 0.  1.
        -12    1    3    3    0    0 -0.84685494396E+00  0.46364492361E+01 -0.18804354555E+01  0.50744322162E+01  0.00000000000E+00 0.  1.
</event>
<event>
 7    1  0.7596051E-010  0.4778727E+02  0.7816164E-02  0.1312668E+00
        -11   -1    0    0    0    0  0.00000000000E+00  0.00000000000E+00  0.45593999997E+02  0.45594000000E+02  0.51100000000E-03 0. -1.
         11   -1    0    0    0    0 -0.00000000000E+00 -0.00000000000E+00 -0.45593999997E+02  0.45594000000E+02  0.51100000000E-03 0.  1.
    9900012    2    1    2    0    0  0.10362389457E+01 -0.20762064752E+02  0.38098374729E+02  0.47787270963E+02  0.19999999629E+02 0.  0.
        -12    1    1    2    0    0 -0.10362389457E+01  0.20762064752E+02 -0.38098374729E+02  0.43400729037E+02  0.00000000000E+00 0.  1.
         11    1    3    3    0    0 -0.28660439844E+01 -0.13677847442E+02  0.16111258365E+02  0.21327690103E+02  0.51100000000E-03 0. -1.
        -11    1    3    3    0    0 -0.22958839516E+01 -0.47205066810E+01  0.17932494179E+02  0.18684983655E+02  0.51100000000E-03 0.  1.
         12    1    3    3    0    0  0.61981668817E+01 -0.23637106293E+01  0.40546221852E+01  0.77745972049E+01  0.00000000000E+00 0. -1.
</event>
<event>
 7    1  0.7596051E-010  0.4778728E+02  0.7816164E-02  0.1312668E+00
        -11   -1    0    0    0    0  0.00000000000E+00  0.00000000000E+00  0.45593999997E+02  0.45594000000E+02  0.51100000000E-03 0. -1.
         11   -1    0    0    0    0 -0.00000000000E+00 -0.00000000000E+00 -0.45593999997E+02  0.45594000000E+02  0.51100000000E-03 0.  1.
    9900012    2    1    2    0    0  0.14857117337E+02  0.17555926308E+02 -0.36805947396E+02  0.47787282865E+02  0.20000053894E+02 0.  0.
         12    1    1    2    0    0 -0.14857117337E+02 -0.17555926308E+02  0.36805947396E+02  0.43400717135E+02  0.00000000000E+00 0. -1.
         11    1    3    3    0    0  0.27331811366E+01  0.34176769691E+01  0.10189080798E+01  0.44932136524E+01  0.51100000000E-03 0. -1.
        -11    1    3    3    0    0  0.51988583115E+01  0.41497074170E+01 -0.50909723975E+01  0.83765267028E+01  0.51100000000E-03 0.  1.
        -12    1    3    3    0    0  0.69250778885E+01  0.99885419223E+01 -0.32733883079E+02  0.34917542510E+02  0.00000000000E+00 0.  1.
</event>
<event>
 7    1  0.7596051E-010  0.4778726E+02  0.7816164E-02  0.1312668E+00
        -11   -1    0    0    0    0  0.00000000000E+00  0.00000000000E+00  0.45593999997E+02  0.45594000000E+02  0.51100000000E-03 0. -1.
         11   -1    0    0    0    0 -0.00000000000E+00 -0.00000000000E+00 -0.45593999997E+02  0.45594000000E+02  0.51100000000E-03 0.  1.
    9900012    2    1    2    0    0  0.26346480752E+01 -0.39582814111E+02  0.17603508650E+02  0.47787261985E+02  0.19999958693E+02 0.  0.
        -12    1    1    2    0    0 -0.26346480752E+01  0.39582814111E+02 -0.17603508650E+02  0.43400738015E+02  0.00000000000E+00 0.  1.
         11    1    3    3    0    0 -0.33869747159E+01 -0.16773470281E+02  0.11844929642E+02  0.20811613620E+02  0.51100000000E-03 0. -1.
        -11    1    3    3    0    0 -0.35795313896E+01 -0.55709037659E+01  0.14019281416E+01  0.67685608893E+01  0.51100000000E-03 0.  1.
         12    1    3    3    0    0  0.96011541807E+01 -0.17238440065E+02  0.43566508672E+01  0.20207087475E+02  0.00000000000E+00 0. -1.
</event>
<event>
 7    1  0.7596051E-010  0.4778727E+02  0.7816164E-02  0.1312668E+00
        -11   -1    0    0    0    0  0.00000000000E+00  0.00000000000E+00  0.45593999997E+02  0.45594000000E+02  0.51100000000E-03 0. -1.
         11   -1    0    0    0    0 -0.00000000000E+00 -0.00000000000E+00 -0.45593999997E+02  0.45594000000E+02  0.51100000000E-03 0.  1.
    9900012    2    1    2    0    0  0.71012175593E+01  0.34025396726E+02  0.25989775668E+02  0.47787270139E+02  0.19999995871E+02 0.  0.
        -12    1    1    2    0    0 -0.71012175593E+01 -0.34025396726E+02 -0.25989775668E+02  0.43400729861E+02  0.00000000000E+00 0.  1.
         11    1    3    3    0    0  0.58185014572E+01  0.63609871977E+01  0.10822847640E+02  0.13836587319E+02  0.51100000000E-03 0. -1.
        -11    1    3    3    0    0  0.51975471978E+01  0.12835519691E+02  0.11924949416E+02  0.18274831912E+02  0.51100000000E-03 0.  1.
        -12    1    3    3    0    0 -0.39148310957E+01  0.14828889838E+02  0.32419786121E+01  0.15675850907E+02  0.00000000000E+00 0.  1.
</event>
<event>
 7    1  0.7596051E-010  0.4778727E+02  0.7816164E-02  0.1312668E+00
        -11   -1    0    0    0    0  0.00000000000E+00  0.00000000000E+00  0.45593999997E+02  0.45594000000E+02  0.51100000000E-03 0. -1.
         11   -1    0    0    0    0 -0.00000000000E+00 -0.00000000000E+00 -0.45593999997E+02  0.45594000000E+02  0.51100000000E-03 0.  1.
    9900012    2    1    2    0    0 -0.27526578470E+02 -0.25039022721E+02  0.22337367370E+02  0.47787272332E+02  0.20000005870E+02 0.  0.
        -12    1    1    2    0    0  0.27526578470E+02  0.25039022721E+02 -0.22337367370E+02  0.43400727668E+02  0.00000000000E+00 0.  1.
         11    1    3    3    0    0 -0.90950482139E+01 -0.13254458960E+02  0.42445923548E+01  0.16625797691E+02  0.51100000000E-03 0.  1.
        -11    1    3    3    0    0 -0.95750541026E+01 -0.37852134888E+01  0.10414470762E+01  0.10348628629E+02  0.51100000000E-03 0. -1.
         12    1    3    3    0    0 -0.88564761530E+01 -0.79993502729E+01  0.17051327939E+02  0.20812846012E+02  0.00000000000E+00 0. -1.
</event>
<event>
 7    1  0.7596051E-010  0.4778727E+02  0.7816164E-02  0.1312668E+00
        -11   -1    0    0    0    0  0.00000000000E+00  0.00000000000E+00  0.45593999997E+02  0.45594000000E+02  0.51100000000E-03 0. -1.
         11   -1    0    0    0    0 -0.00000000000E+00 -0.00000000000E+00 -0.45593999997E+02  0.45594000000E+02  0.51100000000E-03 0.  1.
    9900012    2    1    2    0    0 -0.35792546351E+01 -0.18316796615E+02  0.39182999083E+02  0.47787268219E+02  0.19999987118E+02 0.  0.
        -12    1    1    2    0    0  0.35792546351E+01  0.18316796615E+02 -0.39182999083E+02  0.43400731781E+02  0.00000000000E+00 0.  1.
         11    1    3    3    0    0 -0.12991969304E+00 -0.12938551933E+02  0.32992884736E+02  0.35439433526E+02  0.51100000000E-03 0. -1.
        -11    1    3    3    0    0  0.27067218522E+01 -0.90937954432E+00  0.28677140198E+01  0.40468627727E+01  0.51100000000E-03 0.  1.
        -12    1    3    3    0    0 -0.61560567942E+01 -0.44688651382E+01  0.33224003277E+01  0.83009719198E+01  0.00000000000E+00 0.  1.
</event>
<event>
 7    1  0.7596051E-010  0.4778721E+02  0.7816164E-02  0.1312668E+00
        -11   -1    0    0    0    0  0.00000000000E+00  0.00000000000E+00  0.45593999997E+02  0.45594000000E+02  0.51100000000E-03 0. -1.
         11   -1    0    0    0    0 -0.00000000000E+00 -0.00000000000E+00 -0.45593999997E+02  0.45594000000E+02  0.51100000000E-03 0.  1.
    9900012    2    1    2    0    0 -0.51929551815E+00  0.35447511417E+02 -0.25036623576E+02  0.47787213676E+02  0.19999738432E+02 0.  0.
         12    1    1    2    0    0  0.51929551815E+00 -0.35447511417E+02  0.25036623576E+02  0.43400786324E+02  0.00000000000E+00 0. -1.
         11    1    3    3    0    0 -0.11796222425E+01  0.45198445597E+01 -0.82575724425E+01  0.94872549445E+01  0.51100000000E-03 0. -1.
        -11    1    3    3    0    0  0.36497107343E+01  0.28567457950E+01 -0.70574066730E+01  0.84432442930E+01  0.51100000000E-03 0.  1.
        -12    1    3    3    0    0 -0.29893840100E+01  0.28070921062E+02 -0.97216444606E+01  0.29856714438E+02  0.00000000000E+00 0.  1.
</event>
<event>
 7    1  0.7596051E-010  0.4778726E+02  0.7816164E-02  0.1312668E+00
        -11   -1    0    0    0    0  0.00000000000E+00  0.00000000000E+00  0.45593999997E+02  0.45594000000E+02  0.51100000000E-03 0.  1.
         11   -1    0    0    0    0 -0.00000000000E+00 -0.00000000000E+00 -0.45593999997E+02  0.45594000000E+02  0.51100000000E-03 0. -1.
    9900012    2    1    2    0    0  0.24200049949E+02  0.32982185303E+02  0.14496790300E+02  0.47787263901E+02  0.19999967431E+02 0.  0.
        -12    1    1    2    0    0 -0.24200049949E+02 -0.32982185303E+02 -0.14496790300E+02  0.43400736099E+02  0.00000000000E+00 0.  1.
         11    1    3    3    0    0  0.91042312248E+01  0.11520187871E+02  0.98992996109E+01  0.17708695261E+02  0.51100000000E-03 0. -1.
        -11    1    3    3    0    0  0.55062690120E-01  0.11635967597E+02  0.31471171477E+01  0.12054174398E+02  0.51100000000E-03 0.  1.
         12    1    3    3    0    0  0.15040756035E+02  0.98260298345E+01  0.14503735416E+01  0.18024394242E+02  0.00000000000E+00 0. -1.
</event>
<event>
 7    1  0.7596051E-010  0.4778727E+02  0.7816164E-02  0.1312668E+00
        -11   -1    0    0    0    0  0.00000000000E+00  0.00000000000E+00  0.45593999997E+02  0.45594000000E+02  0.51100000000E-03 0. -1.
         11   -1    0    0    0    0 -0.00000000000E+00 -0.00000000000E+00 -0.45593999997E+02  0.45594000000E+02  0.51100000000E-03 0.  1.
    9900012    2    1    2    0    0  0.26106261978E+02  0.11950086912E+01  0.34650515427E+02  0.47787272130E+02  0.20000004950E+02 0.  0.
        -12    1    1    2    0    0 -0.26106261978E+02 -0.11950086912E+01 -0.34650515427E+02  0.43400727870E+02  0.00000000000E+00 0.  1.
         11    1    3    3    0    0  0.12887661512E+02  0.82310067492E+01  0.11625048505E+02  0.19208931369E+02  0.51100000000E-03 0. -1.
        -11    1    3    3    0    0 -0.55393251784E+00  0.54245212076E+00  0.10105480961E+00  0.78186179937E+00  0.51100000000E-03 0.  1.
        -12    1    3    3    0    0  0.13772532984E+02 -0.75784501788E+01  0.22924412113E+02  0.27796478961E+02  0.00000000000E+00 0.  1.
</event>
<event>
 7    1  0.7596051E-010  0.4778727E+02  0.7816164E-02  0.1312668E+00
        -11   -1    0    0    0    0  0.00000000000E+00  0.00000000000E+00  0.45593999997E+02  0.45594000000E+02  0.51100000000E-03 0. -1.
         11   -1    0    0    0    0 -0.00000000000E+00 -0.00000000000E+00 -0.45593999997E+02  0.45594000000E+02  0.51100000000E-03 0.  1.
    9900012    2    1    2    0    0  0.11712475525E+02 -0.10943124349E+01  0.41776114775E+02  0.47787269956E+02  0.19999995040E+02 0.  0.
        -12    1    1    2    0    0 -0.11712475525E+02  0.10943124349E+01 -0.41776114775E+02  0.43400730044E+02  0.00000000000E+00 0.  1.
         11    1    3    3    0    0  0.84982421260E+01  0.32776885230E+01  0.25325150115E+02  0.26913316219E+02  0.51100000000E-03 0. -1.
        -11    1    3    3    0    0  0.22983025706E+01 -0.58528492047E+01  0.17665359710E+02  0.18751079235E+02  0.51100000000E-03 0.  1.
        -12    1    3    3    0    0  0.91593082869E+00  0.14808482468E+01 -0.12143950509E+01  0.21228745023E+01  0.00000000000E+00 0.  1.
</event>
<event>
 7    1  0.7596051E-010  0.4778727E+02  0.7816164E-02  0.1312668E+00
        -11   -1    0    0    0    0  0.00000000000E+00  0.00000000000E+00  0.45593999997E+02  0.45594000000E+02  0.51100000000E-03 0. -1.
         11   -1    0    0    0    0 -0.00000000000E+00 -0.00000000000E+00 -0.45593999997E+02  0.45594000000E+02  0.51100000000E-03 0.  1.
    9900012    2    1    2    0    0 -0.33458938673E+02 -0.20238732422E+02  0.18828598404E+02  0.47787274372E+02  0.20000015170E+02 0.  0.
        -12    1    1    2    0    0  0.33458938673E+02  0.20238732422E+02 -0.18828598404E+02  0.43400725628E+02  0.00000000000E+00 0.  1.
         11    1    3    3    0    0 -0.89910012663E+01 -0.19182418835E+01  0.47416951818E+01  0.10344149513E+02  0.51100000000E-03 0. -1.
        -11    1    3    3    0    0 -0.67700108604E+01  0.36998066726E+00  0.88954489895E+01  0.11184764000E+02  0.51100000000E-03 0.  1.
         12    1    3    3    0    0 -0.17697926547E+02 -0.18690471205E+02  0.51914542332E+01  0.26258360859E+02  0.00000000000E+00 0. -1.
</event>
<event>
 7    1  0.7596051E-010  0.4778727E+02  0.7816164E-02  0.1312668E+00
        -11   -1    0    0    0    0  0.00000000000E+00  0.00000000000E+00  0.45593999997E+02  0.45594000000E+02  0.51100000000E-03 0. -1.
         11   -1    0    0    0    0 -0.00000000000E+00 -0.00000000000E+00 -0.45593999997E+02  0.45594000000E+02  0.51100000000E-03 0.  1.
    9900012    2    1    2    0    0 -0.24216460112E+02 -0.20261962512E+02 -0.29776482687E+02  0.47787274356E+02  0.20000015099E+02 0.  0.
         12    1    1    2    0    0  0.24216460112E+02  0.20261962512E+02  0.29776482687E+02  0.43400725644E+02  0.00000000000E+00 0. -1.
         11    1    3    3    0    0 -0.65010066927E+01  0.70180154221E+00 -0.67112067382E+01  0.93699471485E+01  0.51100000000E-03 0. -1.
        -11    1    3    3    0    0  0.90902026177E-01 -0.41596643017E+01 -0.96285226100E+01  0.10489018934E+02  0.51100000000E-03 0.  1.
        -12    1    3    3    0    0 -0.17806355446E+02 -0.16804099752E+02 -0.13436753339E+02  0.27928308274E+02  0.00000000000E+00 0.  1.
</event>
<event>
 7    1  0.7596051E-010  0.4778727E+02  0.7816164E-02  0.1312668E+00
        -11   -1    0    0    0    0  0.00000000000E+00  0.00000000000E+00  0.45593999997E+02  0.45594000000E+02  0.51100000000E-03 0. -1.
         11   -1    0    0    0    0 -0.00000000000E+00 -0.00000000000E+00 -0.45593999997E+02  0.45594000000E+02  0.51100000000E-03 0.  1.
    9900012    2    1    2    0    0 -0.56667861341E+01  0.99021356889E+01 -0.41874314908E+02  0.47787274139E+02  0.20000014109E+02 0.  0.
         12    1    1    2    0    0  0.56667861341E+01 -0.99021356889E+01  0.41874314908E+02  0.43400725861E+02  0.00000000000E+00 0. -1.
         11    1    3    3    0    0 -0.72397249252E+01  0.17617523278E+01 -0.89135578403E+01  0.11617611712E+02  0.51100000000E-03 0. -1.
        -11    1    3    3    0    0  0.49115386411E+01  0.29456803711E+01 -0.26951412239E+02  0.27553200660E+02  0.51100000000E-03 0.  1.
         12    1    3    3    0    0 -0.33385998500E+01  0.51947029901E+01 -0.60093448279E+01  0.86164617665E+01  0.00000000000E+00 0. -1.
</event>
<event>
 7    1  0.7596051E-010  0.4778726E+02  0.7816164E-02  0.1312668E+00
        -11   -1    0    0    0    0  0.00000000000E+00  0.00000000000E+00  0.45593999997E+02  0.45594000000E+02  0.51100000000E-03 0. -1.
         11   -1    0    0    0    0 -0.00000000000E+00 -0.00000000000E+00 -0.45593999997E+02  0.45594000000E+02  0.51100000000E-03 0.  1.
    9900012    2    1    2    0    0 -0.14296238758E+02  0.32836906800E+02  0.24514873877E+02  0.47787263462E+02  0.19999965431E+02 0.  0.
        -12    1    1    2    0    0  0.14296238758E+02 -0.32836906800E+02 -0.24514873877E+02  0.43400736538E+02  0.00000000000E+00 0.  1.
         11    1    3    3    0    0 -0.25147423835E+01  0.27882233817E+01  0.10639811238E+01  0.39025856780E+01  0.51100000000E-03 0. -1.
        -11    1    3    3    0    0 -0.71653824890E+01  0.24252240472E+02  0.25784612313E+02  0.36115925940E+02  0.51100000000E-03 0.  1.
        -12    1    3    3    0    0 -0.46161138851E+01  0.57964429461E+01 -0.23337195601E+01  0.77687518440E+01  0.00000000000E+00 0.  1.
</event>
<event>
 7    1  0.7596051E-010  0.4778727E+02  0.7816164E-02  0.1312668E+00
        -11   -1    0    0    0    0  0.00000000000E+00  0.00000000000E+00  0.45593999997E+02  0.45594000000E+02  0.51100000000E-03 0. -1.
         11   -1    0    0    0    0 -0.00000000000E+00 -0.00000000000E+00 -0.45593999997E+02  0.45594000000E+02  0.51100000000E-03 0.  1.
    9900012    2    1    2    0    0  0.12737321338E+02 -0.11312436580E+02 -0.39917573720E+02  0.47787271113E+02  0.20000000313E+02 0.  0.
         12    1    1    2    0    0 -0.12737321338E+02  0.11312436580E+02  0.39917573720E+02  0.43400728887E+02  0.00000000000E+00 0. -1.
         11    1    3    3    0    0 -0.14401708088E+00 -0.17260428425E+01 -0.29084231083E-01  0.17322848978E+01  0.51100000000E-03 0. -1.
        -11    1    3    3    0    0  0.12276568755E+02 -0.11610774494E+02 -0.20566195440E+02  0.26617524676E+02  0.51100000000E-03 0.  1.
         12    1    3    3    0    0  0.60476966414E+00  0.20243807563E+01 -0.19322294048E+02  0.19437461539E+02  0.00000000000E+00 0. -1.
</event>
<event>
 7    1  0.7596051E-010  0.4778728E+02  0.7816164E-02  0.1312668E+00
        -11   -1    0    0    0    0  0.00000000000E+00  0.00000000000E+00  0.45593999997E+02  0.45594000000E+02  0.51100000000E-03 0. -1.
         11   -1    0    0    0    0 -0.00000000000E+00 -0.00000000000E+00 -0.45593999997E+02  0.45594000000E+02  0.51100000000E-03 0.  1.
    9900012    2    1    2    0    0  0.34883950214E+01  0.26477725943E+02 -0.34210866904E+02  0.47787282434E+02  0.20000051930E+02 0.  0.
         12    1    1    2    0    0 -0.34883950214E+01 -0.26477725943E+02  0.34210866904E+02  0.43400717566E+02  0.00000000000E+00 0. -1.
         11    1    3    3    0    0 -0.36393147144E+01  0.63405297936E+01 -0.17213087874E+02  0.18701265307E+02  0.51100000000E-03 0. -1.
        -11    1    3    3    0    0 -0.21823078409E+01  0.57355013630E+01 -0.24862768500E+01  0.66211793688E+01  0.51100000000E-03 0.  1.
         12    1    3    3    0    0  0.93100175768E+01  0.14401694787E+02 -0.14511502179E+02  0.22464837758E+02  0.00000000000E+00 0. -1.
</event>
<event>
 7    1  0.7596051E-010  0.4778727E+02  0.7816164E-02  0.1312668E+00
        -11   -1    0    0    0    0  0.00000000000E+00  0.00000000000E+00  0.45593999997E+02  0.45594000000E+02  0.51100000000E-03 0.  1.
         11   -1    0    0    0    0 -0.00000000000E+00 -0.00000000000E+00 -0.45593999997E+02  0.45594000000E+02  0.51100000000E-03 0. -1.
    9900012    2    1    2    0    0  0.33591550065E+02  0.26236561353E+02 -0.81776427205E+01  0.47787271575E+02  0.20000002419E+02 0.  0.
         12    1    1    2    0    0 -0.33591550065E+02 -0.26236561353E+02  0.81776427205E+01  0.43400728425E+02  0.00000000000E+00 0. -1.
         11    1    3    3    0    0  0.25107056626E+02  0.25926217713E+02 -0.29840286762E+00  0.36091856448E+02  0.51100000000E-03 0.  1.
        -11    1    3    3    0    0  0.29862316066E+01  0.36994133526E+00 -0.38095456890E+01  0.48545931258E+01  0.51100000000E-03 0. -1.
        -12    1    3    3    0    0  0.54982618321E+01 -0.59597695896E-01 -0.40696941639E+01  0.68408220008E+01  0.00000000000E+00 0.  1.
</event>
<event>
 7    1  0.7596051E-010  0.4778727E+02  0.7816164E-02  0.1312668E+00
        -11   -1    0    0    0    0  0.00000000000E+00  0.00000000000E+00  0.45593999997E+02  0.45594000000E+02  0.51100000000E-03 0. -1.
         11   -1    0    0    0    0 -0.00000000000E+00 -0.00000000000E+00 -0.45593999997E+02  0.45594000000E+02  0.51100000000E-03 0.  1.
    9900012    2    1    2    0    0 -0.10075873588E+02 -0.14259096300E+02 -0.39733844835E+02  0.47787268655E+02  0.19999989108E+02 0.  0.
         12    1    1    2    0    0  0.10075873588E+02  0.14259096300E+02  0.39733844835E+02  0.43400731345E+02  0.00000000000E+00 0. -1.
         11    1    3    3    0    0 -0.37738770570E+01  0.14382514757E+01 -0.31720689250E+01  0.51354393069E+01  0.51100000000E-03 0. -1.
        -11    1    3    3    0    0 -0.10471322949E+02 -0.87762054866E+01 -0.25801012619E+02  0.29195250289E+02  0.51100000000E-03 0.  1.
        -12    1    3    3    0    0  0.41693264178E+01 -0.69211422887E+01 -0.10760763291E+02  0.13456579059E+02  0.00000000000E+00 0.  1.
</event>
<event>
 7    1  0.7596051E-010  0.4778727E+02  0.7816164E-02  0.1312668E+00
        -11   -1    0    0    0    0  0.00000000000E+00  0.00000000000E+00  0.45593999997E+02  0.45594000000E+02  0.51100000000E-03 0. -1.
         11   -1    0    0    0    0 -0.00000000000E+00 -0.00000000000E+00 -0.45593999997E+02  0.45594000000E+02  0.51100000000E-03 0.  1.
    9900012    2    1    2    0    0  0.32972345117E+02  0.18762520887E+01  0.28158963489E+02  0.47787273172E+02  0.20000009700E+02 0.  0.
        -12    1    1    2    0    0 -0.32972345117E+02 -0.18762520887E+01 -0.28158963489E+02  0.43400726828E+02  0.00000000000E+00 0.  1.
         11    1    3    3    0    0  0.22944821066E+02  0.44874762208E+01  0.23485348091E+02  0.33138555065E+02  0.51100000000E-03 0. -1.
        -11    1    3    3    0    0  0.15434435553E+01  0.50404207633E+00  0.53447059238E+01  0.55858891947E+01  0.51100000000E-03 0.  1.
        -12    1    3    3    0    0  0.84840804956E+01 -0.31152662085E+01 -0.67109052497E+00  0.90628289125E+01  0.00000000000E+00 0.  1.
</event>
<event>
 7    1  0.7596051E-010  0.4778728E+02  0.7816164E-02  0.1312668E+00
        -11   -1    0    0    0    0  0.00000000000E+00  0.00000000000E+00  0.45593999997E+02  0.45594000000E+02  0.51100000000E-03 0.  1.
         11   -1    0    0    0    0 -0.00000000000E+00 -0.00000000000E+00 -0.45593999997E+02  0.45594000000E+02  0.51100000000E-03 0. -1.
    9900012    2    1    2    0    0 -0.27001858954E+02  0.33541184451E+02  0.54324364560E+01  0.47787276421E+02  0.20000024514E+02 0.  0.
         12    1    1    2    0    0  0.27001858954E+02 -0.33541184451E+02 -0.54324364560E+01  0.43400723579E+02  0.00000000000E+00 0. -1.
         11    1    3    3    0    0 -0.84336547756E+01  0.27953232693E+01  0.25904129157E+01  0.92547611740E+01  0.51100000000E-03 0. -1.
        -11    1    3    3    0    0 -0.48057290338E+01  0.54169005643E+01 -0.48278113842E+01  0.87031951772E+01  0.51100000000E-03 0.  1.
         12    1    3    3    0    0 -0.13762475145E+02  0.25328960617E+02  0.76698349245E+01  0.29829320070E+02  0.00000000000E+00 0. -1.
</event>
<event>
 7    1  0.7945859E-010  0.4778727E+02  0.7816164E-02  0.1312668E+00
        -11   -1    0    0    0    0  0.00000000000E+00  0.00000000000E+00  0.45593999997E+02  0.45594000000E+02  0.51100000000E-03 0. -1.
         11   -1    0    0    0    0 -0.00000000000E+00 -0.00000000000E+00 -0.45593999997E+02  0.45594000000E+02  0.51100000000E-03 0.  1.
    9900012    2    1    2    0    0  0.15116817897E+02  0.24902288298E+02  0.32171120341E+02  0.47787272705E+02  0.20000007570E+02 0.  0.
        -12    1    1    2    0    0 -0.15116817897E+02 -0.24902288298E+02 -0.32171120341E+02  0.43400727295E+02  0.00000000000E+00 0.  1.
         11    1    3    3    0    0  0.96500595918E+01  0.14064389175E+02  0.17566266587E+02  0.24484779253E+02  0.51100000000E-03 0. -1.
        -11    1    3    3    0    0 -0.14267341961E+01  0.10800094430E+02  0.11161759883E+02  0.15596874498E+02  0.51100000000E-03 0.  1.
         12    1    3    3    0    0  0.68934925011E+01  0.37804692715E-01  0.34430938698E+01  0.77056189533E+01  0.00000000000E+00 0. -1.
</event>
<event>
 7    1  0.7596051E-010  0.4778727E+02  0.7816164E-02  0.1312668E+00
        -11   -1    0    0    0    0  0.00000000000E+00  0.00000000000E+00  0.45593999997E+02  0.45594000000E+02  0.51100000000E-03 0. -1.
         11   -1    0    0    0    0 -0.00000000000E+00 -0.00000000000E+00 -0.45593999997E+02  0.45594000000E+02  0.51100000000E-03 0.  1.
    9900012    2    1    2    0    0 -0.28934423742E+02  0.64709380891E+00  0.32341977505E+02  0.47787272856E+02  0.20000008260E+02 0.  0.
        -12    1    1    2    0    0  0.28934423742E+02 -0.64709380891E+00 -0.32341977505E+02  0.43400727144E+02  0.00000000000E+00 0.  1.
         11    1    3    3    0    0 -0.81674602203E+01 -0.41064061675E+01  0.12004981443E+02  0.15089385600E+02  0.51100000000E-03 0. -1.
        -11    1    3    3    0    0 -0.20772676049E+02  0.83685522393E+00  0.19862157048E+02  0.28752559534E+02  0.51100000000E-03 0.  1.
        -12    1    3    3    0    0  0.57125268607E-02  0.39166447524E+01  0.47483901413E+00  0.39453277227E+01  0.00000000000E+00 0.  1.
</event>
<event>
 7    1  0.7596051E-010  0.4778726E+02  0.7816164E-02  0.1312668E+00
        -11   -1    0    0    0    0  0.00000000000E+00  0.00000000000E+00  0.45593999997E+02  0.45594000000E+02  0.51100000000E-03 0. -1.
         11   -1    0    0    0    0 -0.00000000000E+00 -0.00000000000E+00 -0.45593999997E+02  0.45594000000E+02  0.51100000000E-03 0.  1.
    9900012    2    1    2    0    0 -0.21657237236E+02  0.78788603143E+01 -0.36776517181E+02  0.47787255991E+02  0.19999931367E+02 0.  0.
         12    1    1    2    0    0  0.21657237236E+02 -0.78788603143E+01  0.36776517181E+02  0.43400744009E+02  0.00000000000E+00 0. -1.
         11    1    3    3    0    0  0.15188639934E+01  0.15998133535E+01  0.30620634871E+00  0.22271311559E+01  0.51100000000E-03 0. -1.
        -11    1    3    3    0    0 -0.10145747433E+02  0.73756222679E+00 -0.71098253677E+01  0.12410874507E+02  0.51100000000E-03 0.  1.
        -12    1    3    3    0    0 -0.13030353797E+02  0.55414847341E+01 -0.29972898162E+02  0.33149250329E+02  0.00000000000E+00 0.  1.
</event>
<event>
 7    1  0.7596051E-010  0.4778727E+02  0.7816164E-02  0.1312668E+00
        -11   -1    0    0    0    0  0.00000000000E+00  0.00000000000E+00  0.45593999997E+02  0.45594000000E+02  0.51100000000E-03 0.  1.
         11   -1    0    0    0    0 -0.00000000000E+00 -0.00000000000E+00 -0.45593999997E+02  0.45594000000E+02  0.51100000000E-03 0. -1.
    9900012    2    1    2    0    0 -0.10653097289E+02 -0.36461663890E+02 -0.20992430390E+02  0.47787267873E+02  0.19999985541E+02 0.  0.
         12    1    1    2    0    0  0.10653097289E+02  0.36461663890E+02  0.20992430390E+02  0.43400732127E+02  0.00000000000E+00 0. -1.
         11    1    3    3    0    0  0.13847436277E+01 -0.72415693374E+01 -0.10866661341E+00  0.73735778342E+01  0.51100000000E-03 0. -1.
        -11    1    3    3    0    0 -0.83663466505E+01 -0.10615545492E+02 -0.20208154932E+01  0.13666354960E+02  0.51100000000E-03 0.  1.
        -12    1    3    3    0    0 -0.36714942662E+01 -0.18604549060E+02 -0.18862948284E+02  0.26747335079E+02  0.00000000000E+00 0.  1.
</event>
<event>
 7    1  0.7596051E-010  0.4778727E+02  0.7816164E-02  0.1312668E+00
        -11   -1    0    0    0    0  0.00000000000E+00  0.00000000000E+00  0.45593999997E+02  0.45594000000E+02  0.51100000000E-03 0. -1.
         11   -1    0    0    0    0 -0.00000000000E+00 -0.00000000000E+00 -0.45593999997E+02  0.45594000000E+02  0.51100000000E-03 0.  1.
    9900012    2    1    2    0    0 -0.23519970867E+01 -0.25590188785E+02  0.34974757829E+02  0.47787270311E+02  0.19999996657E+02 0.  0.
        -12    1    1    2    0    0  0.23519970867E+01  0.25590188785E+02 -0.34974757829E+02  0.43400729689E+02  0.00000000000E+00 0.  1.
         11    1    3    3    0    0 -0.38327572521E+01 -0.23734231018E+02  0.29208372266E+02  0.37830315368E+02  0.51100000000E-03 0. -1.
        -11    1    3    3    0    0 -0.30378232603E+01 -0.67753152015E+00  0.37422171931E+01  0.48674026855E+01  0.51100000000E-03 0.  1.
        -12    1    3    3    0    0  0.45185834257E+01 -0.11784262472E+01  0.20241683691E+01  0.50895522575E+01  0.00000000000E+00 0.  1.
</event>
<event>
 7    1  0.7596051E-010  0.4778727E+02  0.7816164E-02  0.1312668E+00
        -11   -1    0    0    0    0  0.00000000000E+00  0.00000000000E+00  0.45593999997E+02  0.45594000000E+02  0.51100000000E-03 0. -1.
         11   -1    0    0    0    0 -0.00000000000E+00 -0.00000000000E+00 -0.45593999997E+02  0.45594000000E+02  0.51100000000E-03 0.  1.
    9900012    2    1    2    0    0  0.16881214629E+02 -0.35459397899E+02 -0.18473745720E+02  0.47787267430E+02  0.19999983519E+02 0.  0.
         12    1    1    2    0    0 -0.16881214629E+02  0.35459397899E+02  0.18473745720E+02  0.43400732570E+02  0.00000000000E+00 0. -1.
         11    1    3    3    0    0  0.55212830001E+01 -0.53430989138E+01 -0.92728329810E+01  0.12042371184E+02  0.51100000000E-03 0. -1.
        -11    1    3    3    0    0  0.11634032246E+02 -0.17468603943E+02 -0.96188347776E+01  0.23087330135E+02  0.51100000000E-03 0.  1.
         12    1    3    3    0    0 -0.27410061703E+00 -0.12647695042E+02  0.41792203853E+00  0.12657566111E+02  0.00000000000E+00 0. -1.
</event>
<event>
 7    1  0.7596051E-010  0.4778727E+02  0.7816164E-02  0.1312668E+00
        -11   -1    0    0    0    0  0.00000000000E+00  0.00000000000E+00  0.45593999997E+02  0.45594000000E+02  0.51100000000E-03 0. -1.
         11   -1    0    0    0    0 -0.00000000000E+00 -0.00000000000E+00 -0.45593999997E+02  0.45594000000E+02  0.51100000000E-03 0.  1.
    9900012    2    1    2    0    0  0.23877205159E+02 -0.27450822979E+02 -0.23663363668E+02  0.47787269724E+02  0.19999993980E+02 0.  0.
         12    1    1    2    0    0 -0.23877205159E+02  0.27450822979E+02  0.23663363668E+02  0.43400730276E+02  0.00000000000E+00 0. -1.
         11    1    3    3    0    0  0.19489161819E+01 -0.87838581729E+01 -0.87508774827E-01  0.89978940165E+01  0.51100000000E-03 0. -1.
        -11    1    3    3    0    0  0.11955115077E+02 -0.73981016750E+01 -0.50881577629E+01  0.14951455935E+02  0.51100000000E-03 0.  1.
        -12    1    3    3    0    0  0.99731738996E+01 -0.11268863131E+02 -0.18487697130E+02  0.23837919772E+02  0.00000000000E+00 0.  1.
</event>
<event>
 7    1  0.7596051E-010  0.4778727E+02  0.7816164E-02  0.1312668E+00
        -11   -1    0    0    0    0  0.00000000000E+00  0.00000000000E+00  0.45593999997E+02  0.45594000000E+02  0.51100000000E-03 0. -1.
         11   -1    0    0    0    0 -0.00000000000E+00 -0.00000000000E+00 -0.45593999997E+02  0.45594000000E+02  0.51100000000E-03 0.  1.
    9900012    2    1    2    0    0 -0.67955494624E+01  0.30638260244E+00  0.42864319889E+02  0.47787270947E+02  0.19999999556E+02 0.  0.
        -12    1    1    2    0    0  0.67955494624E+01 -0.30638260244E+00 -0.42864319889E+02  0.43400729053E+02  0.00000000000E+00 0.  1.
         11    1    3    3    0    0 -0.28071241522E+01 -0.17056568719E+01  0.29268508568E+02  0.29452246187E+02  0.51100000000E-03 0. -1.
        -11    1    3    3    0    0  0.39837407665E+01  0.13091471180E+01  0.58474823188E+01  0.71956310634E+01  0.51100000000E-03 0.  1.
         12    1    3    3    0    0 -0.79721660766E+01  0.70289235632E+00  0.77483290017E+01  0.11139393697E+02  0.00000000000E+00 0. -1.
</event>
<event>
 7    1  0.7596051E-010  0.4778727E+02  0.7816164E-02  0.1312668E+00
        -11   -1    0    0    0    0  0.00000000000E+00  0.00000000000E+00  0.45593999997E+02  0.45594000000E+02  0.51100000000E-03 0. -1.
         11   -1    0    0    0    0 -0.00000000000E+00 -0.00000000000E+00 -0.45593999997E+02  0.45594000000E+02  0.51100000000E-03 0.  1.
    9900012    2    1    2    0    0  0.20401275870E+02  0.15630361790E+02 -0.34972889203E+02  0.47787271365E+02  0.20000001463E+02 0.  0.
         12    1    1    2    0    0 -0.20401275870E+02 -0.15630361790E+02  0.34972889203E+02  0.43400728635E+02  0.00000000000E+00 0. -1.
         11    1    3    3    0    0  0.46114927831E+01  0.10957307847E+02 -0.14901021561E+02  0.19062237664E+02  0.51100000000E-03 0. -1.
        -11    1    3    3    0    0  0.70113346258E+01  0.47001133689E+01 -0.20613021524E+01  0.86890071780E+01  0.51100000000E-03 0.  1.
        -12    1    3    3    0    0  0.87784484612E+01 -0.27059425297E-01 -0.18010565490E+02  0.20036026524E+02  0.00000000000E+00 0.  1.
</event>
<event>
 7    1  0.7596051E-010  0.4778726E+02  0.7816164E-02  0.1312668E+00
        -11   -1    0    0    0    0  0.00000000000E+00  0.00000000000E+00  0.45593999997E+02  0.45594000000E+02  0.51100000000E-03 0. -1.
         11   -1    0    0    0    0 -0.00000000000E+00 -0.00000000000E+00 -0.45593999997E+02  0.45594000000E+02  0.51100000000E-03 0.  1.
    9900012    2    1    2    0    0 -0.48313315742E+01  0.17237595501E+02 -0.39536666055E+02  0.47787257770E+02  0.19999939474E+02 0.  0.
         12    1    1    2    0    0  0.48313315742E+01 -0.17237595501E+02  0.39536666055E+02  0.43400742230E+02  0.00000000000E+00 0. -1.
         11    1    3    3    0    0 -0.18143749319E+01 -0.35690389557E+01 -0.12304613409E+02  0.12939609996E+02  0.51100000000E-03 0.  1.
        -11    1    3    3    0    0  0.84525467425E+00  0.52118344927E+00 -0.64826728880E+00  0.11858913909E+01  0.51100000000E-03 0. -1.
        -12    1    3    3    0    0 -0.38622113165E+01  0.20285451007E+02 -0.26583785358E+02  0.33661756382E+02  0.00000000000E+00 0.  1.
</event>
<event>
 7    1  0.7596051E-010  0.4778726E+02  0.7816164E-02  0.1312668E+00
        -11   -1    0    0    0    0  0.00000000000E+00  0.00000000000E+00  0.45593999997E+02  0.45594000000E+02  0.51100000000E-03 0. -1.
         11   -1    0    0    0    0 -0.00000000000E+00 -0.00000000000E+00 -0.45593999997E+02  0.45594000000E+02  0.51100000000E-03 0.  1.
    9900012    2    1    2    0    0 -0.14128277064E+02 -0.45235639316E+01 -0.40786684557E+02  0.47787257143E+02  0.19999936617E+02 0.  0.
         12    1    1    2    0    0  0.14128277064E+02  0.45235639316E+01  0.40786684557E+02  0.43400742857E+02  0.00000000000E+00 0. -1.
         11    1    3    3    0    0 -0.13265983862E+02  0.25846724436E+00 -0.35200015692E+02  0.37617738344E+02  0.51100000000E-03 0.  1.
        -11    1    3    3    0    0  0.18062193099E+01 -0.69039438582E+00 -0.48603748967E+01  0.52309002094E+01  0.51100000000E-03 0. -1.
        -12    1    3    3    0    0 -0.26685125113E+01 -0.40916367901E+01 -0.72629396817E+00  0.49386185896E+01  0.00000000000E+00 0.  1.
</event>
<event>
 7    1  0.7596051E-010  0.4778727E+02  0.7816164E-02  0.1312668E+00
        -11   -1    0    0    0    0  0.00000000000E+00  0.00000000000E+00  0.45593999997E+02  0.45594000000E+02  0.51100000000E-03 0. -1.
         11   -1    0    0    0    0 -0.00000000000E+00 -0.00000000000E+00 -0.45593999997E+02  0.45594000000E+02  0.51100000000E-03 0.  1.
    9900012    2    1    2    0    0  0.50741916277E+01 -0.43951980866E+01  0.42878413075E+02  0.47787268500E+02  0.19999988401E+02 0.  0.
        -12    1    1    2    0    0 -0.50741916277E+01  0.43951980866E+01 -0.42878413075E+02  0.43400731500E+02  0.00000000000E+00 0.  1.
         11    1    3    3    0    0  0.13602774216E+01  0.14260039496E+01  0.27459317794E+02  0.27529946892E+02  0.51100000000E-03 0. -1.
        -11    1    3    3    0    0 -0.32464445684E+01 -0.14619662890E+00  0.79079621488E+01  0.85496573848E+01  0.51100000000E-03 0.  1.
         12    1    3    3    0    0  0.69603587745E+01 -0.56750054073E+01  0.75111331320E+01  0.11707664223E+02  0.00000000000E+00 0. -1.
</event>
<event>
 7    1  0.7596051E-010  0.4778727E+02  0.7816164E-02  0.1312668E+00
        -11   -1    0    0    0    0  0.00000000000E+00  0.00000000000E+00  0.45593999997E+02  0.45594000000E+02  0.51100000000E-03 0. -1.
         11   -1    0    0    0    0 -0.00000000000E+00 -0.00000000000E+00 -0.45593999997E+02  0.45594000000E+02  0.51100000000E-03 0.  1.
    9900012    2    1    2    0    0 -0.15358233790E+02  0.89942793477E+01 -0.39583469598E+02  0.47787268767E+02  0.19999989616E+02 0.  0.
         12    1    1    2    0    0  0.15358233790E+02 -0.89942793477E+01  0.39583469598E+02  0.43400731233E+02  0.00000000000E+00 0. -1.
         11    1    3    3    0    0 -0.13299037805E+02  0.71218029543E+01 -0.26379315211E+02  0.30388365456E+02  0.51100000000E-03 0. -1.
        -11    1    3    3    0    0 -0.76680127478E-01  0.14045104649E+01 -0.14765506014E+02  0.14832353070E+02  0.51100000000E-03 0.  1.
        -12    1    3    3    0    0 -0.19825158575E+01  0.46796592851E+00  0.15613516264E+01  0.25665502405E+01  0.00000000000E+00 0.  1.
</event>
<event>
 7    1  0.7596051E-010  0.4778727E+02  0.7816164E-02  0.1312668E+00
        -11   -1    0    0    0    0  0.00000000000E+00  0.00000000000E+00  0.45593999997E+02  0.45594000000E+02  0.51100000000E-03 0. -1.
         11   -1    0    0    0    0 -0.00000000000E+00 -0.00000000000E+00 -0.45593999997E+02  0.45594000000E+02  0.51100000000E-03 0.  1.
    9900012    2    1    2    0    0 -0.41931724980E+02 -0.20973588805E+01 -0.10997944798E+02  0.47787271160E+02  0.20000000526E+02 0.  0.
         12    1    1    2    0    0  0.41931724980E+02  0.20973588805E+01  0.10997944798E+02  0.43400728840E+02  0.00000000000E+00 0. -1.
         11    1    3    3    0    0 -0.86408494450E+01  0.33745976361E+01 -0.95771903178E+01  0.13333220278E+02  0.51100000000E-03 0. -1.
        -11    1    3    3    0    0 -0.11434253547E+02  0.64616734479E+00 -0.25359225268E+01  0.11729901523E+02  0.51100000000E-03 0.  1.
        -12    1    3    3    0    0 -0.21856621988E+02 -0.61181238614E+01  0.11151680469E+01  0.22724149359E+02  0.00000000000E+00 0.  1.
</event>
<event>
 7    1  0.7596051E-010  0.4778727E+02  0.7816164E-02  0.1312668E+00
        -11   -1    0    0    0    0  0.00000000000E+00  0.00000000000E+00  0.45593999997E+02  0.45594000000E+02  0.51100000000E-03 0. -1.
         11   -1    0    0    0    0 -0.00000000000E+00 -0.00000000000E+00 -0.45593999997E+02  0.45594000000E+02  0.51100000000E-03 0.  1.
    9900012    2    1    2    0    0  0.17572968385E+02  0.13514763032E+02 -0.37311732112E+02  0.47787269696E+02  0.19999993852E+02 0.  0.
         12    1    1    2    0    0 -0.17572968385E+02 -0.13514763032E+02  0.37311732112E+02  0.43400730304E+02  0.00000000000E+00 0. -1.
         11    1    3    3    0    0  0.51285170081E+01  0.67475732453E+00 -0.62152966823E+01  0.80862164984E+01  0.51100000000E-03 0. -1.
        -11    1    3    3    0    0  0.12874838285E+02  0.82336354196E+01 -0.31545949762E+02  0.35052833833E+02  0.51100000000E-03 0.  1.
         12    1    3    3    0    0 -0.43038690767E+00  0.46063702883E+01  0.44951433213E+00  0.46482193642E+01  0.00000000000E+00 0. -1.
</event>
<event>
 7    1  0.7596051E-010  0.4778727E+02  0.7816164E-02  0.1312668E+00
        -11   -1    0    0    0    0  0.00000000000E+00  0.00000000000E+00  0.45593999997E+02  0.45594000000E+02  0.51100000000E-03 0. -1.
         11   -1    0    0    0    0 -0.00000000000E+00 -0.00000000000E+00 -0.45593999997E+02  0.45594000000E+02  0.51100000000E-03 0.  1.
    9900012    2    1    2    0    0 -0.28694600261E+02 -0.13281746531E+02 -0.29729418838E+02  0.47787271671E+02  0.20000002856E+02 0.  0.
         12    1    1    2    0    0  0.28694600261E+02  0.13281746531E+02  0.29729418838E+02  0.43400728329E+02  0.00000000000E+00 0. -1.
         11    1    3    3    0    0 -0.13853781216E+02 -0.44069510149E+01 -0.37136299400E+01  0.15004649907E+02  0.51100000000E-03 0. -1.
        -11    1    3    3    0    0 -0.12705407122E+02 -0.34672538884E+01 -0.12896578356E+02  0.18432876965E+02  0.51100000000E-03 0.  1.
        -12    1    3    3    0    0 -0.21354119224E+01 -0.54075416281E+01 -0.13119210542E+02  0.14349744798E+02  0.00000000000E+00 0.  1.
</event>
<event>
 7    1  0.7596051E-010  0.4778727E+02  0.7816164E-02  0.1312668E+00
        -11   -1    0    0    0    0  0.00000000000E+00  0.00000000000E+00  0.45593999997E+02  0.45594000000E+02  0.51100000000E-03 0.  1.
         11   -1    0    0    0    0 -0.00000000000E+00 -0.00000000000E+00 -0.45593999997E+02  0.45594000000E+02  0.51100000000E-03 0. -1.
    9900012    2    1    2    0    0 -0.11921399479E+02 -0.37227846224E+02  0.18857113963E+02  0.47787273658E+02  0.20000011916E+02 0.  0.
        -12    1    1    2    0    0  0.11921399479E+02  0.37227846224E+02 -0.18857113963E+02  0.43400726342E+02  0.00000000000E+00 0.  1.
         11    1    3    3    0    0 -0.11180031587E+02 -0.35814662687E+02  0.16071012441E+02  0.40816180747E+02  0.51100000000E-03 0. -1.
        -11    1    3    3    0    0 -0.29031299019E+00 -0.32538394020E+01  0.36413328215E+01  0.48919380070E+01  0.51100000000E-03 0.  1.
        -12    1    3    3    0    0 -0.45105490256E+00  0.18406558649E+01 -0.85523129947E+00  0.20791549037E+01  0.00000000000E+00 0.  1.
</event>
<event>
 7    1  0.7596051E-010  0.4778729E+02  0.7816164E-02  0.1312668E+00
        -11   -1    0    0    0    0  0.00000000000E+00  0.00000000000E+00  0.45593999997E+02  0.45594000000E+02  0.51100000000E-03 0. -1.
         11   -1    0    0    0    0 -0.00000000000E+00 -0.00000000000E+00 -0.45593999997E+02  0.45594000000E+02  0.51100000000E-03 0.  1.
    9900012    2    1    2    0    0 -0.12215474016E+02  0.92000768347E+01  0.40617266062E+02  0.47787291232E+02  0.20000092044E+02 0.  0.
        -12    1    1    2    0    0  0.12215474016E+02 -0.92000768347E+01 -0.40617266062E+02  0.43400708768E+02  0.00000000000E+00 0.  1.
         11    1    3    3    0    0  0.27253109976E+01 -0.14204984800E+01  0.34773623289E+01  0.46408172764E+01  0.51100000000E-03 0. -1.
        -11    1    3    3    0    0 -0.42302779820E+01 -0.24569922925E+01  0.62836505748E+01  0.79634369300E+01  0.51100000000E-03 0.  1.
        -12    1    3    3    0    0 -0.10710507032E+02  0.13077567607E+02  0.30856253158E+02  0.35183037026E+02  0.00000000000E+00 0.  1.
</event>
<event>
 7    1  0.7596051E-010  0.4778727E+02  0.7816164E-02  0.1312668E+00
        -11   -1    0    0    0    0  0.00000000000E+00  0.00000000000E+00  0.45593999997E+02  0.45594000000E+02  0.51100000000E-03 0. -1.
         11   -1    0    0    0    0 -0.00000000000E+00 -0.00000000000E+00 -0.45593999997E+02  0.45594000000E+02  0.51100000000E-03 0.  1.
    9900012    2    1    2    0    0 -0.11004274494E+02  0.16070380811E+02 -0.38784944648E+02  0.47787272726E+02  0.20000007669E+02 0.  0.
         12    1    1    2    0    0  0.11004274494E+02 -0.16070380811E+02  0.38784944648E+02  0.43400727274E+02  0.00000000000E+00 0. -1.
         11    1    3    3    0    0 -0.11217969888E+02  0.15114594943E+02 -0.26794705607E+02  0.32745229844E+02  0.51100000000E-03 0. -1.
        -11    1    3    3    0    0 -0.24449100801E+01  0.63568532677E+00 -0.12101073122E+02  0.12361943703E+02  0.51100000000E-03 0.  1.
         12    1    3    3    0    0  0.26586054735E+01  0.32010054077E+00  0.11083408169E+00  0.26800991798E+01  0.00000000000E+00 0. -1.
</event>
<event>
 7    1  0.7596051E-010  0.4778727E+02  0.7816164E-02  0.1312668E+00
        -11   -1    0    0    0    0  0.00000000000E+00  0.00000000000E+00  0.45593999997E+02  0.45594000000E+02  0.51100000000E-03 0. -1.
         11   -1    0    0    0    0 -0.00000000000E+00 -0.00000000000E+00 -0.45593999997E+02  0.45594000000E+02  0.51100000000E-03 0.  1.
    9900012    2    1    2    0    0 -0.17546159762E+02  0.17600156100E+02 -0.35580761322E+02  0.47787265059E+02  0.19999972711E+02 0.  0.
         12    1    1    2    0    0  0.17546159762E+02 -0.17600156100E+02  0.35580761322E+02  0.43400734941E+02  0.00000000000E+00 0. -1.
         11    1    3    3    0    0 -0.11070422745E+01 -0.19033978639E+01 -0.63921840580E+00  0.22928293564E+01  0.51100000000E-03 0. -1.
        -11    1    3    3    0    0 -0.26711782686E+01 -0.19745396548E+01 -0.64147874929E+01  0.72238147146E+01  0.51100000000E-03 0.  1.
        -12    1    3    3    0    0 -0.13767939219E+02  0.21478093619E+02 -0.28526755423E+02  0.38270620988E+02  0.00000000000E+00 0.  1.
</event>
<event>
 7    1  0.7596051E-010  0.4778727E+02  0.7816164E-02  0.1312668E+00
        -11   -1    0    0    0    0  0.00000000000E+00  0.00000000000E+00  0.45593999997E+02  0.45594000000E+02  0.51100000000E-03 0.  1.
         11   -1    0    0    0    0 -0.00000000000E+00 -0.00000000000E+00 -0.45593999997E+02  0.45594000000E+02  0.51100000000E-03 0. -1.
    9900012    2    1    2    0    0 -0.22947234283E+02  0.17363354943E+02 -0.32489406632E+02  0.47787271902E+02  0.20000003910E+02 0.  0.
         12    1    1    2    0    0  0.22947234283E+02 -0.17363354943E+02  0.32489406632E+02  0.43400728098E+02  0.00000000000E+00 0. -1.
         11    1    3    3    0    0 -0.22358497455E+01  0.81036656967E+00 -0.55378293537E+01  0.60268791487E+01  0.51100000000E-03 0. -1.
        -11    1    3    3    0    0 -0.18606338045E+02  0.96820316966E+01 -0.97739284367E+01  0.23140164878E+02  0.51100000000E-03 0.  1.
        -12    1    3    3    0    0 -0.21050464921E+01  0.68709566771E+01 -0.17177648842E+02  0.18620227875E+02  0.00000000000E+00 0.  1.
</event>
<event>
 7    1  0.7596051E-010  0.4778727E+02  0.7816164E-02  0.1312668E+00
        -11   -1    0    0    0    0  0.00000000000E+00  0.00000000000E+00  0.45593999997E+02  0.45594000000E+02  0.51100000000E-03 0. -1.
         11   -1    0    0    0    0 -0.00000000000E+00 -0.00000000000E+00 -0.45593999997E+02  0.45594000000E+02  0.51100000000E-03 0.  1.
    9900012    2    1    2    0    0  0.38990778212E+02  0.80262061932E+01  0.17289379963E+02  0.47787269235E+02  0.19999991751E+02 0.  0.
        -12    1    1    2    0    0 -0.38990778212E+02 -0.80262061932E+01 -0.17289379963E+02  0.43400730765E+02  0.00000000000E+00 0.  1.
         11    1    3    3    0    0  0.57284970199E+01 -0.18094531298E+01 -0.37435686480E+01  0.70784253347E+01  0.51100000000E-03 0.  1.
        -11    1    3    3    0    0  0.51669970946E+01  0.19888927734E+01  0.20416986016E+01  0.59010242230E+01  0.51100000000E-03 0. -1.
        -12    1    3    3    0    0  0.28095284097E+02  0.78467665496E+01  0.18991250009E+02  0.34807819678E+02  0.00000000000E+00 0.  1.
</event>
<event>
 7    1  0.7596051E-010  0.4778728E+02  0.7816164E-02  0.1312668E+00
        -11   -1    0    0    0    0  0.00000000000E+00  0.00000000000E+00  0.45593999997E+02  0.45594000000E+02  0.51100000000E-03 0. -1.
         11   -1    0    0    0    0 -0.00000000000E+00 -0.00000000000E+00 -0.45593999997E+02  0.45594000000E+02  0.51100000000E-03 0.  1.
    9900012    2    1    2    0    0  0.24732868174E+02 -0.92403071875E+01 -0.34445967436E+02  0.47787277453E+02  0.20000029219E+02 0.  0.
         12    1    1    2    0    0 -0.24732868174E+02  0.92403071875E+01  0.34445967436E+02  0.43400722547E+02  0.00000000000E+00 0. -1.
         11    1    3    3    0    0 -0.35672572723E+00  0.58748508032E+00 -0.37972946847E+01  0.38589945773E+01  0.51100000000E-03 0. -1.
        -11    1    3    3    0    0  0.75255267416E+01 -0.31648203434E+01 -0.21571662907E+02  0.23064827798E+02  0.51100000000E-03 0.  1.
         12    1    3    3    0    0  0.17564067159E+02 -0.66629719244E+01 -0.90770098445E+01  0.20863455077E+02  0.00000000000E+00 0. -1.
</event>
<event>
 7    1  0.7596051E-010  0.4778728E+02  0.7816164E-02  0.1312668E+00
        -11   -1    0    0    0    0  0.00000000000E+00  0.00000000000E+00  0.45593999997E+02  0.45594000000E+02  0.51100000000E-03 0. -1.
         11   -1    0    0    0    0 -0.00000000000E+00 -0.00000000000E+00 -0.45593999997E+02  0.45594000000E+02  0.51100000000E-03 0.  1.
    9900012    2    1    2    0    0  0.69615351396E+01 -0.12826989004E+01 -0.42819556258E+02  0.47787277815E+02  0.20000030872E+02 0.  0.
         12    1    1    2    0    0 -0.69615351396E+01  0.12826989004E+01  0.42819556258E+02  0.43400722185E+02  0.00000000000E+00 0. -1.
         11    1    3    3    0    0  0.42743293325E+01  0.20888936580E+01 -0.22661745291E+02  0.23155735096E+02  0.51100000000E-03 0. -1.
        -11    1    3    3    0    0  0.52713483775E+01 -0.33346947229E+01 -0.21005190315E+02  0.21911762208E+02  0.51100000000E-03 0.  1.
         12    1    3    3    0    0 -0.25841425704E+01 -0.36897835471E-01  0.84737934722E+00  0.27197805118E+01  0.00000000000E+00 0. -1.
</event>
<event>
 7    1  0.7596051E-010  0.4778727E+02  0.7816164E-02  0.1312668E+00
        -11   -1    0    0    0    0  0.00000000000E+00  0.00000000000E+00  0.45593999997E+02  0.45594000000E+02  0.51100000000E-03 0. -1.
         11   -1    0    0    0    0 -0.00000000000E+00 -0.00000000000E+00 -0.45593999997E+02  0.45594000000E+02  0.51100000000E-03 0.  1.
    9900012    2    1    2    0    0  0.15583681463E+02  0.12358674863E+02 -0.38575066069E+02  0.47787266198E+02  0.19999977904E+02 0.  0.
         12    1    1    2    0    0 -0.15583681463E+02 -0.12358674863E+02  0.38575066069E+02  0.43400733802E+02  0.00000000000E+00 0. -1.
         11    1    3    3    0    0 -0.79604778233E+00  0.49677801483E+01 -0.78678351822E+01  0.93389165533E+01  0.51100000000E-03 0. -1.
        -11    1    3    3    0    0  0.66016147576E+00  0.18622748342E+01 -0.16302656824E+02  0.16421951787E+02  0.51100000000E-03 0.  1.
         12    1    3    3    0    0  0.15719567770E+02  0.55286198801E+01 -0.14404574063E+02  0.22026397858E+02  0.00000000000E+00 0. -1.
</event>
<event>
 7    1  0.7596051E-010  0.4778727E+02  0.7816164E-02  0.1312668E+00
        -11   -1    0    0    0    0  0.00000000000E+00  0.00000000000E+00  0.45593999997E+02  0.45594000000E+02  0.51100000000E-03 0. -1.
         11   -1    0    0    0    0 -0.00000000000E+00 -0.00000000000E+00 -0.45593999997E+02  0.45594000000E+02  0.51100000000E-03 0.  1.
    9900012    2    1    2    0    0  0.43520668612E+01 -0.15372473306E+02  0.40353064383E+02  0.47787271589E+02  0.20000002482E+02 0.  0.
        -12    1    1    2    0    0 -0.43520668612E+01  0.15372473306E+02 -0.40353064383E+02  0.43400728411E+02  0.00000000000E+00 0.  1.
         11    1    3    3    0    0 -0.26166265948E+01 -0.11917590192E+02  0.18866632549E+02  0.22468322473E+02  0.51100000000E-03 0. -1.
        -11    1    3    3    0    0  0.35769566997E+01 -0.68613421411E+01  0.86180780206E+01  0.11582050951E+02  0.51100000000E-03 0.  1.
        -12    1    3    3    0    0  0.33917367563E+01  0.34064590272E+01  0.12868353813E+02  0.13736898165E+02  0.00000000000E+00 0.  1.
</event>
<event>
 7    1  0.7596051E-010  0.4778727E+02  0.7816164E-02  0.1312668E+00
        -11   -1    0    0    0    0  0.00000000000E+00  0.00000000000E+00  0.45593999997E+02  0.45594000000E+02  0.51100000000E-03 0. -1.
         11   -1    0    0    0    0 -0.00000000000E+00 -0.00000000000E+00 -0.45593999997E+02  0.45594000000E+02  0.51100000000E-03 0.  1.
    9900012    2    1    2    0    0 -0.64694980636E+01  0.22471372033E+01  0.42856958681E+02  0.47787274911E+02  0.20000017631E+02 0.  0.
        -12    1    1    2    0    0  0.64694980636E+01 -0.22471372033E+01 -0.42856958681E+02  0.43400725089E+02  0.00000000000E+00 0.  1.
         11    1    3    3    0    0  0.49150711357E+00  0.17495180300E+01  0.16760646466E+02  0.16858874897E+02  0.51100000000E-03 0. -1.
        -11    1    3    3    0    0  0.46785649895E+01 -0.30203239808E+00  0.52447163821E+01  0.70347170604E+01  0.51100000000E-03 0.  1.
        -12    1    3    3    0    0 -0.11639570167E+02  0.79965157136E+00  0.20851595834E+02  0.23893682954E+02  0.00000000000E+00 0.  1.
</event>
<event>
 7    1  0.7596051E-010  0.4778727E+02  0.7816164E-02  0.1312668E+00
        -11   -1    0    0    0    0  0.00000000000E+00  0.00000000000E+00  0.45593999997E+02  0.45594000000E+02  0.51100000000E-03 0.  1.
         11   -1    0    0    0    0 -0.00000000000E+00 -0.00000000000E+00 -0.45593999997E+02  0.45594000000E+02  0.51100000000E-03 0. -1.
    9900012    2    1    2    0    0  0.33660055011E+02  0.12315754924E+02 -0.24473375017E+02  0.47787271810E+02  0.20000003490E+02 0.  0.
         12    1    1    2    0    0 -0.33660055011E+02 -0.12315754924E+02  0.24473375017E+02  0.43400728190E+02  0.00000000000E+00 0. -1.
         11    1    3    3    0    0  0.66279048406E+01  0.65875923139E+01 -0.96507225904E+01  0.13433612390E+02  0.51100000000E-03 0. -1.
        -11    1    3    3    0    0  0.18734817824E+02  0.38241177789E+01 -0.23674334645E+01  0.19267122701E+02  0.51100000000E-03 0.  1.
         12    1    3    3    0    0  0.82973323463E+01  0.19040448312E+01 -0.12455218962E+02  0.15086536719E+02  0.00000000000E+00 0. -1.
</event>
<event>
 7    1  0.7596051E-010  0.4778726E+02  0.7816164E-02  0.1312668E+00
        -11   -1    0    0    0    0  0.00000000000E+00  0.00000000000E+00  0.45593999997E+02  0.45594000000E+02  0.51100000000E-03 0. -1.
         11   -1    0    0    0    0 -0.00000000000E+00 -0.00000000000E+00 -0.45593999997E+02  0.45594000000E+02  0.51100000000E-03 0.  1.
    9900012    2    1    2    0    0  0.31302225643E+02 -0.29793342231E+02  0.40188607527E+01  0.47787264831E+02  0.19999971668E+02 0.  0.
        -12    1    1    2    0    0 -0.31302225643E+02  0.29793342231E+02 -0.40188607527E+01  0.43400735169E+02  0.00000000000E+00 0.  1.
         11    1    3    3    0    0  0.50248621338E+00 -0.18686141104E+01  0.28062301005E+01  0.34086857770E+01  0.51100000000E-03 0. -1.
        -11    1    3    3    0    0  0.14627263816E+02 -0.19985898371E+02 -0.51042927599E+01  0.25287285051E+02  0.51100000000E-03 0.  1.
        -12    1    3    3    0    0  0.16172475614E+02 -0.79388297492E+01  0.63169234121E+01  0.19091294002E+02  0.00000000000E+00 0.  1.
</event>
<event>
 7    1  0.7596051E-010  0.4778727E+02  0.7816164E-02  0.1312668E+00
        -11   -1    0    0    0    0  0.00000000000E+00  0.00000000000E+00  0.45593999997E+02  0.45594000000E+02  0.51100000000E-03 0. -1.
         11   -1    0    0    0    0 -0.00000000000E+00 -0.00000000000E+00 -0.45593999997E+02  0.45594000000E+02  0.51100000000E-03 0.  1.
    9900012    2    1    2    0    0 -0.14119103928E+02 -0.13086265975E+01 -0.41019040543E+02  0.47787270900E+02  0.19999999343E+02 0.  0.
         12    1    1    2    0    0  0.14119103928E+02  0.13086265975E+01  0.41019040543E+02  0.43400729100E+02  0.00000000000E+00 0. -1.
         11    1    3    3    0    0  0.77616751706E+00 -0.13939219690E+01 -0.58346608138E+01  0.60488611774E+01  0.51100000000E-03 0. -1.
        -11    1    3    3    0    0 -0.13119158501E+02  0.73031430289E+01 -0.23104945192E+02  0.27555157602E+02  0.51100000000E-03 0.  1.
        -12    1    3    3    0    0 -0.17761129445E+01 -0.72178476574E+01 -0.12079434537E+02  0.14183252121E+02  0.00000000000E+00 0.  1.
</event>
<event>
 7    1  0.7596051E-010  0.4778728E+02  0.7816164E-02  0.1312668E+00
        -11   -1    0    0    0    0  0.00000000000E+00  0.00000000000E+00  0.45593999997E+02  0.45594000000E+02  0.51100000000E-03 0. -1.
         11   -1    0    0    0    0 -0.00000000000E+00 -0.00000000000E+00 -0.45593999997E+02  0.45594000000E+02  0.51100000000E-03 0.  1.
    9900012    2    1    2    0    0  0.87519460386E+01  0.29667339791E+02 -0.30444625308E+02  0.47787276275E+02  0.20000023846E+02 0.  0.
         12    1    1    2    0    0 -0.87519460386E+01 -0.29667339791E+02  0.30444625308E+02  0.43400723725E+02  0.00000000000E+00 0. -1.
         11    1    3    3    0    0  0.37872646947E+01  0.17835352184E+01 -0.21045399212E+01  0.46854519829E+01  0.51100000000E-03 0. -1.
        -11    1    3    3    0    0  0.28041206270E+01  0.26984032597E+02 -0.18136641161E+02  0.32633400996E+02  0.51100000000E-03 0.  1.
        -12    1    3    3    0    0  0.21605607168E+01  0.89977197522E+00 -0.10203444226E+02  0.10468423296E+02  0.00000000000E+00 0.  1.
</event>
<event>
 7    1  0.7596051E-010  0.4778727E+02  0.7816164E-02  0.1312668E+00
        -11   -1    0    0    0    0  0.00000000000E+00  0.00000000000E+00  0.45593999997E+02  0.45594000000E+02  0.51100000000E-03 0. -1.
         11   -1    0    0    0    0 -0.00000000000E+00 -0.00000000000E+00 -0.45593999997E+02  0.45594000000E+02  0.51100000000E-03 0.  1.
    9900012    2    1    2    0    0  0.12533008916E+02 -0.31811556285E+02 -0.26731474551E+02  0.47787272386E+02  0.20000006117E+02 0.  0.
         12    1    1    2    0    0 -0.12533008916E+02  0.31811556285E+02  0.26731474551E+02  0.43400727614E+02  0.00000000000E+00 0. -1.
         11    1    3    3    0    0 -0.10679951305E+01 -0.66907599369E+01 -0.70207463995E+01  0.97569340676E+01  0.51100000000E-03 0. -1.
        -11    1    3    3    0    0  0.64554388385E-01 -0.14427988583E+02 -0.13313347352E+02  0.19632020777E+02  0.51100000000E-03 0.  1.
        -12    1    3    3    0    0  0.13536449658E+02 -0.10692807765E+02 -0.63973807993E+01  0.18398317541E+02  0.00000000000E+00 0.  1.
</event>
<event>
 7    1  0.7596051E-010  0.4778727E+02  0.7816164E-02  0.1312668E+00
        -11   -1    0    0    0    0  0.00000000000E+00  0.00000000000E+00  0.45593999997E+02  0.45594000000E+02  0.51100000000E-03 0. -1.
         11   -1    0    0    0    0 -0.00000000000E+00 -0.00000000000E+00 -0.45593999997E+02  0.45594000000E+02  0.51100000000E-03 0.  1.
    9900012    2    1    2    0    0  0.23447622537E+02 -0.20251586098E+02  0.30392529638E+02  0.47787267289E+02  0.19999982876E+02 0.  0.
        -12    1    1    2    0    0 -0.23447622537E+02  0.20251586098E+02 -0.30392529638E+02  0.43400732711E+02  0.00000000000E+00 0.  1.
         11    1    3    3    0    0  0.16780248794E+02 -0.14739516598E+02  0.21204790503E+02  0.30797292733E+02  0.51100000000E-03 0. -1.
        -11    1    3    3    0    0  0.77131146039E+01 -0.30241532557E+01  0.10976573654E+02  0.13752192889E+02  0.51100000000E-03 0.  1.
         12    1    3    3    0    0 -0.10457408610E+01 -0.24879162442E+01 -0.17888345194E+01  0.32377816671E+01  0.00000000000E+00 0. -1.
</event>
<event>
 7    1  0.7596051E-010  0.4778728E+02  0.7816164E-02  0.1312668E+00
        -11   -1    0    0    0    0  0.00000000000E+00  0.00000000000E+00  0.45593999997E+02  0.45594000000E+02  0.51100000000E-03 0. -1.
         11   -1    0    0    0    0 -0.00000000000E+00 -0.00000000000E+00 -0.45593999997E+02  0.45594000000E+02  0.51100000000E-03 0.  1.
    9900012    2    1    2    0    0 -0.14499713069E+02  0.14101300650E+02  0.38399665430E+02  0.47787278068E+02  0.20000032024E+02 0.  0.
        -12    1    1    2    0    0  0.14499713069E+02 -0.14101300650E+02 -0.38399665430E+02  0.43400721932E+02  0.00000000000E+00 0.  1.
         11    1    3    3    0    0  0.11787513005E+01  0.31181589284E+00  0.65057721159E+01  0.66190448604E+01  0.51100000000E-03 0. -1.
        -11    1    3    3    0    0 -0.95343526551E+00  0.55783269709E+01  0.69031707344E+00  0.57011672948E+01  0.51100000000E-03 0.  1.
        -12    1    3    3    0    0 -0.14725029104E+02  0.82111577860E+01  0.31203576240E+02  0.35467065913E+02  0.00000000000E+00 0.  1.
</event>
<event>
 7    1  0.7596051E-010  0.4778727E+02  0.7816164E-02  0.1312668E+00
        -11   -1    0    0    0    0  0.00000000000E+00  0.00000000000E+00  0.45593999997E+02  0.45594000000E+02  0.51100000000E-03 0. -1.
         11   -1    0    0    0    0 -0.00000000000E+00 -0.00000000000E+00 -0.45593999997E+02  0.45594000000E+02  0.51100000000E-03 0.  1.
    9900012    2    1    2    0    0 -0.17088542290E+02  0.13244082728E+02 -0.37632425249E+02  0.47787269188E+02  0.19999991536E+02 0.  0.
         12    1    1    2    0    0  0.17088542290E+02 -0.13244082728E+02  0.37632425249E+02  0.43400730812E+02  0.00000000000E+00 0. -1.
         11    1    3    3    0    0 -0.19118594052E+00 -0.25507586754E+00 -0.89155721743E+01  0.89212691484E+01  0.51100000000E-03 0. -1.
        -11    1    3    3    0    0 -0.25605947942E+01  0.18280010185E+01  0.14665246414E+01  0.34711566096E+01  0.51100000000E-03 0.  1.
        -12    1    3    3    0    0 -0.14336761556E+02  0.11671157577E+02 -0.30183377716E+02  0.35394843430E+02  0.00000000000E+00 0.  1.
</event>
<event>
 7    1  0.7596051E-010  0.4778728E+02  0.7816164E-02  0.1312668E+00
        -11   -1    0    0    0    0  0.00000000000E+00  0.00000000000E+00  0.45593999997E+02  0.45594000000E+02  0.51100000000E-03 0. -1.
         11   -1    0    0    0    0 -0.00000000000E+00 -0.00000000000E+00 -0.45593999997E+02  0.45594000000E+02  0.51100000000E-03 0.  1.
    9900012    2    1    2    0    0  0.25024945757E+02  0.13215940452E+02 -0.32904606194E+02  0.47787284557E+02  0.20000061609E+02 0.  0.
         12    1    1    2    0    0 -0.25024945757E+02 -0.13215940452E+02  0.32904606194E+02  0.43400715443E+02  0.00000000000E+00 0. -1.
         11    1    3    3    0    0  0.29257550685E+01  0.46849156079E+01 -0.15030744247E+01  0.57243086885E+01  0.51100000000E-03 0. -1.
        -11    1    3    3    0    0  0.11133485599E+02 -0.11485601944E+00 -0.50195860285E+01  0.12213268917E+02  0.51100000000E-03 0.  1.
        -12    1    3    3    0    0  0.10965705090E+02  0.86458808640E+01 -0.26381945740E+02  0.29849706951E+02  0.00000000000E+00 0.  1.
</event>
<event>
 7    1  0.7596051E-010  0.4778727E+02  0.7816164E-02  0.1312668E+00
        -11   -1    0    0    0    0  0.00000000000E+00  0.00000000000E+00  0.45593999997E+02  0.45594000000E+02  0.51100000000E-03 0.  1.
         11   -1    0    0    0    0 -0.00000000000E+00 -0.00000000000E+00 -0.45593999997E+02  0.45594000000E+02  0.51100000000E-03 0. -1.
    9900012    2    1    2    0    0 -0.13374234870E+02  0.36840377044E+02  0.18642429056E+02  0.47787266133E+02  0.19999977608E+02 0.  0.
        -12    1    1    2    0    0  0.13374234870E+02 -0.36840377044E+02 -0.18642429056E+02  0.43400733867E+02  0.00000000000E+00 0.  1.
         11    1    3    3    0    0 -0.52450563697E+01  0.87614773954E+01  0.85792292681E+01  0.13337064054E+02  0.51100000000E-03 0. -1.
        -11    1    3    3    0    0 -0.12682735121E+02  0.20505610227E+02  0.73739857985E+01  0.25213240326E+02  0.51100000000E-03 0.  1.
         12    1    3    3    0    0  0.45535566206E+01  0.75732894213E+01  0.26892139890E+01  0.92369617534E+01  0.00000000000E+00 0. -1.
</event>
<event>
 7    1  0.7596051E-010  0.4778727E+02  0.7816164E-02  0.1312668E+00
        -11   -1    0    0    0    0  0.00000000000E+00  0.00000000000E+00  0.45593999997E+02  0.45594000000E+02  0.51100000000E-03 0. -1.
         11   -1    0    0    0    0 -0.00000000000E+00 -0.00000000000E+00 -0.45593999997E+02  0.45594000000E+02  0.51100000000E-03 0.  1.
    9900012    2    1    2    0    0  0.18569824758E+02 -0.21856099014E+02  0.32574463994E+02  0.47787272355E+02  0.20000005975E+02 0.  0.
        -12    1    1    2    0    0 -0.18569824758E+02  0.21856099014E+02 -0.32574463994E+02  0.43400727645E+02  0.00000000000E+00 0.  1.
         11    1    3    3    0    0  0.15349464466E+02 -0.20175849435E+02  0.17516322507E+02  0.30813836409E+02  0.51100000000E-03 0.  1.
        -11    1    3    3    0    0  0.25470414225E+01 -0.43709626747E+01  0.97111932834E+01  0.10949886299E+02  0.51100000000E-03 0. -1.
        -12    1    3    3    0    0  0.67331886994E+00  0.26907130956E+01  0.53469482035E+01  0.60235496474E+01  0.00000000000E+00 0.  1.
</event>
<event>
 7    1  0.7596051E-010  0.4778727E+02  0.7816164E-02  0.1312668E+00
        -11   -1    0    0    0    0  0.00000000000E+00  0.00000000000E+00  0.45593999997E+02  0.45594000000E+02  0.51100000000E-03 0. -1.
         11   -1    0    0    0    0 -0.00000000000E+00 -0.00000000000E+00 -0.45593999997E+02  0.45594000000E+02  0.51100000000E-03 0.  1.
    9900012    2    1    2    0    0 -0.29417202605E+02 -0.16479109198E+02  0.27325634442E+02  0.47787272509E+02  0.20000006678E+02 0.  0.
        -12    1    1    2    0    0  0.29417202605E+02  0.16479109198E+02 -0.27325634442E+02  0.43400727491E+02  0.00000000000E+00 0.  1.
         11    1    3    3    0    0 -0.18049142265E+01  0.57181791844E+00  0.82046272390E+01  0.84202493721E+01  0.51100000000E-03 0. -1.
        -11    1    3    3    0    0 -0.96586114919E+01 -0.11613867613E+00  0.65391314338E+01  0.11664583332E+02  0.51100000000E-03 0.  1.
        -12    1    3    3    0    0 -0.17953676887E+02 -0.16934788440E+02  0.12581875770E+02  0.27702439805E+02  0.00000000000E+00 0.  1.
</event>
<event>
 7    1  0.7596051E-010  0.4778727E+02  0.7816164E-02  0.1312668E+00
        -11   -1    0    0    0    0  0.00000000000E+00  0.00000000000E+00  0.45593999997E+02  0.45594000000E+02  0.51100000000E-03 0. -1.
         11   -1    0    0    0    0 -0.00000000000E+00 -0.00000000000E+00 -0.45593999997E+02  0.45594000000E+02  0.51100000000E-03 0.  1.
    9900012    2    1    2    0    0  0.19743561188E+02  0.31827832259E+02 -0.21927252272E+02  0.47787268360E+02  0.19999987761E+02 0.  0.
         12    1    1    2    0    0 -0.19743561188E+02 -0.31827832259E+02  0.21927252272E+02  0.43400731640E+02  0.00000000000E+00 0. -1.
         11    1    3    3    0    0  0.63514587687E+01  0.32763719632E+00 -0.28256129591E+01  0.69593436097E+01  0.51100000000E-03 0. -1.
        -11    1    3    3    0    0  0.65776191147E+01  0.82640930133E+01 -0.10285018672E+01  0.10612168624E+02  0.51100000000E-03 0.  1.
         12    1    3    3    0    0  0.68144833043E+01  0.23236102050E+02 -0.18073137446E+02  0.30215756126E+02  0.00000000000E+00 0. -1.
</event>
<event>
 7    1  0.9139271E-010  0.4778727E+02  0.7816164E-02  0.1312668E+00
        -11   -1    0    0    0    0  0.00000000000E+00  0.00000000000E+00  0.45593999997E+02  0.45594000000E+02  0.51100000000E-03 0. -1.
         11   -1    0    0    0    0 -0.00000000000E+00 -0.00000000000E+00 -0.45593999997E+02  0.45594000000E+02  0.51100000000E-03 0.  1.
    9900012    2    1    2    0    0  0.22104299981E+02 -0.15367770281E+02  0.34041954880E+02  0.47787272666E+02  0.20000007394E+02 0.  0.
        -12    1    1    2    0    0 -0.22104299981E+02  0.15367770281E+02 -0.34041954880E+02  0.43400727334E+02  0.00000000000E+00 0.  1.
         11    1    3    3    0    0  0.48642398772E+01 -0.20824196524E+01  0.14922465722E+02  0.15832791436E+02  0.51100000000E-03 0. -1.
        -11    1    3    3    0    0 -0.20158676526E+01 -0.29182049320E+01  0.14212553502E+01  0.38209435287E+01  0.51100000000E-03 0.  1.
         12    1    3    3    0    0  0.19255927756E+02 -0.10367145697E+02  0.17698233808E+02  0.28133537701E+02  0.00000000000E+00 0. -1.
</event>
<event>
 7    1  0.7596051E-010  0.4778727E+02  0.7816164E-02  0.1312668E+00
        -11   -1    0    0    0    0  0.00000000000E+00  0.00000000000E+00  0.45593999997E+02  0.45594000000E+02  0.51100000000E-03 0. -1.
         11   -1    0    0    0    0 -0.00000000000E+00 -0.00000000000E+00 -0.45593999997E+02  0.45594000000E+02  0.51100000000E-03 0.  1.
    9900012    2    1    2    0    0 -0.19309132229E+02  0.10815129034E+02 -0.37333813884E+02  0.47787271174E+02  0.20000000592E+02 0.  0.
         12    1    1    2    0    0  0.19309132229E+02 -0.10815129034E+02  0.37333813884E+02  0.43400728826E+02  0.00000000000E+00 0. -1.
         11    1    3    3    0    0 -0.73977712328E+01 -0.45765582713E+01 -0.75096872512E+01  0.11492054111E+02  0.51100000000E-03 0. -1.
        -11    1    3    3    0    0  0.88716575185E+00  0.50543105692E+00 -0.10747108278E+01  0.14824058989E+01  0.51100000000E-03 0.  1.
        -12    1    3    3    0    0 -0.12798526748E+02  0.14886256248E+02 -0.28749415805E+02  0.34812811164E+02  0.00000000000E+00 0.  1.
</event>
<event>
 7    1  0.7596051E-010  0.4778727E+02  0.7816164E-02  0.1312668E+00
        -11   -1    0    0    0    0  0.00000000000E+00  0.00000000000E+00  0.45593999997E+02  0.45594000000E+02  0.51100000000E-03 0.  1.
         11   -1    0    0    0    0 -0.00000000000E+00 -0.00000000000E+00 -0.45593999997E+02  0.45594000000E+02  0.51100000000E-03 0. -1.
    9900012    2    1    2    0    0 -0.32859528638E+02 -0.27340269833E+02 -0.75089679850E+01  0.47787267551E+02  0.19999984074E+02 0.  0.
         12    1    1    2    0    0  0.32859528638E+02  0.27340269833E+02  0.75089679850E+01  0.43400732449E+02  0.00000000000E+00 0. -1.
         11    1    3    3    0    0 -0.43849423227E+01 -0.48134933438E+01  0.39907989594E+01  0.76370094894E+01  0.51100000000E-03 0. -1.
        -11    1    3    3    0    0 -0.18720520156E+02 -0.85667264242E+01 -0.20898177997E+01  0.20693332628E+02  0.51100000000E-03 0.  1.
        -12    1    3    3    0    0 -0.97540661596E+01 -0.13960050065E+02 -0.94099491448E+01  0.19456925434E+02  0.00000000000E+00 0.  1.
</event>
<event>
 7    1  0.7596051E-010  0.4778727E+02  0.7816164E-02  0.1312668E+00
        -11   -1    0    0    0    0  0.00000000000E+00  0.00000000000E+00  0.45593999997E+02  0.45594000000E+02  0.51100000000E-03 0. -1.
         11   -1    0    0    0    0 -0.00000000000E+00 -0.00000000000E+00 -0.45593999997E+02  0.45594000000E+02  0.51100000000E-03 0.  1.
    9900012    2    1    2    0    0 -0.29227702282E+02 -0.20419698244E+02 -0.24746729833E+02  0.47787270807E+02  0.19999998919E+02 0.  0.
         12    1    1    2    0    0  0.29227702282E+02  0.20419698244E+02  0.24746729833E+02  0.43400729193E+02  0.00000000000E+00 0. -1.
         11    1    3    3    0    0 -0.43814130233E+01  0.10423756589E+01  0.17237059254E+00  0.45069988881E+01  0.51100000000E-03 0. -1.
        -11    1    3    3    0    0 -0.19882493831E+02 -0.19049096431E+02 -0.13651312214E+02  0.30733368855E+02  0.51100000000E-03 0.  1.
         12    1    3    3    0    0 -0.49637954273E+01 -0.24129774722E+01 -0.11267788211E+02  0.12546903064E+02  0.00000000000E+00 0. -1.
</event>
<event>
 7    1  0.7596051E-010  0.4778728E+02  0.7816164E-02  0.1312668E+00
        -11   -1    0    0    0    0  0.00000000000E+00  0.00000000000E+00  0.45593999997E+02  0.45594000000E+02  0.51100000000E-03 0. -1.
         11   -1    0    0    0    0 -0.00000000000E+00 -0.00000000000E+00 -0.45593999997E+02  0.45594000000E+02  0.51100000000E-03 0.  1.
    9900012    2    1    2    0    0 -0.39971088363E+01  0.11430347566E+02 -0.41677249723E+02  0.47787275709E+02  0.20000021268E+02 0.  0.
         12    1    1    2    0    0  0.39971088363E+01 -0.11430347566E+02  0.41677249723E+02  0.43400724291E+02  0.00000000000E+00 0. -1.
         11    1    3    3    0    0  0.27675910205E+01  0.33274249139E+01 -0.16756693739E+02  0.17306591285E+02  0.51100000000E-03 0. -1.
        -11    1    3    3    0    0  0.88103410049E+00 -0.31629239654E+01 -0.87254378417E+01  0.93227450297E+01  0.51100000000E-03 0.  1.
         12    1    3    3    0    0 -0.76457339573E+01  0.11265846617E+02 -0.16195118142E+02  0.21157939394E+02  0.00000000000E+00 0. -1.
</event>
<event>
 7    1  0.7596051E-010  0.4778727E+02  0.7816164E-02  0.1312668E+00
        -11   -1    0    0    0    0  0.00000000000E+00  0.00000000000E+00  0.45593999997E+02  0.45594000000E+02  0.51100000000E-03 0. -1.
         11   -1    0    0    0    0 -0.00000000000E+00 -0.00000000000E+00 -0.45593999997E+02  0.45594000000E+02  0.51100000000E-03 0.  1.
    9900012    2    1    2    0    0  0.14281646404E+02  0.88910982845E+01  0.40007577691E+02  0.47787270451E+02  0.19999997293E+02 0.  0.
        -12    1    1    2    0    0 -0.14281646404E+02 -0.88910982845E+01 -0.40007577691E+02  0.43400729549E+02  0.00000000000E+00 0.  1.
         11    1    3    3    0    0  0.81439368936E+01  0.54996294610E+01  0.34977545858E+02  0.36331781498E+02  0.51100000000E-03 0. -1.
        -11    1    3    3    0    0  0.34184522592E+01 -0.93625100841E+00  0.52559827177E+01  0.63393798111E+01  0.51100000000E-03 0.  1.
        -12    1    3    3    0    0  0.27192572515E+01  0.43277198319E+01 -0.22595088484E+00  0.51161091413E+01  0.00000000000E+00 0.  1.
</event>
<event>
 7    1  0.7596051E-010  0.4778727E+02  0.7816164E-02  0.1312668E+00
        -11   -1    0    0    0    0  0.00000000000E+00  0.00000000000E+00  0.45593999997E+02  0.45594000000E+02  0.51100000000E-03 0. -1.
         11   -1    0    0    0    0 -0.00000000000E+00 -0.00000000000E+00 -0.45593999997E+02  0.45594000000E+02  0.51100000000E-03 0.  1.
    9900012    2    1    2    0    0 -0.31353134251E+02  0.14893189423E+02 -0.26053742910E+02  0.47787266848E+02  0.19999980866E+02 0.  0.
         12    1    1    2    0    0  0.31353134251E+02 -0.14893189423E+02  0.26053742910E+02  0.43400733152E+02  0.00000000000E+00 0. -1.
         11    1    3    3    0    0  0.23735402322E+00 -0.48884402305E+00 -0.58053800669E+00  0.79519183191E+00  0.51100000000E-03 0. -1.
        -11    1    3    3    0    0 -0.89169958228E+01  0.11865964647E+02 -0.16913563367E+02  0.22502945530E+02  0.51100000000E-03 0.  1.
         12    1    3    3    0    0 -0.22673492451E+02  0.35160687984E+01 -0.85596415362E+01  0.24489129486E+02  0.00000000000E+00 0. -1.
</event>
<event>
 7    1  0.7596051E-010  0.4778727E+02  0.7816164E-02  0.1312668E+00
        -11   -1    0    0    0    0  0.00000000000E+00  0.00000000000E+00  0.45593999997E+02  0.45594000000E+02  0.51100000000E-03 0. -1.
         11   -1    0    0    0    0 -0.00000000000E+00 -0.00000000000E+00 -0.45593999997E+02  0.45594000000E+02  0.51100000000E-03 0.  1.
    9900012    2    1    2    0    0 -0.91176536839E+01 -0.83655770735E+01 -0.41599382541E+02  0.47787272860E+02  0.20000008277E+02 0.  0.
         12    1    1    2    0    0  0.91176536839E+01  0.83655770735E+01  0.41599382541E+02  0.43400727140E+02  0.00000000000E+00 0. -1.
         11    1    3    3    0    0  0.90102275838E+00  0.98856141385E+00 -0.35074947749E+01  0.37538800643E+01  0.51100000000E-03 0. -1.
        -11    1    3    3    0    0 -0.14516803151E+02 -0.93764318074E+01 -0.32909701158E+02  0.37171272211E+02  0.51100000000E-03 0.  1.
        -12    1    3    3    0    0  0.44981267088E+01  0.22293320086E-01 -0.51821866083E+01  0.68621205851E+01  0.00000000000E+00 0.  1.
</event>
<event>
 7    1  0.7596051E-010  0.4778724E+02  0.7816164E-02  0.1312668E+00
        -11   -1    0    0    0    0  0.00000000000E+00  0.00000000000E+00  0.45593999997E+02  0.45594000000E+02  0.51100000000E-03 0. -1.
         11   -1    0    0    0    0 -0.00000000000E+00 -0.00000000000E+00 -0.45593999997E+02  0.45594000000E+02  0.51100000000E-03 0.  1.
    9900012    2    1    2    0    0  0.32028737221E+02  0.17641921343E+02  0.23378374417E+02  0.47787242092E+02  0.19999867993E+02 0.  0.
        -12    1    1    2    0    0 -0.32028737221E+02 -0.17641921343E+02 -0.23378374417E+02  0.43400757908E+02  0.00000000000E+00 0.  1.
         11    1    3    3    0    0  0.12776015401E+02  0.21720497359E+01  0.84311072957E+01  0.15460528454E+02  0.51100000000E-03 0. -1.
        -11    1    3    3    0    0  0.97304662826E+00  0.31242515088E+00  0.73118000360E+01  0.73828754048E+01  0.51100000000E-03 0.  1.
        -12    1    3    3    0    0  0.18279675191E+02  0.15157446457E+02  0.76354670852E+01  0.24943838233E+02  0.00000000000E+00 0.  1.
</event>
<event>
 7    1  0.7596051E-010  0.4778727E+02  0.7816164E-02  0.1312668E+00
        -11   -1    0    0    0    0  0.00000000000E+00  0.00000000000E+00  0.45593999997E+02  0.45594000000E+02  0.51100000000E-03 0.  1.
         11   -1    0    0    0    0 -0.00000000000E+00 -0.00000000000E+00 -0.45593999997E+02  0.45594000000E+02  0.51100000000E-03 0. -1.
    9900012    2    1    2    0    0 -0.39397126791E+02 -0.75232582670E+01 -0.16579818875E+02  0.47787269496E+02  0.19999992941E+02 0.  0.
        -12    1    1    2    0    0  0.39397126791E+02  0.75232582670E+01  0.16579818875E+02  0.43400730504E+02  0.00000000000E+00 0.  1.
         11    1    3    3    0    0 -0.11218179817E+02  0.10888891280E+01 -0.12115958528E+01  0.11335837098E+02  0.51100000000E-03 0. -1.
        -11    1    3    3    0    0 -0.13206248892E+02  0.11773924276E+00  0.12035513773E+00  0.13207322134E+02  0.51100000000E-03 0.  1.
         12    1    3    3    0    0 -0.14972698081E+02 -0.87298866378E+01 -0.15488578160E+02  0.23244110264E+02  0.00000000000E+00 0. -1.
</event>
<event>
 7    1  0.7596051E-010  0.4778727E+02  0.7816164E-02  0.1312668E+00
        -11   -1    0    0    0    0  0.00000000000E+00  0.00000000000E+00  0.45593999997E+02  0.45594000000E+02  0.51100000000E-03 0. -1.
         11   -1    0    0    0    0 -0.00000000000E+00 -0.00000000000E+00 -0.45593999997E+02  0.45594000000E+02  0.51100000000E-03 0.  1.
    9900012    2    1    2    0    0 -0.22775052500E+02 -0.35587944513E+02  0.99206152048E+01  0.47787269395E+02  0.19999992478E+02 0.  0.
        -12    1    1    2    0    0  0.22775052500E+02  0.35587944513E+02 -0.99206152048E+01  0.43400730605E+02  0.00000000000E+00 0.  1.
         11    1    3    3    0    0 -0.12942435511E+02 -0.31739926903E+02  0.70920445931E+01  0.35003238329E+02  0.51100000000E-03 0. -1.
        -11    1    3    3    0    0 -0.61851487493E+01 -0.50458043322E+01  0.37751595924E+01  0.88299511107E+01  0.51100000000E-03 0.  1.
        -12    1    3    3    0    0 -0.36474682393E+01  0.11977867220E+01 -0.94658898072E+00  0.39540799545E+01  0.00000000000E+00 0.  1.
</event>
<event>
 7    1  0.7596051E-010  0.4778727E+02  0.7816164E-02  0.1312668E+00
        -11   -1    0    0    0    0  0.00000000000E+00  0.00000000000E+00  0.45593999997E+02  0.45594000000E+02  0.51100000000E-03 0. -1.
         11   -1    0    0    0    0 -0.00000000000E+00 -0.00000000000E+00 -0.45593999997E+02  0.45594000000E+02  0.51100000000E-03 0.  1.
    9900012    2    1    2    0    0 -0.10948542823E+02 -0.92505798243E+01  0.40965591537E+02  0.47787268358E+02  0.19999987752E+02 0.  0.
        -12    1    1    2    0    0  0.10948542823E+02  0.92505798243E+01 -0.40965591537E+02  0.43400731642E+02  0.00000000000E+00 0.  1.
         11    1    3    3    0    0 -0.95743226398E+01 -0.14772079262E+01  0.19768393563E+02  0.22014522061E+02  0.51100000000E-03 0.  1.
        -11    1    3    3    0    0 -0.51082737692E+01  0.81455909757E+00  0.91864830908E+01  0.10542743441E+02  0.51100000000E-03 0. -1.
         12    1    3    3    0    0  0.37340535859E+01 -0.85879309957E+01  0.12010714884E+02  0.15230002856E+02  0.00000000000E+00 0. -1.
</event>
<event>
 7    1  0.7596051E-010  0.4778727E+02  0.7816164E-02  0.1312668E+00
        -11   -1    0    0    0    0  0.00000000000E+00  0.00000000000E+00  0.45593999997E+02  0.45594000000E+02  0.51100000000E-03 0. -1.
         11   -1    0    0    0    0 -0.00000000000E+00 -0.00000000000E+00 -0.45593999997E+02  0.45594000000E+02  0.51100000000E-03 0.  1.
    9900012    2    1    2    0    0 -0.25125771669E+02 -0.25216889078E+02 -0.24827953002E+02  0.47787272506E+02  0.20000006665E+02 0.  0.
         12    1    1    2    0    0  0.25125771669E+02  0.25216889078E+02  0.24827953002E+02  0.43400727494E+02  0.00000000000E+00 0. -1.
         11    1    3    3    0    0 -0.74118038071E+01 -0.43687024190E+01 -0.11544526184E+02  0.14397794330E+02  0.51100000000E-03 0. -1.
        -11    1    3    3    0    0 -0.64582470915E+01 -0.13475432814E+02 -0.13193093501E+02  0.19933739273E+02  0.51100000000E-03 0.  1.
        -12    1    3    3    0    0 -0.11255720770E+02 -0.73727538446E+01 -0.90333317132E-01  0.13455738903E+02  0.00000000000E+00 0.  1.
</event>
<event>
 7    1  0.7596051E-010  0.4778727E+02  0.7816164E-02  0.1312668E+00
        -11   -1    0    0    0    0  0.00000000000E+00  0.00000000000E+00  0.45593999997E+02  0.45594000000E+02  0.51100000000E-03 0. -1.
         11   -1    0    0    0    0 -0.00000000000E+00 -0.00000000000E+00 -0.45593999997E+02  0.45594000000E+02  0.51100000000E-03 0.  1.
    9900012    2    1    2    0    0  0.27969177747E+02 -0.16529505456E+02  0.28777140331E+02  0.47787271204E+02  0.20000000725E+02 0.  0.
        -12    1    1    2    0    0 -0.27969177747E+02  0.16529505456E+02 -0.28777140331E+02  0.43400728796E+02  0.00000000000E+00 0.  1.
         11    1    3    3    0    0  0.16397711947E+02 -0.79467309518E+01  0.14321666191E+02  0.23176402065E+02  0.51100000000E-03 0. -1.
        -11    1    3    3    0    0  0.96822569996E+01 -0.11314231652E+02  0.70114807180E+01  0.16459611193E+02  0.51100000000E-03 0.  1.
         12    1    3    3    0    0  0.18892088002E+01  0.27314571483E+01  0.74439934217E+01  0.81512579462E+01  0.00000000000E+00 0. -1.
</event>
<event>
 7    1  0.7596051E-010  0.4778727E+02  0.7816164E-02  0.1312668E+00
        -11   -1    0    0    0    0  0.00000000000E+00  0.00000000000E+00  0.45593999997E+02  0.45594000000E+02  0.51100000000E-03 0. -1.
         11   -1    0    0    0    0 -0.00000000000E+00 -0.00000000000E+00 -0.45593999997E+02  0.45594000000E+02  0.51100000000E-03 0.  1.
    9900012    2    1    2    0    0  0.34658486269E+02  0.20936264813E+02  0.15623228486E+02  0.47787272781E+02  0.20000007919E+02 0.  0.
        -12    1    1    2    0    0 -0.34658486269E+02 -0.20936264813E+02 -0.15623228486E+02  0.43400727219E+02  0.00000000000E+00 0.  1.
         11    1    3    3    0    0  0.11308875001E+02  0.41617452175E+01  0.44926554208E+01  0.12860588246E+02  0.51100000000E-03 0. -1.
        -11    1    3    3    0    0  0.22465596365E+02  0.76816954680E+01  0.98373884747E+01  0.25699915905E+02  0.51100000000E-03 0.  1.
        -12    1    3    3    0    0  0.88401490364E+00  0.90928241279E+01  0.12931845909E+01  0.92267686303E+01  0.00000000000E+00 0.  1.
</event>
<event>
 7    1  0.7596051E-010  0.4778727E+02  0.7816164E-02  0.1312668E+00
        -11   -1    0    0    0    0  0.00000000000E+00  0.00000000000E+00  0.45593999997E+02  0.45594000000E+02  0.51100000000E-03 0. -1.
         11   -1    0    0    0    0 -0.00000000000E+00 -0.00000000000E+00 -0.45593999997E+02  0.45594000000E+02  0.51100000000E-03 0.  1.
    9900012    2    1    2    0    0  0.19597183761E+02  0.24612350870E+02 -0.29896584908E+02  0.47787271712E+02  0.20000003046E+02 0.  0.
         12    1    1    2    0    0 -0.19597183761E+02 -0.24612350870E+02  0.29896584908E+02  0.43400728288E+02  0.00000000000E+00 0. -1.
         11    1    3    3    0    0  0.78747316474E+01  0.48443504025E+01 -0.13290835741E+02  0.16190288580E+02  0.51100000000E-03 0. -1.
        -11    1    3    3    0    0  0.85531539606E+01  0.31575118065E+01 -0.21913789464E+01  0.93770179391E+01  0.51100000000E-03 0.  1.
         12    1    3    3    0    0  0.31692981533E+01  0.16610488661E+02 -0.14414370221E+02  0.22219965193E+02  0.00000000000E+00 0. -1.
</event>
<event>
 7    1  0.7596051E-010  0.4778727E+02  0.7816164E-02  0.1312668E+00
        -11   -1    0    0    0    0  0.00000000000E+00  0.00000000000E+00  0.45593999997E+02  0.45594000000E+02  0.51100000000E-03 0.  1.
         11   -1    0    0    0    0 -0.00000000000E+00 -0.00000000000E+00 -0.45593999997E+02  0.45594000000E+02  0.51100000000E-03 0. -1.
    9900012    2    1    2    0    0  0.30260260290E+02 -0.31075874070E+02  0.14932265361E+01  0.47787273883E+02  0.20000012942E+02 0.  0.
        -12    1    1    2    0    0 -0.30260260290E+02  0.31075874070E+02 -0.14932265361E+01  0.43400726117E+02  0.00000000000E+00 0.  1.
         11    1    3    3    0    0  0.14472360366E+02 -0.16247892203E+02  0.30838674351E+01  0.21976201998E+02  0.51100000000E-03 0. -1.
        -11    1    3    3    0    0  0.15462558445E+02 -0.62003956014E+01  0.12905030019E+01  0.16709309308E+02  0.51100000000E-03 0.  1.
         12    1    3    3    0    0  0.32534147815E+00 -0.86275862648E+01 -0.28811439009E+01  0.91017625772E+01  0.00000000000E+00 0. -1.
</event>
<event>
 7    1  0.7596051E-010  0.4778731E+02  0.7816164E-02  0.1312668E+00
        -11   -1    0    0    0    0  0.00000000000E+00  0.00000000000E+00  0.45593999997E+02  0.45594000000E+02  0.51100000000E-03 0. -1.
         11   -1    0    0    0    0 -0.00000000000E+00 -0.00000000000E+00 -0.45593999997E+02  0.45594000000E+02  0.51100000000E-03 0.  1.
    9900012    2    1    2    0    0  0.38650647249E+02 -0.12036883712E+02 -0.15648030156E+02  0.47787309337E+02  0.20000174590E+02 0.  0.
         12    1    1    2    0    0 -0.38650647249E+02  0.12036883712E+02  0.15648030156E+02  0.43400690663E+02  0.00000000000E+00 0. -1.
         11    1    3    3    0    0  0.20846041604E+00 -0.10439973412E+01 -0.56408342298E+00  0.12048139120E+01  0.51100000000E-03 0. -1.
        -11    1    3    3    0    0  0.24719126221E+02  0.21403843653E+01 -0.11065118152E+02  0.27167136146E+02  0.51100000000E-03 0.  1.
         12    1    3    3    0    0  0.13723060612E+02 -0.13133270736E+02 -0.40188285812E+01  0.19415359279E+02  0.00000000000E+00 0. -1.
</event>
<event>
 7    1  0.7596051E-010  0.4778726E+02  0.7816164E-02  0.1312668E+00
        -11   -1    0    0    0    0  0.00000000000E+00  0.00000000000E+00  0.45593999997E+02  0.45594000000E+02  0.51100000000E-03 0. -1.
         11   -1    0    0    0    0 -0.00000000000E+00 -0.00000000000E+00 -0.45593999997E+02  0.45594000000E+02  0.51100000000E-03 0.  1.
    9900012    2    1    2    0    0 -0.69015548709E+01  0.69394676515E+00  0.42842868846E+02  0.47787257694E+02  0.19999939132E+02 0.  0.
        -12    1    1    2    0    0  0.69015548709E+01 -0.69394676515E+00 -0.42842868846E+02  0.43400742306E+02  0.00000000000E+00 0.  1.
         11    1    3    3    0    0 -0.43112366513E+00 -0.20110679166E+01  0.22958315345E+02  0.23050260422E+02  0.51100000000E-03 0. -1.
        -11    1    3    3    0    0  0.19078694258E+01  0.40181050841E+01  0.13228532140E+02  0.13956331790E+02  0.51100000000E-03 0.  1.
        -12    1    3    3    0    0 -0.83783006316E+01 -0.13130904024E+01  0.66560213615E+01  0.10780665482E+02  0.00000000000E+00 0.  1.
</event>
<event>
 7    1  0.7596051E-010  0.4778728E+02  0.7816164E-02  0.1312668E+00
        -11   -1    0    0    0    0  0.00000000000E+00  0.00000000000E+00  0.45593999997E+02  0.45594000000E+02  0.51100000000E-03 0. -1.
         11   -1    0    0    0    0 -0.00000000000E+00 -0.00000000000E+00 -0.45593999997E+02  0.45594000000E+02  0.51100000000E-03 0.  1.
    9900012    2    1    2    0    0 -0.17601522799E+02 -0.12517429074E+02 -0.37644691484E+02  0.47787280739E+02  0.20000044200E+02 0.  0.
         12    1    1    2    0    0  0.17601522799E+02  0.12517429074E+02  0.37644691484E+02  0.43400719261E+02  0.00000000000E+00 0. -1.
         11    1    3    3    0    0 -0.13531744357E+01  0.84629032640E+00 -0.25322813017E+00  0.16159867317E+01  0.51100000000E-03 0. -1.
        -11    1    3    3    0    0 -0.41352382766E+01 -0.58689906591E+01 -0.28475751523E+02  0.29366880529E+02  0.51100000000E-03 0.  1.
        -12    1    3    3    0    0 -0.12113110087E+02 -0.74947287414E+01 -0.89157118311E+01  0.16804413478E+02  0.00000000000E+00 0.  1.
</event>
<event>
 7    1  0.7596051E-010  0.4778727E+02  0.7816164E-02  0.1312668E+00
        -11   -1    0    0    0    0  0.00000000000E+00  0.00000000000E+00  0.45593999997E+02  0.45594000000E+02  0.51100000000E-03 0. -1.
         11   -1    0    0    0    0 -0.00000000000E+00 -0.00000000000E+00 -0.45593999997E+02  0.45594000000E+02  0.51100000000E-03 0.  1.
    9900012    2    1    2    0    0 -0.25621724768E+02  0.15236198311E+02  0.31543763415E+02  0.47787268100E+02  0.19999986577E+02 0.  0.
        -12    1    1    2    0    0  0.25621724768E+02 -0.15236198311E+02 -0.31543763415E+02  0.43400731900E+02  0.00000000000E+00 0.  1.
         11    1    3    3    0    0 -0.53759896854E+01 -0.19645481439E+01  0.11101844143E+02  0.12490462688E+02  0.51100000000E-03 0.  1.
        -11    1    3    3    0    0 -0.60378430752E+01  0.72116622880E+01  0.13803719506E+02  0.16703481506E+02  0.51100000000E-03 0. -1.
         12    1    3    3    0    0 -0.14207892007E+02  0.99890841669E+01  0.66381997653E+01  0.18593323907E+02  0.00000000000E+00 0. -1.
</event>
<event>
 7    1  0.7596051E-010  0.4778727E+02  0.7816164E-02  0.1312668E+00
        -11   -1    0    0    0    0  0.00000000000E+00  0.00000000000E+00  0.45593999997E+02  0.45594000000E+02  0.51100000000E-03 0. -1.
         11   -1    0    0    0    0 -0.00000000000E+00 -0.00000000000E+00 -0.45593999997E+02  0.45594000000E+02  0.51100000000E-03 0.  1.
    9900012    2    1    2    0    0  0.30868543981E+02 -0.54178491055E+01  0.30023383466E+02  0.47787266697E+02  0.19999980180E+02 0.  0.
        -12    1    1    2    0    0 -0.30868543981E+02  0.54178491055E+01 -0.30023383466E+02  0.43400733303E+02  0.00000000000E+00 0.  1.
         11    1    3    3    0    0  0.27362150909E+01  0.25196454168E+01  0.46119744216E+01  0.59250142934E+01  0.51100000000E-03 0. -1.
        -11    1    3    3    0    0  0.41045500129E+01  0.45091175795E+01  0.60438571385E+01  0.85853177883E+01  0.51100000000E-03 0.  1.
         12    1    3    3    0    0  0.24027778877E+02 -0.12446612102E+02  0.19367551906E+02  0.33276934616E+02  0.00000000000E+00 0. -1.
</event>
<event>
 7    1  0.7596051E-010  0.4778727E+02  0.7816164E-02  0.1312668E+00
        -11   -1    0    0    0    0  0.00000000000E+00  0.00000000000E+00  0.45593999997E+02  0.45594000000E+02  0.51100000000E-03 0. -1.
         11   -1    0    0    0    0 -0.00000000000E+00 -0.00000000000E+00 -0.45593999997E+02  0.45594000000E+02  0.51100000000E-03 0.  1.
    9900012    2    1    2    0    0 -0.61223138018E+00  0.36971133769E+02  0.22724077689E+02  0.47787271132E+02  0.20000000400E+02 0.  0.
        -12    1    1    2    0    0  0.61223138018E+00 -0.36971133769E+02 -0.22724077689E+02  0.43400728868E+02  0.00000000000E+00 0.  1.
         11    1    3    3    0    0 -0.10569402022E+01  0.50236913577E+01  0.76300789968E+01  0.91963418383E+01  0.51100000000E-03 0.  1.
        -11    1    3    3    0    0 -0.55483535980E+01  0.38388067168E+01  0.34927136410E+01  0.75973491098E+01  0.51100000000E-03 0. -1.
         12    1    3    3    0    0  0.59930624199E+01  0.28108635695E+02  0.11601285052E+02  0.30993580184E+02  0.00000000000E+00 0. -1.
</event>
<event>
 7    1  0.7596051E-010  0.4778727E+02  0.7816164E-02  0.1312668E+00
        -11   -1    0    0    0    0  0.00000000000E+00  0.00000000000E+00  0.45593999997E+02  0.45594000000E+02  0.51100000000E-03 0. -1.
         11   -1    0    0    0    0 -0.00000000000E+00 -0.00000000000E+00 -0.45593999997E+02  0.45594000000E+02  0.51100000000E-03 0.  1.
    9900012    2    1    2    0    0  0.16712313842E+02 -0.92050536698E+01  0.38981905654E+02  0.47787269414E+02  0.19999992565E+02 0.  0.
        -12    1    1    2    0    0 -0.16712313842E+02  0.92050536698E+01 -0.38981905654E+02  0.43400730586E+02  0.00000000000E+00 0.  1.
         11    1    3    3    0    0  0.12452482942E+02 -0.10516574239E+00  0.16185778487E+02  0.20421920006E+02  0.51100000000E-03 0. -1.
        -11    1    3    3    0    0  0.71674124049E+01 -0.56076989894E+01  0.88364165378E+01  0.12684650016E+02  0.51100000000E-03 0.  1.
        -12    1    3    3    0    0 -0.29075815043E+01 -0.34921889380E+01  0.13959710629E+02  0.14680699392E+02  0.00000000000E+00 0.  1.
</event>
<event>
 7    1  0.7596051E-010  0.4778727E+02  0.7816164E-02  0.1312668E+00
        -11   -1    0    0    0    0  0.00000000000E+00  0.00000000000E+00  0.45593999997E+02  0.45594000000E+02  0.51100000000E-03 0.  1.
         11   -1    0    0    0    0 -0.00000000000E+00 -0.00000000000E+00 -0.45593999997E+02  0.45594000000E+02  0.51100000000E-03 0. -1.
    9900012    2    1    2    0    0 -0.23114570627E+02 -0.33964452235E+02 -0.13991277202E+02  0.47787271566E+02  0.20000002376E+02 0.  0.
         12    1    1    2    0    0  0.23114570627E+02  0.33964452235E+02  0.13991277202E+02  0.43400728434E+02  0.00000000000E+00 0. -1.
         11    1    3    3    0    0 -0.17167113656E+02 -0.19114999235E+02 -0.90801766223E+01  0.27249634764E+02  0.51100000000E-03 0. -1.
        -11    1    3    3    0    0 -0.70028417517E+01 -0.25236717938E+01 -0.29748838701E+01  0.80161490894E+01  0.51100000000E-03 0.  1.
         12    1    3    3    0    0  0.10553847804E+01 -0.12325781206E+02 -0.19362167095E+01  0.12521487712E+02  0.00000000000E+00 0. -1.
</event>
<event>
 7    1  0.7596051E-010  0.4778727E+02  0.7816164E-02  0.1312668E+00
        -11   -1    0    0    0    0  0.00000000000E+00  0.00000000000E+00  0.45593999997E+02  0.45594000000E+02  0.51100000000E-03 0. -1.
         11   -1    0    0    0    0 -0.00000000000E+00 -0.00000000000E+00 -0.45593999997E+02  0.45594000000E+02  0.51100000000E-03 0.  1.
    9900012    2    1    2    0    0 -0.22677480656E+02  0.21458587028E+02 -0.30147704436E+02  0.47787272254E+02  0.20000005515E+02 0.  0.
         12    1    1    2    0    0  0.22677480656E+02 -0.21458587028E+02  0.30147704436E+02  0.43400727746E+02  0.00000000000E+00 0. -1.
         11    1    3    3    0    0 -0.46500160154E+01  0.69799693513E+01 -0.18272343919E+01  0.85837874434E+01  0.51100000000E-03 0. -1.
        -11    1    3    3    0    0 -0.88920636400E+01  0.15283442488E+02 -0.21113887066E+02  0.27539946212E+02  0.51100000000E-03 0.  1.
        -12    1    3    3    0    0 -0.91354010009E+01 -0.80482481156E+00 -0.72065829771E+01  0.11663538598E+02  0.00000000000E+00 0.  1.
</event>
<event>
 7    1  0.7596051E-010  0.4778727E+02  0.7816164E-02  0.1312668E+00
        -11   -1    0    0    0    0  0.00000000000E+00  0.00000000000E+00  0.45593999997E+02  0.45594000000E+02  0.51100000000E-03 0. -1.
         11   -1    0    0    0    0 -0.00000000000E+00 -0.00000000000E+00 -0.45593999997E+02  0.45594000000E+02  0.51100000000E-03 0.  1.
    9900012    2    1    2    0    0  0.19100685281E+02  0.10297639439E+02 -0.37586508197E+02  0.47787272417E+02  0.20000006260E+02 0.  0.
         12    1    1    2    0    0 -0.19100685281E+02 -0.10297639439E+02  0.37586508197E+02  0.43400727583E+02  0.00000000000E+00 0. -1.
         11    1    3    3    0    0  0.18854355982E+01  0.66504583085E+00  0.63690147098E+00  0.20982843223E+01  0.51100000000E-03 0. -1.
        -11    1    3    3    0    0  0.17447932283E+01  0.91244757504E+01 -0.17620209362E+02  0.19919140025E+02  0.51100000000E-03 0.  1.
        -12    1    3    3    0    0  0.15470456455E+02  0.50811785742E+00 -0.20603200307E+02  0.25769848070E+02  0.00000000000E+00 0.  1.
</event>
<event>
 7    1  0.7596051E-010  0.4778727E+02  0.7816164E-02  0.1312668E+00
        -11   -1    0    0    0    0  0.00000000000E+00  0.00000000000E+00  0.45593999997E+02  0.45594000000E+02  0.51100000000E-03 0. -1.
         11   -1    0    0    0    0 -0.00000000000E+00 -0.00000000000E+00 -0.45593999997E+02  0.45594000000E+02  0.51100000000E-03 0.  1.
    9900012    2    1    2    0    0  0.17773337200E+01 -0.29621013199E+02 -0.31671126187E+02  0.47787267609E+02  0.19999984338E+02 0.  0.
         12    1    1    2    0    0 -0.17773337200E+01  0.29621013199E+02  0.31671126187E+02  0.43400732391E+02  0.00000000000E+00 0. -1.
         11    1    3    3    0    0  0.34090801520E+01 -0.87584248525E+01 -0.19581653412E+02  0.21720335724E+02  0.51100000000E-03 0. -1.
        -11    1    3    3    0    0  0.40945635476E+01 -0.72896104707E+01 -0.42298505175E+01  0.93699256732E+01  0.51100000000E-03 0.  1.
         12    1    3    3    0    0 -0.57263099797E+01 -0.13572977876E+02 -0.78596222579E+01  0.16697006212E+02  0.00000000000E+00 0. -1.
</event>
<event>
 7    1  0.7596051E-010  0.4778727E+02  0.7816164E-02  0.1312668E+00
        -11   -1    0    0    0    0  0.00000000000E+00  0.00000000000E+00  0.45593999997E+02  0.45594000000E+02  0.51100000000E-03 0. -1.
         11   -1    0    0    0    0 -0.00000000000E+00 -0.00000000000E+00 -0.45593999997E+02  0.45594000000E+02  0.51100000000E-03 0.  1.
    9900012    2    1    2    0    0  0.55458479477E+01 -0.24793096793E+02  0.35187630217E+02  0.47787269611E+02  0.19999993465E+02 0.  0.
        -12    1    1    2    0    0 -0.55458479477E+01  0.24793096793E+02 -0.35187630217E+02  0.43400730389E+02  0.00000000000E+00 0.  1.
         11    1    3    3    0    0  0.31494207382E+01 -0.51294140179E+01  0.70536874279E+01  0.92727690441E+01  0.51100000000E-03 0. -1.
        -11    1    3    3    0    0  0.28451187411E+01 -0.36979879108E+01 -0.14571524649E+01  0.48880577744E+01  0.51100000000E-03 0.  1.
         12    1    3    3    0    0 -0.44869153155E+00 -0.15965694864E+02  0.29591095254E+02  0.33626442793E+02  0.00000000000E+00 0. -1.
</event>
<event>
 7    1  0.7596051E-010  0.4778727E+02  0.7816164E-02  0.1312668E+00
        -11   -1    0    0    0    0  0.00000000000E+00  0.00000000000E+00  0.45593999997E+02  0.45594000000E+02  0.51100000000E-03 0. -1.
         11   -1    0    0    0    0 -0.00000000000E+00 -0.00000000000E+00 -0.45593999997E+02  0.45594000000E+02  0.51100000000E-03 0.  1.
    9900012    2    1    2    0    0  0.99463610814E+01  0.18953122143E+02 -0.37755427429E+02  0.47787271457E+02  0.20000001881E+02 0.  0.
         12    1    1    2    0    0 -0.99463610814E+01 -0.18953122143E+02  0.37755427429E+02  0.43400728543E+02  0.00000000000E+00 0. -1.
         11    1    3    3    0    0  0.82696255237E+01  0.36246222951E+01 -0.20447231001E+02  0.22352043508E+02  0.51100000000E-03 0. -1.
        -11    1    3    3    0    0  0.46067181756E+01  0.24217762151E+01 -0.32947549479E+01  0.61597291185E+01  0.51100000000E-03 0.  1.
         12    1    3    3    0    0 -0.29299826179E+01  0.12906723633E+02 -0.14013441479E+02  0.19275498831E+02  0.00000000000E+00 0. -1.
</event>
<event>
 7    1  0.7596051E-010  0.4778727E+02  0.7816164E-02  0.1312668E+00
        -11   -1    0    0    0    0  0.00000000000E+00  0.00000000000E+00  0.45593999997E+02  0.45594000000E+02  0.51100000000E-03 0. -1.
         11   -1    0    0    0    0 -0.00000000000E+00 -0.00000000000E+00 -0.45593999997E+02  0.45594000000E+02  0.51100000000E-03 0.  1.
    9900012    2    1    2    0    0  0.12223468665E+02  0.17637038564E+02  0.37724590488E+02  0.47787273704E+02  0.20000012127E+02 0.  0.
        -12    1    1    2    0    0 -0.12223468665E+02 -0.17637038564E+02 -0.37724590488E+02  0.43400726296E+02  0.00000000000E+00 0.  1.
         11    1    3    3    0    0  0.42847504757E+01  0.12159449814E+02  0.26320546908E+02  0.29308403167E+02  0.51100000000E-03 0.  1.
        -11    1    3    3    0    0 -0.29487667637E+00  0.36977786024E+01  0.89757587612E+01  0.97120937211E+01  0.51100000000E-03 0. -1.
        -12    1    3    3    0    0  0.82335948661E+01  0.17798101469E+01  0.24282848194E+01  0.87667768160E+01  0.00000000000E+00 0.  1.
</event>
<event>
 7    1  0.7596051E-010  0.4778727E+02  0.7816164E-02  0.1312668E+00
        -11   -1    0    0    0    0  0.00000000000E+00  0.00000000000E+00  0.45593999997E+02  0.45594000000E+02  0.51100000000E-03 0. -1.
         11   -1    0    0    0    0 -0.00000000000E+00 -0.00000000000E+00 -0.45593999997E+02  0.45594000000E+02  0.51100000000E-03 0.  1.
    9900012    2    1    2    0    0  0.86253948551E+01  0.22065666106E+02  0.36363884905E+02  0.47787272097E+02  0.20000004799E+02 0.  0.
        -12    1    1    2    0    0 -0.86253948551E+01 -0.22065666106E+02 -0.36363884905E+02  0.43400727903E+02  0.00000000000E+00 0.  1.
         11    1    3    3    0    0  0.68576088540E+01  0.11183781554E+02  0.20392807453E+02  0.24248100237E+02  0.51100000000E-03 0. -1.
        -11    1    3    3    0    0  0.45458528716E+01 -0.12844173777E+01  0.33573821378E+01  0.57953879431E+01  0.51100000000E-03 0.  1.
        -12    1    3    3    0    0 -0.27780668706E+01  0.12166301930E+02  0.12613695314E+02  0.17743783916E+02  0.00000000000E+00 0.  1.
</event>
<event>
 7    1  0.7596051E-010  0.4778728E+02  0.7816164E-02  0.1312668E+00
        -11   -1    0    0    0    0  0.00000000000E+00  0.00000000000E+00  0.45593999997E+02  0.45594000000E+02  0.51100000000E-03 0. -1.
         11   -1    0    0    0    0 -0.00000000000E+00 -0.00000000000E+00 -0.45593999997E+02  0.45594000000E+02  0.51100000000E-03 0.  1.
    9900012    2    1    2    0    0 -0.41776469941E+02 -0.77592029002E+01  0.88399226215E+01  0.47787275325E+02  0.20000019516E+02 0.  0.
        -12    1    1    2    0    0  0.41776469941E+02  0.77592029002E+01 -0.88399226215E+01  0.43400724675E+02  0.00000000000E+00 0.  1.
         11    1    3    3    0    0 -0.25074373785E+02  0.95671725400E+00  0.16777939617E+01  0.25148648502E+02  0.51100000000E-03 0. -1.
        -11    1    3    3    0    0 -0.73570883504E+00  0.20241869955E+01  0.13316119361E+01  0.25321514750E+01  0.51100000000E-03 0.  1.
         12    1    3    3    0    0 -0.15966387321E+02 -0.10740107150E+02  0.58305167237E+01  0.20106475348E+02  0.00000000000E+00 0. -1.
</event>
<event>
 7    1  0.7596051E-010  0.4778727E+02  0.7816164E-02  0.1312668E+00
        -11   -1    0    0    0    0  0.00000000000E+00  0.00000000000E+00  0.45593999997E+02  0.45594000000E+02  0.51100000000E-03 0. -1.
         11   -1    0    0    0    0 -0.00000000000E+00 -0.00000000000E+00 -0.45593999997E+02  0.45594000000E+02  0.51100000000E-03 0.  1.
    9900012    2    1    2    0    0 -0.55536131120E+01 -0.32471204125E+02 -0.28256002350E+02  0.47787269768E+02  0.19999994179E+02 0.  0.
         12    1    1    2    0    0  0.55536131120E+01  0.32471204125E+02  0.28256002350E+02  0.43400730232E+02  0.00000000000E+00 0. -1.
         11    1    3    3    0    0 -0.17164699706E+01  0.14201043064E+01  0.59215482427E+00  0.23051275449E+01  0.51100000000E-03 0. -1.
        -11    1    3    3    0    0 -0.88489624260E-01 -0.61581030082E+01 -0.99899541324E+01  0.11735810449E+02  0.51100000000E-03 0.  1.
        -12    1    3    3    0    0 -0.37486535171E+01 -0.27733205423E+02 -0.18858203042E+02  0.33746331774E+02  0.00000000000E+00 0.  1.
</event>
<event>
 7    1  0.7596051E-010  0.4778726E+02  0.7816164E-02  0.1312668E+00
        -11   -1    0    0    0    0  0.00000000000E+00  0.00000000000E+00  0.45593999997E+02  0.45594000000E+02  0.51100000000E-03 0. -1.
         11   -1    0    0    0    0 -0.00000000000E+00 -0.00000000000E+00 -0.45593999997E+02  0.45594000000E+02  0.51100000000E-03 0.  1.
    9900012    2    1    2    0    0 -0.71816620215E+01 -0.73483302328E+01  0.42166926917E+02  0.47787263229E+02  0.19999964368E+02 0.  0.
        -12    1    1    2    0    0  0.71816620215E+01  0.73483302328E+01 -0.42166926917E+02  0.43400736771E+02  0.00000000000E+00 0.  1.
         11    1    3    3    0    0 -0.23428387703E+01  0.66567494250E+00  0.22152739558E+01  0.32923328497E+01  0.51100000000E-03 0. -1.
        -11    1    3    3    0    0  0.57979079135E+01  0.29710113035E+00  0.87772648730E+01  0.10523515770E+02  0.51100000000E-03 0.  1.
         12    1    3    3    0    0 -0.10636731165E+02 -0.83111063056E+01  0.31174388088E+02  0.33971414610E+02  0.00000000000E+00 0. -1.
</event>
<event>
 7    1  0.7596051E-010  0.4778727E+02  0.7816164E-02  0.1312668E+00
        -11   -1    0    0    0    0  0.00000000000E+00  0.00000000000E+00  0.45593999997E+02  0.45594000000E+02  0.51100000000E-03 0. -1.
         11   -1    0    0    0    0 -0.00000000000E+00 -0.00000000000E+00 -0.45593999997E+02  0.45594000000E+02  0.51100000000E-03 0.  1.
    9900012    2    1    2    0    0 -0.10586095005E+01  0.10559773244E+02  0.42083175665E+02  0.47787272597E+02  0.20000007079E+02 0.  0.
        -12    1    1    2    0    0  0.10586095005E+01 -0.10559773244E+02 -0.42083175665E+02  0.43400727403E+02  0.00000000000E+00 0.  1.
         11    1    3    3    0    0 -0.38813759056E+01  0.69998352397E+01  0.10205582036E+02  0.12969837210E+02  0.51100000000E-03 0. -1.
        -11    1    3    3    0    0  0.21120706105E+01  0.36653806114E+01  0.15868621892E+01  0.45181842768E+01  0.51100000000E-03 0.  1.
        -12    1    3    3    0    0  0.71069579464E+00 -0.10544260738E+00  0.30290731440E+02  0.30299251110E+02  0.00000000000E+00 0.  1.
</event>
<event>
 7    1  0.7596051E-010  0.4778727E+02  0.7816164E-02  0.1312668E+00
        -11   -1    0    0    0    0  0.00000000000E+00  0.00000000000E+00  0.45593999997E+02  0.45594000000E+02  0.51100000000E-03 0. -1.
         11   -1    0    0    0    0 -0.00000000000E+00 -0.00000000000E+00 -0.45593999997E+02  0.45594000000E+02  0.51100000000E-03 0.  1.
    9900012    2    1    2    0    0  0.38230213367E+01 -0.94908077860E+00  0.43221604181E+02  0.47787270577E+02  0.19999997868E+02 0.  0.
        -12    1    1    2    0    0 -0.38230213367E+01  0.94908077860E+00 -0.43221604181E+02  0.43400729423E+02  0.00000000000E+00 0.  1.
         11    1    3    3    0    0  0.52973999229E+01  0.11483828232E+01  0.17513044053E+02  0.18332701419E+02  0.51100000000E-03 0. -1.
        -11    1    3    3    0    0  0.60225783332E+01 -0.13339036885E+00  0.71920300997E+01  0.93816064715E+01  0.51100000000E-03 0.  1.
         12    1    3    3    0    0 -0.74969569194E+01 -0.19640732330E+01  0.18516530028E+02  0.20072962686E+02  0.00000000000E+00 0. -1.
</event>
<event>
 7    1  0.7596051E-010  0.4778727E+02  0.7816164E-02  0.1312668E+00
        -11   -1    0    0    0    0  0.00000000000E+00  0.00000000000E+00  0.45593999997E+02  0.45594000000E+02  0.51100000000E-03 0. -1.
         11   -1    0    0    0    0 -0.00000000000E+00 -0.00000000000E+00 -0.45593999997E+02  0.45594000000E+02  0.51100000000E-03 0.  1.
    9900012    2    1    2    0    0  0.28384895485E+01  0.35036580614E+02 -0.25455927535E+02  0.47787271312E+02  0.20000001218E+02 0.  0.
         12    1    1    2    0    0 -0.28384895485E+01 -0.35036580614E+02  0.25455927535E+02  0.43400728688E+02  0.00000000000E+00 0. -1.
         11    1    3    3    0    0 -0.12530797724E+01  0.22443763191E+02 -0.10823855008E+02  0.24948918866E+02  0.51100000000E-03 0. -1.
        -11    1    3    3    0    0  0.57341935422E+01  0.10354376449E+02 -0.50610989994E+01  0.12872793425E+02  0.51100000000E-03 0.  1.
         12    1    3    3    0    0 -0.16426242212E+01  0.22384409742E+01 -0.95709735278E+01  0.99655590208E+01  0.00000000000E+00 0. -1.
</event>
<event>
 7    1  0.7596051E-010  0.4778727E+02  0.7816164E-02  0.1312668E+00
        -11   -1    0    0    0    0  0.00000000000E+00  0.00000000000E+00  0.45593999997E+02  0.45594000000E+02  0.51100000000E-03 0. -1.
         11   -1    0    0    0    0 -0.00000000000E+00 -0.00000000000E+00 -0.45593999997E+02  0.45594000000E+02  0.51100000000E-03 0.  1.
    9900012    2    1    2    0    0  0.79921054848E+01  0.64795948661E+00  0.42653597753E+02  0.47787274167E+02  0.20000014236E+02 0.  0.
        -12    1    1    2    0    0 -0.79921054848E+01 -0.64795948661E+00 -0.42653597753E+02  0.43400725833E+02  0.00000000000E+00 0.  1.
         11    1    3    3    0    0 -0.35862498881E+00 -0.12554917786E+01  0.34632688302E+01  0.37012298956E+01  0.51100000000E-03 0. -1.
        -11    1    3    3    0    0 -0.36760933907E+01  0.12848240768E+01  0.96971104429E+00  0.40130755408E+01  0.51100000000E-03 0.  1.
         12    1    3    3    0    0  0.12026823864E+02  0.61862718842E+00  0.38220617878E+02  0.40072968730E+02  0.00000000000E+00 0. -1.
</event>
<event>
 7    1  0.7596051E-010  0.4778727E+02  0.7816164E-02  0.1312668E+00
        -11   -1    0    0    0    0  0.00000000000E+00  0.00000000000E+00  0.45593999997E+02  0.45594000000E+02  0.51100000000E-03 0. -1.
         11   -1    0    0    0    0 -0.00000000000E+00 -0.00000000000E+00 -0.45593999997E+02  0.45594000000E+02  0.51100000000E-03 0.  1.
    9900012    2    1    2    0    0  0.54768859913E+01  0.32058543189E+02 -0.28738068224E+02  0.47787273776E+02  0.20000012454E+02 0.  0.
         12    1    1    2    0    0 -0.54768859913E+01 -0.32058543189E+02  0.28738068224E+02  0.43400726224E+02  0.00000000000E+00 0. -1.
         11    1    3    3    0    0  0.24303236715E-01  0.55402169419E+01 -0.10238052872E+02  0.11640975959E+02  0.51100000000E-03 0.  1.
        -11    1    3    3    0    0 -0.23280093115E+01  0.17025310276E+02 -0.16283776927E+02  0.23673660651E+02  0.51100000000E-03 0. -1.
         12    1    3    3    0    0  0.77805920661E+01  0.94930159706E+01 -0.22162384251E+01  0.12472637166E+02  0.00000000000E+00 0. -1.
</event>
<event>
 7    1  0.7596051E-010  0.4778727E+02  0.7816164E-02  0.1312668E+00
        -11   -1    0    0    0    0  0.00000000000E+00  0.00000000000E+00  0.45593999997E+02  0.45594000000E+02  0.51100000000E-03 0. -1.
         11   -1    0    0    0    0 -0.00000000000E+00 -0.00000000000E+00 -0.45593999997E+02  0.45594000000E+02  0.51100000000E-03 0.  1.
    9900012    2    1    2    0    0 -0.83019817834E+01 -0.39224912061E+02  0.16616455867E+02  0.47787271512E+02  0.20000002133E+02 0.  0.
        -12    1    1    2    0    0  0.83019817834E+01  0.39224912061E+02 -0.16616455867E+02  0.43400728488E+02  0.00000000000E+00 0.  1.
         11    1    3    3    0    0 -0.35255711563E+01 -0.20174363847E+02  0.28843900865E+01  0.20682222198E+02  0.51100000000E-03 0. -1.
        -11    1    3    3    0    0 -0.45493545021E+01 -0.20927566802E+02  0.12045369344E+02  0.24571336991E+02  0.51100000000E-03 0.  1.
        -12    1    3    3    0    0 -0.22705612513E+00  0.18770185889E+01  0.16866964363E+01  0.25337123229E+01  0.00000000000E+00 0.  1.
</event>
<event>
 7    1  0.1103837E-009  0.4778727E+02  0.7816164E-02  0.1312668E+00
        -11   -1    0    0    0    0  0.00000000000E+00  0.00000000000E+00  0.45593999997E+02  0.45594000000E+02  0.51100000000E-03 0. -1.
         11   -1    0    0    0    0 -0.00000000000E+00 -0.00000000000E+00 -0.45593999997E+02  0.45594000000E+02  0.51100000000E-03 0.  1.
    9900012    2    1    2    0    0  0.76424691663E+01  0.21494107879E+02  0.36921798575E+02  0.47787271683E+02  0.20000002910E+02 0.  0.
        -12    1    1    2    0    0 -0.76424691663E+01 -0.21494107879E+02 -0.36921798575E+02  0.43400728317E+02  0.00000000000E+00 0.  1.
         11    1    3    3    0    0 -0.32081778897E+01  0.85666632501E+00  0.49822503097E+01  0.59874118761E+01  0.51100000000E-03 0. -1.
        -11    1    3    3    0    0  0.38091691622E+01  0.91640271773E+00  0.39532796291E+00  0.39377465773E+01  0.51100000000E-03 0.  1.
         12    1    3    3    0    0  0.70414778938E+01  0.19721038836E+02  0.31544220302E+02  0.37862113229E+02  0.00000000000E+00 0. -1.
</event>
<event>
 7    1  0.7596051E-010  0.4778727E+02  0.7816164E-02  0.1312668E+00
        -11   -1    0    0    0    0  0.00000000000E+00  0.00000000000E+00  0.45593999997E+02  0.45594000000E+02  0.51100000000E-03 0. -1.
         11   -1    0    0    0    0 -0.00000000000E+00 -0.00000000000E+00 -0.45593999997E+02  0.45594000000E+02  0.51100000000E-03 0.  1.
    9900012    2    1    2    0    0  0.15674899067E+02 -0.37548976381E+02 -0.15099504858E+02  0.47787272644E+02  0.20000007293E+02 0.  0.
         12    1    1    2    0    0 -0.15674899067E+02  0.37548976381E+02  0.15099504858E+02  0.43400727356E+02  0.00000000000E+00 0. -1.
         11    1    3    3    0    0  0.10756123909E+01 -0.15032699108E+02 -0.12638918855E+02  0.19669297257E+02  0.51100000000E-03 0. -1.
        -11    1    3    3    0    0  0.13636230141E+01 -0.89158940462E+01 -0.11908363966E+01  0.90978418293E+01  0.51100000000E-03 0.  1.
        -12    1    3    3    0    0  0.13235663662E+02 -0.13600383227E+02 -0.12697496068E+01  0.19020133558E+02  0.00000000000E+00 0.  1.
</event>
<event>
 7    1  0.7596051E-010  0.4778727E+02  0.7816164E-02  0.1312668E+00
        -11   -1    0    0    0    0  0.00000000000E+00  0.00000000000E+00  0.45593999997E+02  0.45594000000E+02  0.51100000000E-03 0. -1.
         11   -1    0    0    0    0 -0.00000000000E+00 -0.00000000000E+00 -0.45593999997E+02  0.45594000000E+02  0.51100000000E-03 0.  1.
    9900012    2    1    2    0    0 -0.10384947852E+02 -0.30079436012E+02 -0.29512769525E+02  0.47787272152E+02  0.20000005049E+02 0.  0.
         12    1    1    2    0    0  0.10384947852E+02  0.30079436012E+02  0.29512769525E+02  0.43400727848E+02  0.00000000000E+00 0. -1.
         11    1    3    3    0    0  0.90317280044E+00 -0.58971417445E+01  0.14414388342E+01  0.61375685769E+01  0.51100000000E-03 0. -1.
        -11    1    3    3    0    0 -0.47406905385E+00  0.85526210144E-02  0.38418966145E+00  0.61025943027E+00  0.51100000000E-03 0.  1.
        -12    1    3    3    0    0 -0.10814051598E+02 -0.24190846889E+02 -0.31338398021E+02  0.41039444145E+02  0.00000000000E+00 0.  1.
</event>
<event>
 7    1  0.7596051E-010  0.4778727E+02  0.7816164E-02  0.1312668E+00
        -11   -1    0    0    0    0  0.00000000000E+00  0.00000000000E+00  0.45593999997E+02  0.45594000000E+02  0.51100000000E-03 0. -1.
         11   -1    0    0    0    0 -0.00000000000E+00 -0.00000000000E+00 -0.45593999997E+02  0.45594000000E+02  0.51100000000E-03 0.  1.
    9900012    2    1    2    0    0 -0.76827572182E+01  0.28332032020E+02  0.31967085017E+02  0.47787270497E+02  0.19999997505E+02 0.  0.
        -12    1    1    2    0    0  0.76827572182E+01 -0.28332032020E+02 -0.31967085017E+02  0.43400729503E+02  0.00000000000E+00 0.  1.
         11    1    3    3    0    0 -0.29272858884E+01  0.15059116911E+02  0.21412133404E+02  0.26340566850E+02  0.51100000000E-03 0. -1.
        -11    1    3    3    0    0  0.90777284813E+00  0.95530041654E+01  0.11071494590E+02  0.14651345769E+02  0.51100000000E-03 0.  1.
        -12    1    3    3    0    0 -0.56632441779E+01  0.37199109433E+01 -0.51654297647E+00  0.67953578781E+01  0.00000000000E+00 0.  1.
</event>
<event>
 7    1  0.7596051E-010  0.4778727E+02  0.7816164E-02  0.1312668E+00
        -11   -1    0    0    0    0  0.00000000000E+00  0.00000000000E+00  0.45593999997E+02  0.45594000000E+02  0.51100000000E-03 0. -1.
         11   -1    0    0    0    0 -0.00000000000E+00 -0.00000000000E+00 -0.45593999997E+02  0.45594000000E+02  0.51100000000E-03 0.  1.
    9900012    2    1    2    0    0 -0.10824695282E+02 -0.27343217761E+02  0.31918617048E+02  0.47787266139E+02  0.19999977633E+02 0.  0.
        -12    1    1    2    0    0  0.10824695282E+02  0.27343217761E+02 -0.31918617048E+02  0.43400733861E+02  0.00000000000E+00 0.  1.
         11    1    3    3    0    0 -0.14873118709E+01 -0.14800330917E+02  0.21795694352E+02  0.26387765809E+02  0.51100000000E-03 0. -1.
        -11    1    3    3    0    0 -0.24071069269E+01 -0.22236806819E-01  0.60640368584E+01  0.65243544902E+01  0.51100000000E-03 0.  1.
        -12    1    3    3    0    0 -0.69302764844E+01 -0.12520650037E+02  0.40588858372E+01  0.14875145839E+02  0.00000000000E+00 0.  1.
</event>
<event>
 7    1  0.7596051E-010  0.4778729E+02  0.7816164E-02  0.1312668E+00
        -11   -1    0    0    0    0  0.00000000000E+00  0.00000000000E+00  0.45593999997E+02  0.45594000000E+02  0.51100000000E-03 0. -1.
         11   -1    0    0    0    0 -0.00000000000E+00 -0.00000000000E+00 -0.45593999997E+02  0.45594000000E+02  0.51100000000E-03 0.  1.
    9900012    2    1    2    0    0 -0.12131536246E+02  0.25768483782E+02  0.32748024105E+02  0.47787285595E+02  0.20000066340E+02 0.  0.
        -12    1    1    2    0    0  0.12131536246E+02 -0.25768483782E+02 -0.32748024105E+02  0.43400714405E+02  0.00000000000E+00 0.  1.
         11    1    3    3    0    0 -0.14099663783E+02  0.12715283125E+02  0.17505823467E+02  0.25825042096E+02  0.51100000000E-03 0. -1.
        -11    1    3    3    0    0 -0.75665549731E+00 -0.36084839561E+00 -0.59615999690E+00  0.10286622912E+01  0.51100000000E-03 0.  1.
        -12    1    3    3    0    0  0.27247830344E+01  0.13414049052E+02  0.15838360635E+02  0.20933581208E+02  0.00000000000E+00 0.  1.
</event>
<event>
 7    1  0.7596051E-010  0.4778728E+02  0.7816164E-02  0.1312668E+00
        -11   -1    0    0    0    0  0.00000000000E+00  0.00000000000E+00  0.45593999997E+02  0.45594000000E+02  0.51100000000E-03 0. -1.
         11   -1    0    0    0    0 -0.00000000000E+00 -0.00000000000E+00 -0.45593999997E+02  0.45594000000E+02  0.51100000000E-03 0.  1.
    9900012    2    1    2    0    0 -0.39271058855E+02  0.13736781651E+02  0.12357481751E+02  0.47787278935E+02  0.20000035976E+02 0.  0.
        -12    1    1    2    0    0  0.39271058855E+02 -0.13736781651E+02 -0.12357481751E+02  0.43400721065E+02  0.00000000000E+00 0.  1.
         11    1    3    3    0    0 -0.89187773784E+01 -0.30924081803E+01  0.70171203454E+01  0.11762123808E+02  0.51100000000E-03 0. -1.
        -11    1    3    3    0    0 -0.57396441354E+01 -0.10501631471E+00  0.11905248862E+01  0.58627547274E+01  0.51100000000E-03 0.  1.
        -12    1    3    3    0    0 -0.24612637342E+02  0.16934206146E+02  0.41498365190E+01  0.30162400399E+02  0.00000000000E+00 0.  1.
</event>
<event>
 7    1  0.7596051E-010  0.4778727E+02  0.7816164E-02  0.1312668E+00
        -11   -1    0    0    0    0  0.00000000000E+00  0.00000000000E+00  0.45593999997E+02  0.45594000000E+02  0.51100000000E-03 0. -1.
         11   -1    0    0    0    0 -0.00000000000E+00 -0.00000000000E+00 -0.45593999997E+02  0.45594000000E+02  0.51100000000E-03 0.  1.
    9900012    2    1    2    0    0 -0.23175511039E+02  0.17711046785E+02 -0.32137795234E+02  0.47787269906E+02  0.19999994811E+02 0.  0.
         12    1    1    2    0    0  0.23175511039E+02 -0.17711046785E+02  0.32137795234E+02  0.43400730094E+02  0.00000000000E+00 0. -1.
         11    1    3    3    0    0 -0.11723756968E+01  0.68979632032E+01 -0.66483350804E+00  0.70283970421E+01  0.51100000000E-03 0. -1.
        -11    1    3    3    0    0  0.27407722844E+00 -0.69969667900E+00 -0.15140861301E+01  0.16903108709E+01  0.51100000000E-03 0.  1.
        -12    1    3    3    0    0 -0.22277212571E+02  0.11512780261E+02 -0.29958875596E+02  0.39068561993E+02  0.00000000000E+00 0.  1.
</event>
<event>
 7    1  0.7596051E-010  0.4778727E+02  0.7816164E-02  0.1312668E+00
        -11   -1    0    0    0    0  0.00000000000E+00  0.00000000000E+00  0.45593999997E+02  0.45594000000E+02  0.51100000000E-03 0. -1.
         11   -1    0    0    0    0 -0.00000000000E+00 -0.00000000000E+00 -0.45593999997E+02  0.45594000000E+02  0.51100000000E-03 0.  1.
    9900012    2    1    2    0    0 -0.27629133030E+02 -0.32605276900E+01  0.33311006946E+02  0.47787271705E+02  0.20000003011E+02 0.  0.
        -12    1    1    2    0    0  0.27629133030E+02  0.32605276900E+01 -0.33311006946E+02  0.43400728295E+02  0.00000000000E+00 0.  1.
         11    1    3    3    0    0  0.92179205565E-01  0.16948832808E+01 -0.39784135130E+00  0.17433887528E+01  0.51100000000E-03 0. -1.
        -11    1    3    3    0    0 -0.13072105365E+01 -0.59466106993E+00 -0.13236746858E+01  0.19530837437E+01  0.51100000000E-03 0.  1.
        -12    1    3    3    0    0 -0.26414101700E+02 -0.43607499008E+01  0.35032522983E+02  0.44090799208E+02  0.00000000000E+00 0.  1.
</event>
<event>
 7    1  0.7596051E-010  0.4778728E+02  0.7816164E-02  0.1312668E+00
        -11   -1    0    0    0    0  0.00000000000E+00  0.00000000000E+00  0.45593999997E+02  0.45594000000E+02  0.51100000000E-03 0. -1.
         11   -1    0    0    0    0 -0.00000000000E+00 -0.00000000000E+00 -0.45593999997E+02  0.45594000000E+02  0.51100000000E-03 0.  1.
    9900012    2    1    2    0    0  0.24644046109E+02  0.30575462975E+02  0.18477956470E+02  0.47787276273E+02  0.20000023839E+02 0.  0.
        -12    1    1    2    0    0 -0.24644046109E+02 -0.30575462975E+02 -0.18477956470E+02  0.43400723727E+02  0.00000000000E+00 0.  1.
         11    1    3    3    0    0  0.13603778025E+02  0.18285034561E+02  0.11623760103E+02  0.25583531122E+02  0.51100000000E-03 0. -1.
        -11    1    3    3    0    0  0.38251871355E-01  0.97994732819E+01  0.25118725446E+01  0.10116355260E+02  0.51100000000E-03 0.  1.
        -12    1    3    3    0    0  0.11002016212E+02  0.24909551319E+01  0.43423238216E+01  0.12087389891E+02  0.00000000000E+00 0.  1.
</event>
<event>
 7    1  0.7596051E-010  0.4778727E+02  0.7816164E-02  0.1312668E+00
        -11   -1    0    0    0    0  0.00000000000E+00  0.00000000000E+00  0.45593999997E+02  0.45594000000E+02  0.51100000000E-03 0. -1.
         11   -1    0    0    0    0 -0.00000000000E+00 -0.00000000000E+00 -0.45593999997E+02  0.45594000000E+02  0.51100000000E-03 0.  1.
    9900012    2    1    2    0    0  0.55877656927E+01  0.31696363142E+02 -0.29115983088E+02  0.47787273819E+02  0.20000012650E+02 0.  0.
         12    1    1    2    0    0 -0.55877656927E+01 -0.31696363142E+02  0.29115983088E+02  0.43400726181E+02  0.00000000000E+00 0. -1.
         11    1    3    3    0    0  0.10178678902E+02  0.12810716068E+02 -0.94488273328E+01  0.18894451265E+02  0.51100000000E-03 0. -1.
        -11    1    3    3    0    0 -0.86509236770E-03  0.11466696613E+02 -0.67510875944E+01  0.13306476466E+02  0.51100000000E-03 0.  1.
        -12    1    3    3    0    0 -0.45900481169E+01  0.74189504612E+01 -0.12916068161E+02  0.15586346088E+02  0.00000000000E+00 0.  1.
</event>
<event>
 7    1  0.7596051E-010  0.4778727E+02  0.7816164E-02  0.1312668E+00
        -11   -1    0    0    0    0  0.00000000000E+00  0.00000000000E+00  0.45593999997E+02  0.45594000000E+02  0.51100000000E-03 0. -1.
         11   -1    0    0    0    0 -0.00000000000E+00 -0.00000000000E+00 -0.45593999997E+02  0.45594000000E+02  0.51100000000E-03 0.  1.
    9900012    2    1    2    0    0  0.35423439894E+02 -0.24574170074E+02 -0.49913500703E+01  0.47787268390E+02  0.19999987900E+02 0.  0.
        -12    1    1    2    0    0 -0.35423439894E+02  0.24574170074E+02  0.49913500703E+01  0.43400731610E+02  0.00000000000E+00 0.  1.
         11    1    3    3    0    0  0.97327290797E+01 -0.73010944576E+01 -0.57747573417E+01  0.13467732483E+02  0.51100000000E-03 0. -1.
        -11    1    3    3    0    0  0.20245544572E+02 -0.50436623373E+01  0.14618032679E+01  0.20915484070E+02  0.51100000000E-03 0.  1.
        -12    1    3    3    0    0  0.54451662414E+01 -0.12229413279E+02 -0.67839599652E+00  0.13404051838E+02  0.00000000000E+00 0.  1.
</event>
<event>
 7    1  0.7596051E-010  0.4778727E+02  0.7816164E-02  0.1312668E+00
        -11   -1    0    0    0    0  0.00000000000E+00  0.00000000000E+00  0.45593999997E+02  0.45594000000E+02  0.51100000000E-03 0. -1.
         11   -1    0    0    0    0 -0.00000000000E+00 -0.00000000000E+00 -0.45593999997E+02  0.45594000000E+02  0.51100000000E-03 0.  1.
    9900012    2    1    2    0    0  0.70655345933E+01  0.29386040480E+02  0.31147427773E+02  0.47787269464E+02  0.19999992795E+02 0.  0.
        -12    1    1    2    0    0 -0.70655345933E+01 -0.29386040480E+02 -0.31147427773E+02  0.43400730536E+02  0.00000000000E+00 0.  1.
         11    1    3    3    0    0  0.66372108558E+01  0.60103618606E+01  0.78748105820E+01  0.11924330573E+02  0.51100000000E-03 0. -1.
        -11    1    3    3    0    0  0.19945601971E+01  0.10156077917E+02  0.19417810753E+02  0.22003989723E+02  0.51100000000E-03 0.  1.
        -12    1    3    3    0    0 -0.15662364597E+01  0.13219600703E+02  0.38548064379E+01  0.13858949169E+02  0.00000000000E+00 0.  1.
</event>
<event>
 7    1  0.7596051E-010  0.4778721E+02  0.7816164E-02  0.1312668E+00
        -11   -1    0    0    0    0  0.00000000000E+00  0.00000000000E+00  0.45593999997E+02  0.45594000000E+02  0.51100000000E-03 0. -1.
         11   -1    0    0    0    0 -0.00000000000E+00 -0.00000000000E+00 -0.45593999997E+02  0.45594000000E+02  0.51100000000E-03 0.  1.
    9900012    2    1    2    0    0  0.30030830960E+02  0.70405555604E+01  0.30532087340E+02  0.47787209822E+02  0.19999720859E+02 0.  0.
        -12    1    1    2    0    0 -0.30030830960E+02 -0.70405555604E+01 -0.30532087340E+02  0.43400790178E+02  0.00000000000E+00 0.  1.
         11    1    3    3    0    0  0.10505141593E-01  0.18492174057E+01  0.35422933411E+00  0.18828685705E+01  0.51100000000E-03 0. -1.
        -11    1    3    3    0    0 -0.18647318355E+01 -0.72544548757E+00  0.29266043677E+01  0.35452093534E+01  0.51100000000E-03 0.  1.
         12    1    3    3    0    0  0.31885057654E+02  0.59167836423E+01  0.27251253638E+02  0.42359131898E+02  0.00000000000E+00 0. -1.
</event>
<event>
 7    1  0.7596051E-010  0.4778728E+02  0.7816164E-02  0.1312668E+00
        -11   -1    0    0    0    0  0.00000000000E+00  0.00000000000E+00  0.45593999997E+02  0.45594000000E+02  0.51100000000E-03 0. -1.
         11   -1    0    0    0    0 -0.00000000000E+00 -0.00000000000E+00 -0.45593999997E+02  0.45594000000E+02  0.51100000000E-03 0.  1.
    9900012    2    1    2    0    0  0.60586847219E+01 -0.38193012314E+02 -0.19703019276E+02  0.47787276287E+02  0.20000023904E+02 0.  0.
         12    1    1    2    0    0 -0.60586847219E+01  0.38193012314E+02  0.19703019276E+02  0.43400723713E+02  0.00000000000E+00 0. -1.
         11    1    3    3    0    0  0.11181329002E+01 -0.20944606325E+02 -0.71312358077E+01  0.22153583901E+02  0.51100000000E-03 0. -1.
        -11    1    3    3    0    0  0.34797011234E-01 -0.13516050822E+02 -0.13834962697E+02  0.19341433084E+02  0.51100000000E-03 0.  1.
         12    1    3    3    0    0  0.49057548105E+01 -0.37323551676E+01  0.12631792286E+01  0.62922593018E+01  0.00000000000E+00 0. -1.
</event>
<event>
 7    1  0.7596051E-010  0.4778727E+02  0.7816164E-02  0.1312668E+00
        -11   -1    0    0    0    0  0.00000000000E+00  0.00000000000E+00  0.45593999997E+02  0.45594000000E+02  0.51100000000E-03 0.  1.
         11   -1    0    0    0    0 -0.00000000000E+00 -0.00000000000E+00 -0.45593999997E+02  0.45594000000E+02  0.51100000000E-03 0. -1.
    9900012    2    1    2    0    0 -0.21810634654E+02 -0.33411383658E+02 -0.17076265976E+02  0.47787271877E+02  0.20000003794E+02 0.  0.
         12    1    1    2    0    0  0.21810634654E+02  0.33411383658E+02  0.17076265976E+02  0.43400728123E+02  0.00000000000E+00 0. -1.
         11    1    3    3    0    0 -0.19818576150E+01 -0.36782460275E+01 -0.45706468729E+01  0.61925815733E+01  0.51100000000E-03 0.  1.
        -11    1    3    3    0    0 -0.22824378235E+02 -0.28238769868E+02 -0.11149394875E+02  0.37982750977E+02  0.51100000000E-03 0. -1.
         12    1    3    3    0    0  0.29956011960E+01 -0.14943677627E+01 -0.13562242287E+01  0.36119393259E+01  0.00000000000E+00 0. -1.
</event>
<event>
 7    1  0.7596051E-010  0.4778727E+02  0.7816164E-02  0.1312668E+00
        -11   -1    0    0    0    0  0.00000000000E+00  0.00000000000E+00  0.45593999997E+02  0.45594000000E+02  0.51100000000E-03 0. -1.
         11   -1    0    0    0    0 -0.00000000000E+00 -0.00000000000E+00 -0.45593999997E+02  0.45594000000E+02  0.51100000000E-03 0.  1.
    9900012    2    1    2    0    0 -0.12923557782E+02  0.20988613718E+02  0.35722300267E+02  0.47787274338E+02  0.20000015019E+02 0.  0.
        -12    1    1    2    0    0  0.12923557782E+02 -0.20988613718E+02 -0.35722300267E+02  0.43400725662E+02  0.00000000000E+00 0.  1.
         11    1    3    3    0    0 -0.52207890370E+00 -0.13214541082E+01  0.39296491255E+01  0.41786301406E+01  0.51100000000E-03 0. -1.
        -11    1    3    3    0    0 -0.35813191355E+01  0.74926544063E+01  0.10642120358E+01  0.83724706223E+01  0.51100000000E-03 0.  1.
         12    1    3    3    0    0 -0.88201597428E+01  0.14817413420E+02  0.30728439106E+02  0.35236173576E+02  0.00000000000E+00 0. -1.
</event>
<event>
 7    1  0.7596051E-010  0.4778727E+02  0.7816164E-02  0.1312668E+00
        -11   -1    0    0    0    0  0.00000000000E+00  0.00000000000E+00  0.45593999997E+02  0.45594000000E+02  0.51100000000E-03 0. -1.
         11   -1    0    0    0    0 -0.00000000000E+00 -0.00000000000E+00 -0.45593999997E+02  0.45594000000E+02  0.51100000000E-03 0.  1.
    9900012    2    1    2    0    0  0.36587549376E+02  0.62178453904E+01 -0.22501398381E+02  0.47787270746E+02  0.19999998639E+02 0.  0.
         12    1    1    2    0    0 -0.36587549376E+02 -0.62178453904E+01  0.22501398381E+02  0.43400729254E+02  0.00000000000E+00 0. -1.
         11    1    3    3    0    0 -0.17961541736E+01 -0.68224804152E+00 -0.16105178817E+01  0.25070700656E+01  0.51100000000E-03 0. -1.
        -11    1    3    3    0    0  0.85652171301E+01  0.57755704132E+01 -0.56045038580E+01  0.11752898444E+02  0.51100000000E-03 0.  1.
        -12    1    3    3    0    0  0.29818486420E+02  0.11245230187E+01 -0.15286376642E+02  0.33527302236E+02  0.00000000000E+00 0.  1.
</event>
<event>
 7    1  0.7596051E-010  0.4778727E+02  0.7816164E-02  0.1312668E+00
        -11   -1    0    0    0    0  0.00000000000E+00  0.00000000000E+00  0.45593999997E+02  0.45594000000E+02  0.51100000000E-03 0. -1.
         11   -1    0    0    0    0 -0.00000000000E+00 -0.00000000000E+00 -0.45593999997E+02  0.45594000000E+02  0.51100000000E-03 0.  1.
    9900012    2    1    2    0    0  0.14756195045E+02  0.36261377647E+02  0.18734732325E+02  0.47787274242E+02  0.20000014577E+02 0.  0.
        -12    1    1    2    0    0 -0.14756195045E+02 -0.36261377647E+02 -0.18734732325E+02  0.43400725758E+02  0.00000000000E+00 0.  1.
         11    1    3    3    0    0  0.16312155399E+01  0.20056778276E+02  0.90830054601E+01  0.22077957501E+02  0.51100000000E-03 0. -1.
        -11    1    3    3    0    0  0.38033242822E+01  0.76496895441E+01 -0.17006103719E+01  0.87106315279E+01  0.51100000000E-03 0.  1.
        -12    1    3    3    0    0  0.93216552228E+01  0.85549098274E+01  0.11352337236E+02  0.16998685213E+02  0.00000000000E+00 0.  1.
</event>
<event>
 7    1  0.7596051E-010  0.4778727E+02  0.7816164E-02  0.1312668E+00
        -11   -1    0    0    0    0  0.00000000000E+00  0.00000000000E+00  0.45593999997E+02  0.45594000000E+02  0.51100000000E-03 0. -1.
         11   -1    0    0    0    0 -0.00000000000E+00 -0.00000000000E+00 -0.45593999997E+02  0.45594000000E+02  0.51100000000E-03 0.  1.
    9900012    2    1    2    0    0  0.21634993545E+02  0.31324171163E+02  0.20840976477E+02  0.47787274830E+02  0.20000017261E+02 0.  0.
        -12    1    1    2    0    0 -0.21634993545E+02 -0.31324171163E+02 -0.20840976477E+02  0.43400725170E+02  0.00000000000E+00 0.  1.
         11    1    3    3    0    0  0.80022618098E+00  0.77936430504E+01  0.49022412480E+01  0.92419263930E+01  0.51100000000E-03 0. -1.
        -11    1    3    3    0    0  0.14102832327E+01  0.11225035247E+02  0.15467741260E+01  0.11418529921E+02  0.51100000000E-03 0.  1.
        -12    1    3    3    0    0  0.19424484131E+02  0.12305492866E+02  0.14391961103E+02  0.27126818516E+02  0.00000000000E+00 0.  1.
</event>
<event>
 7    1  0.7596051E-010  0.4778727E+02  0.7816164E-02  0.1312668E+00
        -11   -1    0    0    0    0  0.00000000000E+00  0.00000000000E+00  0.45593999997E+02  0.45594000000E+02  0.51100000000E-03 0. -1.
         11   -1    0    0    0    0 -0.00000000000E+00 -0.00000000000E+00 -0.45593999997E+02  0.45594000000E+02  0.51100000000E-03 0.  1.
    9900012    2    1    2    0    0 -0.17953264997E+02 -0.18262010847E+02 -0.35040012995E+02  0.47787271032E+02  0.19999999944E+02 0.  0.
         12    1    1    2    0    0  0.17953264997E+02  0.18262010847E+02  0.35040012995E+02  0.43400728968E+02  0.00000000000E+00 0. -1.
         11    1    3    3    0    0 -0.34436173280E+01  0.31888894153E+00 -0.83404875983E+00  0.35575030644E+01  0.51100000000E-03 0. -1.
        -11    1    3    3    0    0 -0.97654808088E+01 -0.61544289056E+01 -0.26385167931E+02  0.28799630164E+02  0.51100000000E-03 0.  1.
        -12    1    3    3    0    0 -0.47441668603E+01 -0.12426470883E+02 -0.78207963047E+01  0.15430137804E+02  0.00000000000E+00 0.  1.
</event>
<event>
 7    1  0.7596051E-010  0.4778729E+02  0.7816164E-02  0.1312668E+00
        -11   -1    0    0    0    0  0.00000000000E+00  0.00000000000E+00  0.45593999997E+02  0.45594000000E+02  0.51100000000E-03 0. -1.
         11   -1    0    0    0    0 -0.00000000000E+00 -0.00000000000E+00 -0.45593999997E+02  0.45594000000E+02  0.51100000000E-03 0.  1.
    9900012    2    1    2    0    0 -0.22915825849E+01 -0.54826815349E+01  0.42991985058E+02  0.47787286564E+02  0.20000070758E+02 0.  0.
        -12    1    1    2    0    0  0.22915825849E+01  0.54826815349E+01 -0.42991985058E+02  0.43400713436E+02  0.00000000000E+00 0.  1.
         11    1    3    3    0    0  0.55431259694E+00 -0.25366342003E+01  0.10483729803E+02  0.10800479913E+02  0.51100000000E-03 0. -1.
        -11    1    3    3    0    0 -0.48005958472E+01 -0.17314113117E+01  0.76507656990E+00  0.51603147227E+01  0.51100000000E-03 0.  1.
        -12    1    3    3    0    0  0.19547006654E+01 -0.12146360230E+01  0.31743178685E+02  0.31826491928E+02  0.00000000000E+00 0.  1.
</event>
<event>
 7    1  0.7596051E-010  0.4778727E+02  0.7816164E-02  0.1312668E+00
        -11   -1    0    0    0    0  0.00000000000E+00  0.00000000000E+00  0.45593999997E+02  0.45594000000E+02  0.51100000000E-03 0.  1.
         11   -1    0    0    0    0 -0.00000000000E+00 -0.00000000000E+00 -0.45593999997E+02  0.45594000000E+02  0.51100000000E-03 0. -1.
    9900012    2    1    2    0    0  0.33972499288E+01 -0.23244125430E+02  0.36493733933E+02  0.47787270853E+02  0.19999999129E+02 0.  0.
        -12    1    1    2    0    0 -0.33972499288E+01  0.23244125430E+02 -0.36493733933E+02  0.43400729147E+02  0.00000000000E+00 0.  1.
         11    1    3    3    0    0 -0.45208301404E+01 -0.82193929831E+01  0.12004841788E+02  0.15235240490E+02  0.51100000000E-03 0. -1.
        -11    1    3    3    0    0 -0.23006499377E+01 -0.37662467869E+01  0.92597624587E+00  0.45094386862E+01  0.51100000000E-03 0.  1.
         12    1    3    3    0    0  0.10218730007E+02 -0.11258485660E+02  0.23562915899E+02  0.28042591677E+02  0.00000000000E+00 0. -1.
</event>
<event>
 7    1  0.7596051E-010  0.4778728E+02  0.7816164E-02  0.1312668E+00
        -11   -1    0    0    0    0  0.00000000000E+00  0.00000000000E+00  0.45593999997E+02  0.45594000000E+02  0.51100000000E-03 0. -1.
         11   -1    0    0    0    0 -0.00000000000E+00 -0.00000000000E+00 -0.45593999997E+02  0.45594000000E+02  0.51100000000E-03 0.  1.
    9900012    2    1    2    0    0  0.15636702542E+02  0.28129847860E+02 -0.29117480368E+02  0.47787280306E+02  0.20000042227E+02 0.  0.
         12    1    1    2    0    0 -0.15636702542E+02 -0.28129847860E+02  0.29117480368E+02  0.43400719694E+02  0.00000000000E+00 0. -1.
         11    1    3    3    0    0  0.83573907688E+01  0.16146280727E+01 -0.68156311984E+01  0.10904395131E+02  0.51100000000E-03 0. -1.
        -11    1    3    3    0    0  0.64826323146E+01  0.12462120547E+02 -0.58113508285E+01  0.15201998848E+02  0.51100000000E-03 0.  1.
        -12    1    3    3    0    0  0.79667945867E+00  0.14053099240E+02 -0.16490498341E+02  0.21680886327E+02  0.00000000000E+00 0.  1.
</event>
<event>
 7    1  0.7596051E-010  0.4778727E+02  0.7816164E-02  0.1312668E+00
        -11   -1    0    0    0    0  0.00000000000E+00  0.00000000000E+00  0.45593999997E+02  0.45594000000E+02  0.51100000000E-03 0.  1.
         11   -1    0    0    0    0 -0.00000000000E+00 -0.00000000000E+00 -0.45593999997E+02  0.45594000000E+02  0.51100000000E-03 0. -1.
    9900012    2    1    2    0    0 -0.13940869165E+02 -0.41003263574E+02 -0.28298579254E+01  0.47787267832E+02  0.19999985355E+02 0.  0.
        -12    1    1    2    0    0  0.13940869165E+02  0.41003263574E+02  0.28298579254E+01  0.43400732168E+02  0.00000000000E+00 0.  1.
         11    1    3    3    0    0 -0.12924437150E+02 -0.15268890562E+02 -0.16920875126E+01  0.20075937215E+02  0.51100000000E-03 0.  1.
        -11    1    3    3    0    0  0.15983516306E+01 -0.13689570104E+01 -0.23769634718E+01  0.31747010629E+01  0.51100000000E-03 0. -1.
         12    1    3    3    0    0 -0.26147836451E+01 -0.24365416002E+02  0.12391930590E+01  0.24536629554E+02  0.00000000000E+00 0. -1.
</event>
<event>
 7    1  0.7596051E-010  0.4778727E+02  0.7816164E-02  0.1312668E+00
        -11   -1    0    0    0    0  0.00000000000E+00  0.00000000000E+00  0.45593999997E+02  0.45594000000E+02  0.51100000000E-03 0.  1.
         11   -1    0    0    0    0 -0.00000000000E+00 -0.00000000000E+00 -0.45593999997E+02  0.45594000000E+02  0.51100000000E-03 0. -1.
    9900012    2    1    2    0    0 -0.40510156671E+02  0.12848567136E+02  0.88014107630E+01  0.47787270716E+02  0.19999998504E+02 0.  0.
        -12    1    1    2    0    0  0.40510156671E+02 -0.12848567136E+02 -0.88014107630E+01  0.43400729284E+02  0.00000000000E+00 0.  1.
         11    1    3    3    0    0 -0.12208599875E+02  0.53535334033E+01  0.72849484873E+01  0.15191468182E+02  0.51100000000E-03 0. -1.
        -11    1    3    3    0    0 -0.10313343055E+02  0.91173810369E+01  0.40706780173E+01  0.14354863347E+02  0.51100000000E-03 0.  1.
         12    1    3    3    0    0 -0.17988213741E+02 -0.16223473040E+01 -0.25542157416E+01  0.18240939187E+02  0.00000000000E+00 0. -1.
</event>
<event>
 7    1  0.7596051E-010  0.4778727E+02  0.7816164E-02  0.1312668E+00
        -11   -1    0    0    0    0  0.00000000000E+00  0.00000000000E+00  0.45593999997E+02  0.45594000000E+02  0.51100000000E-03 0. -1.
         11   -1    0    0    0    0 -0.00000000000E+00 -0.00000000000E+00 -0.45593999997E+02  0.45594000000E+02  0.51100000000E-03 0.  1.
    9900012    2    1    2    0    0 -0.10076228499E+02  0.33589807391E+02 -0.25569867649E+02  0.47787266447E+02  0.19999979041E+02 0.  0.
         12    1    1    2    0    0  0.10076228499E+02 -0.33589807391E+02  0.25569867649E+02  0.43400733553E+02  0.00000000000E+00 0. -1.
         11    1    3    3    0    0 -0.40066816996E+01  0.15890776749E+01 -0.34890965609E+01  0.55454901651E+01  0.51100000000E-03 0. -1.
        -11    1    3    3    0    0 -0.15924757249E+00  0.13684662765E+02 -0.17924986324E+02  0.22552172617E+02  0.51100000000E-03 0.  1.
         12    1    3    3    0    0 -0.59102992271E+01  0.18316066950E+02 -0.41557847644E+01  0.19689603665E+02  0.00000000000E+00 0. -1.
</event>
<event>
 7    1  0.7596051E-010  0.4778727E+02  0.7816164E-02  0.1312668E+00
        -11   -1    0    0    0    0  0.00000000000E+00  0.00000000000E+00  0.45593999997E+02  0.45594000000E+02  0.51100000000E-03 0. -1.
         11   -1    0    0    0    0 -0.00000000000E+00 -0.00000000000E+00 -0.45593999997E+02  0.45594000000E+02  0.51100000000E-03 0.  1.
    9900012    2    1    2    0    0  0.27448623491E+01  0.18976285163E+02 -0.38935713891E+02  0.47787268623E+02  0.19999988959E+02 0.  0.
         12    1    1    2    0    0 -0.27448623491E+01 -0.18976285163E+02  0.38935713891E+02  0.43400731377E+02  0.00000000000E+00 0. -1.
         11    1    3    3    0    0 -0.42065970710E+00  0.86966922301E+00 -0.21536477809E+01  0.23603978843E+01  0.51100000000E-03 0. -1.
        -11    1    3    3    0    0 -0.15737331025E+01  0.93838814770E+01 -0.26450359453E+01  0.98757320167E+01  0.51100000000E-03 0.  1.
        -12    1    3    3    0    0  0.47392551587E+01  0.87227344632E+01 -0.34137030164E+02  0.35551138722E+02  0.00000000000E+00 0.  1.
</event>
<event>
 7    1  0.7596051E-010  0.4778727E+02  0.7816164E-02  0.1312668E+00
        -11   -1    0    0    0    0  0.00000000000E+00  0.00000000000E+00  0.45593999997E+02  0.45594000000E+02  0.51100000000E-03 0. -1.
         11   -1    0    0    0    0 -0.00000000000E+00 -0.00000000000E+00 -0.45593999997E+02  0.45594000000E+02  0.51100000000E-03 0.  1.
    9900012    2    1    2    0    0 -0.27431765878E+02 -0.43060645121E+01  0.33355345367E+02  0.47787273792E+02  0.20000012529E+02 0.  0.
        -12    1    1    2    0    0  0.27431765878E+02  0.43060645121E+01 -0.33355345367E+02  0.43400726208E+02  0.00000000000E+00 0.  1.
         11    1    3    3    0    0 -0.14010565249E+02  0.90969643419E+00  0.13252985720E+02  0.19307126067E+02  0.51100000000E-03 0. -1.
        -11    1    3    3    0    0 -0.59253187260E+01  0.25173814525E+01  0.15470352513E+02  0.16756444089E+02  0.51100000000E-03 0.  1.
         12    1    3    3    0    0 -0.74958819030E+01 -0.77331423989E+01  0.46320071345E+01  0.11723703637E+02  0.00000000000E+00 0. -1.
</event>
<event>
 7    1  0.7596051E-010  0.4778727E+02  0.7816164E-02  0.1312668E+00
        -11   -1    0    0    0    0  0.00000000000E+00  0.00000000000E+00  0.45593999997E+02  0.45594000000E+02  0.51100000000E-03 0. -1.
         11   -1    0    0    0    0 -0.00000000000E+00 -0.00000000000E+00 -0.45593999997E+02  0.45594000000E+02  0.51100000000E-03 0.  1.
    9900012    2    1    2    0    0 -0.33178801285E+02 -0.74641376018E+01 -0.26964365262E+02  0.47787271909E+02  0.20000003943E+02 0.  0.
         12    1    1    2    0    0  0.33178801285E+02  0.74641376018E+01  0.26964365262E+02  0.43400728091E+02  0.00000000000E+00 0. -1.
         11    1    3    3    0    0 -0.67840961563E+01 -0.66307015245E+01 -0.15984121390E+01  0.96200356024E+01  0.51100000000E-03 0.  1.
        -11    1    3    3    0    0 -0.66309909718E+01  0.34728979417E+01 -0.31467815279E+01  0.81199319964E+01  0.51100000000E-03 0. -1.
        -12    1    3    3    0    0 -0.19763714157E+02 -0.43063340190E+01 -0.22219171595E+02  0.30047304310E+02  0.00000000000E+00 0.  1.
</event>
<event>
 7    1  0.7596051E-010  0.4778727E+02  0.7816164E-02  0.1312668E+00
        -11   -1    0    0    0    0  0.00000000000E+00  0.00000000000E+00  0.45593999997E+02  0.45594000000E+02  0.51100000000E-03 0. -1.
         11   -1    0    0    0    0 -0.00000000000E+00 -0.00000000000E+00 -0.45593999997E+02  0.45594000000E+02  0.51100000000E-03 0.  1.
    9900012    2    1    2    0    0  0.27782645547E+02 -0.14266901581E+02 -0.30136412858E+02  0.47787271270E+02  0.20000001028E+02 0.  0.
         12    1    1    2    0    0 -0.27782645547E+02  0.14266901581E+02  0.30136412858E+02  0.43400728730E+02  0.00000000000E+00 0. -1.
         11    1    3    3    0    0  0.15514096918E+02 -0.37178911130E+01 -0.10778794885E+02  0.19253372092E+02  0.51100000000E-03 0. -1.
        -11    1    3    3    0    0  0.13049449723E+02 -0.12982679203E+02 -0.16991577449E+02  0.25050984049E+02  0.51100000000E-03 0.  1.
         12    1    3    3    0    0 -0.78090109308E+00  0.24336687351E+01 -0.23660405247E+01  0.34829151287E+01  0.00000000000E+00 0. -1.
</event>
<event>
 7    1  0.7596051E-010  0.4778727E+02  0.7816164E-02  0.1312668E+00
        -11   -1    0    0    0    0  0.00000000000E+00  0.00000000000E+00  0.45593999997E+02  0.45594000000E+02  0.51100000000E-03 0. -1.
         11   -1    0    0    0    0 -0.00000000000E+00 -0.00000000000E+00 -0.45593999997E+02  0.45594000000E+02  0.51100000000E-03 0.  1.
    9900012    2    1    2    0    0  0.69319485484E+01  0.18069259054E+01 -0.42805446515E+02  0.47787272549E+02  0.20000006862E+02 0.  0.
         12    1    1    2    0    0 -0.69319485484E+01 -0.18069259054E+01  0.42805446515E+02  0.43400727451E+02  0.00000000000E+00 0. -1.
         11    1    3    3    0    0  0.84898988790E+01  0.18787625219E+01 -0.20300360209E+02  0.22084219626E+02  0.51100000000E-03 0. -1.
        -11    1    3    3    0    0  0.31534825149E+01  0.41383778958E+01 -0.15085875364E+02  0.15957890191E+02  0.51100000000E-03 0.  1.
         12    1    3    3    0    0 -0.47114328454E+01 -0.42102145124E+01 -0.74192109419E+01  0.97451627332E+01  0.00000000000E+00 0. -1.
</event>
<event>
 7    1  0.7596051E-010  0.4778728E+02  0.7816164E-02  0.1312668E+00
        -11   -1    0    0    0    0  0.00000000000E+00  0.00000000000E+00  0.45593999997E+02  0.45594000000E+02  0.51100000000E-03 0. -1.
         11   -1    0    0    0    0 -0.00000000000E+00 -0.00000000000E+00 -0.45593999997E+02  0.45594000000E+02  0.51100000000E-03 0.  1.
    9900012    2    1    2    0    0 -0.13917932677E+02  0.88881953266E+01 -0.40136191047E+02  0.47787277680E+02  0.20000030252E+02 0.  0.
         12    1    1    2    0    0  0.13917932677E+02 -0.88881953266E+01  0.40136191047E+02  0.43400722320E+02  0.00000000000E+00 0. -1.
         11    1    3    3    0    0 -0.41021878317E+01 -0.36859298840E+00 -0.44380650784E+01  0.60547690046E+01  0.51100000000E-03 0. -1.
        -11    1    3    3    0    0 -0.12207691735E+02  0.15944654107E+00 -0.20317093828E+02  0.23703110821E+02  0.51100000000E-03 0.  1.
        -12    1    3    3    0    0  0.23919468899E+01  0.90973417740E+01 -0.15381032141E+02  0.18029397854E+02  0.00000000000E+00 0.  1.
</event>
<event>
 7    1  0.7596051E-010  0.4778727E+02  0.7816164E-02  0.1312668E+00
        -11   -1    0    0    0    0  0.00000000000E+00  0.00000000000E+00  0.45593999997E+02  0.45594000000E+02  0.51100000000E-03 0. -1.
         11   -1    0    0    0    0 -0.00000000000E+00 -0.00000000000E+00 -0.45593999997E+02  0.45594000000E+02  0.51100000000E-03 0.  1.
    9900012    2    1    2    0    0 -0.13731809518E+02 -0.36528253913E+02 -0.18993349703E+02  0.47787271210E+02  0.20000000755E+02 0.  0.
         12    1    1    2    0    0  0.13731809518E+02  0.36528253913E+02  0.18993349703E+02  0.43400728790E+02  0.00000000000E+00 0. -1.
         11    1    3    3    0    0  0.46410977864E+01 -0.58237535852E+01 -0.59996679942E+01  0.95630492410E+01  0.51100000000E-03 0. -1.
        -11    1    3    3    0    0 -0.31916146306E+01 -0.60497318080E+01 -0.11239444580E+01  0.69317321287E+01  0.51100000000E-03 0.  1.
         12    1    3    3    0    0 -0.15181292674E+02 -0.24654768520E+02 -0.11869737251E+02  0.31292489840E+02  0.00000000000E+00 0. -1.
</event>
<event>
 7    1  0.7596051E-010  0.4778727E+02  0.7816164E-02  0.1312668E+00
        -11   -1    0    0    0    0  0.00000000000E+00  0.00000000000E+00  0.45593999997E+02  0.45594000000E+02  0.51100000000E-03 0. -1.
         11   -1    0    0    0    0 -0.00000000000E+00 -0.00000000000E+00 -0.45593999997E+02  0.45594000000E+02  0.51100000000E-03 0.  1.
    9900012    2    1    2    0    0  0.26636941819E+02 -0.27507690231E+02 -0.20430946715E+02  0.47787271032E+02  0.19999999942E+02 0.  0.
         12    1    1    2    0    0 -0.26636941819E+02  0.27507690231E+02  0.20430946715E+02  0.43400728968E+02  0.00000000000E+00 0. -1.
         11    1    3    3    0    0  0.10460748600E+02 -0.28698386050E+01 -0.12722887831E+02  0.16719303511E+02  0.51100000000E-03 0. -1.
        -11    1    3    3    0    0  0.27665447163E+01 -0.59972076267E+01 -0.42304641886E+01  0.78432835278E+01  0.51100000000E-03 0.  1.
         12    1    3    3    0    0  0.13409648503E+02 -0.18640644000E+02 -0.34775946953E+01  0.23224683993E+02  0.00000000000E+00 0. -1.
</event>
<event>
 7    1  0.7596051E-010  0.4778727E+02  0.7816164E-02  0.1312668E+00
        -11   -1    0    0    0    0  0.00000000000E+00  0.00000000000E+00  0.45593999997E+02  0.45594000000E+02  0.51100000000E-03 0. -1.
         11   -1    0    0    0    0 -0.00000000000E+00 -0.00000000000E+00 -0.45593999997E+02  0.45594000000E+02  0.51100000000E-03 0.  1.
    9900012    2    1    2    0    0 -0.16908147438E+02  0.13824196666E+02  0.37505053992E+02  0.47787274911E+02  0.20000017631E+02 0.  0.
        -12    1    1    2    0    0  0.16908147438E+02 -0.13824196666E+02 -0.37505053992E+02  0.43400725089E+02  0.00000000000E+00 0.  1.
         11    1    3    3    0    0 -0.13004195016E+02  0.12794827274E+02  0.13482663401E+02  0.22684772549E+02  0.51100000000E-03 0. -1.
        -11    1    3    3    0    0 -0.24670858188E+01  0.10601716006E+01  0.29810007665E+01  0.40120869995E+01  0.51100000000E-03 0.  1.
        -12    1    3    3    0    0 -0.14368666037E+01 -0.30802207986E-01  0.21041389825E+02  0.21090415363E+02  0.00000000000E+00 0.  1.
</event>
<event>
 7    1  0.7596051E-010  0.4778726E+02  0.7816164E-02  0.1312668E+00
        -11   -1    0    0    0    0  0.00000000000E+00  0.00000000000E+00  0.45593999997E+02  0.45594000000E+02  0.51100000000E-03 0. -1.
         11   -1    0    0    0    0 -0.00000000000E+00 -0.00000000000E+00 -0.45593999997E+02  0.45594000000E+02  0.51100000000E-03 0.  1.
    9900012    2    1    2    0    0 -0.71628030060E+01  0.22356175193E+02 -0.36503702828E+02  0.47787255349E+02  0.19999928436E+02 0.  0.
         12    1    1    2    0    0  0.71628030060E+01 -0.22356175193E+02  0.36503702828E+02  0.43400744651E+02  0.00000000000E+00 0. -1.
         11    1    3    3    0    0 -0.20104525725E+01  0.13930289674E+02 -0.76868356568E+01  0.16036905332E+02  0.51100000000E-03 0.  1.
        -11    1    3    3    0    0  0.21927072239E+01  0.41417158163E+01 -0.81280844927E+01  0.93822989002E+01  0.51100000000E-03 0. -1.
        -12    1    3    3    0    0 -0.73450576574E+01  0.42841697026E+01 -0.20688782678E+02  0.22368051116E+02  0.00000000000E+00 0.  1.
</event>
<event>
 7    1  0.7596051E-010  0.4778728E+02  0.7816164E-02  0.1312668E+00
        -11   -1    0    0    0    0  0.00000000000E+00  0.00000000000E+00  0.45593999997E+02  0.45594000000E+02  0.51100000000E-03 0. -1.
         11   -1    0    0    0    0 -0.00000000000E+00 -0.00000000000E+00 -0.45593999997E+02  0.45594000000E+02  0.51100000000E-03 0.  1.
    9900012    2    1    2    0    0 -0.27738741444E+01 -0.34556444360E+02 -0.26110926526E+02  0.47787277557E+02  0.20000029692E+02 0.  0.
         12    1    1    2    0    0  0.27738741444E+01  0.34556444360E+02  0.26110926526E+02  0.43400722443E+02  0.00000000000E+00 0. -1.
         11    1    3    3    0    0 -0.55081378093E+01 -0.21611822565E+02 -0.15630406530E+02  0.27234538095E+02  0.51100000000E-03 0. -1.
        -11    1    3    3    0    0 -0.28952520868E+01 -0.11468777100E+02 -0.75940298148E+01  0.14056479712E+02  0.51100000000E-03 0.  1.
         12    1    3    3    0    0  0.56295157517E+01 -0.14758446947E+01 -0.28864901810E+01  0.64962597491E+01  0.00000000000E+00 0. -1.
</event>
<event>
 7    1  0.7596051E-010  0.4778724E+02  0.7816164E-02  0.1312668E+00
        -11   -1    0    0    0    0  0.00000000000E+00  0.00000000000E+00  0.45593999997E+02  0.45594000000E+02  0.51100000000E-03 0. -1.
         11   -1    0    0    0    0 -0.00000000000E+00 -0.00000000000E+00 -0.45593999997E+02  0.45594000000E+02  0.51100000000E-03 0.  1.
    9900012    2    1    2    0    0  0.12875033483E+02 -0.65001008931E+01  0.40934191456E+02  0.47787241608E+02  0.19999865789E+02 0.  0.
        -12    1    1    2    0    0 -0.12875033483E+02  0.65001008931E+01 -0.40934191456E+02  0.43400758392E+02  0.00000000000E+00 0.  1.
         11    1    3    3    0    0  0.64393428311E+01 -0.50069439145E+01  0.35397680127E+02  0.36325340770E+02  0.51100000000E-03 0. -1.
        -11    1    3    3    0    0  0.26088296713E+01 -0.42643943876E+01  0.42589831160E+01  0.65673426278E+01  0.51100000000E-03 0.  1.
        -12    1    3    3    0    0  0.38268609802E+01  0.27712374090E+01  0.12775282132E+01  0.48945582103E+01  0.00000000000E+00 0.  1.
</event>
<event>
 7    1  0.7596051E-010  0.4778727E+02  0.7816164E-02  0.1312668E+00
        -11   -1    0    0    0    0  0.00000000000E+00  0.00000000000E+00  0.45593999997E+02  0.45594000000E+02  0.51100000000E-03 0. -1.
         11   -1    0    0    0    0 -0.00000000000E+00 -0.00000000000E+00 -0.45593999997E+02  0.45594000000E+02  0.51100000000E-03 0.  1.
    9900012    2    1    2    0    0  0.28720819377E+02  0.13286778520E+02  0.29701841720E+02  0.47787270160E+02  0.19999995967E+02 0.  0.
        -12    1    1    2    0    0 -0.28720819377E+02 -0.13286778520E+02 -0.29701841720E+02  0.43400729840E+02  0.00000000000E+00 0.  1.
         11    1    3    3    0    0  0.72620246224E+01  0.50011952986E+01  0.17355792574E+02  0.19467215830E+02  0.51100000000E-03 0. -1.
        -11    1    3    3    0    0  0.10402839964E+02  0.75202077741E+01  0.11450774268E+02  0.17201535858E+02  0.51100000000E-03 0.  1.
        -12    1    3    3    0    0  0.11055954790E+02  0.76537544726E+00  0.89527487771E+00  0.11118518472E+02  0.00000000000E+00 0.  1.
</event>
<event>
 7    1  0.7596051E-010  0.4778727E+02  0.7816164E-02  0.1312668E+00
        -11   -1    0    0    0    0  0.00000000000E+00  0.00000000000E+00  0.45593999997E+02  0.45594000000E+02  0.51100000000E-03 0. -1.
         11   -1    0    0    0    0 -0.00000000000E+00 -0.00000000000E+00 -0.45593999997E+02  0.45594000000E+02  0.51100000000E-03 0.  1.
    9900012    2    1    2    0    0 -0.16967261385E+02  0.72793327861E+01  0.39277812566E+02  0.47787271842E+02  0.20000003636E+02 0.  0.
        -12    1    1    2    0    0  0.16967261385E+02 -0.72793327861E+01 -0.39277812566E+02  0.43400728158E+02  0.00000000000E+00 0.  1.
         11    1    3    3    0    0 -0.28630726149E+00  0.38141324779E+01  0.65059441360E+01  0.75469787179E+01  0.51100000000E-03 0. -1.
        -11    1    3    3    0    0 -0.33836577713E+01  0.82260025920E+01  0.94702336987E+01  0.12992366417E+02  0.51100000000E-03 0.  1.
        -12    1    3    3    0    0 -0.13297296352E+02 -0.47608022838E+01  0.23301634731E+02  0.27247926706E+02  0.00000000000E+00 0.  1.
</event>
<event>
 7    1  0.7596051E-010  0.4778726E+02  0.7816164E-02  0.1312668E+00
        -11   -1    0    0    0    0  0.00000000000E+00  0.00000000000E+00  0.45593999997E+02  0.45594000000E+02  0.51100000000E-03 0. -1.
         11   -1    0    0    0    0 -0.00000000000E+00 -0.00000000000E+00 -0.45593999997E+02  0.45594000000E+02  0.51100000000E-03 0.  1.
    9900012    2    1    2    0    0  0.18497435778E+02 -0.13052188841E+02 -0.37028492427E+02  0.47787262502E+02  0.19999961053E+02 0.  0.
         12    1    1    2    0    0 -0.18497435778E+02  0.13052188841E+02  0.37028492427E+02  0.43400737498E+02  0.00000000000E+00 0. -1.
         11    1    3    3    0    0  0.16138461371E+02 -0.55908141865E+01 -0.13650280560E+02  0.21864064085E+02  0.51100000000E-03 0. -1.
        -11    1    3    3    0    0  0.25671002098E+00 -0.44062900534E+01 -0.33147091108E+01  0.55198359414E+01  0.51100000000E-03 0.  1.
         12    1    3    3    0    0  0.21022643861E+01 -0.30550846013E+01 -0.20063502756E+02  0.20403362476E+02  0.00000000000E+00 0. -1.
</event>
<event>
 7    1  0.7596051E-010  0.4778727E+02  0.7816164E-02  0.1312668E+00
        -11   -1    0    0    0    0  0.00000000000E+00  0.00000000000E+00  0.45593999997E+02  0.45594000000E+02  0.51100000000E-03 0. -1.
         11   -1    0    0    0    0 -0.00000000000E+00 -0.00000000000E+00 -0.45593999997E+02  0.45594000000E+02  0.51100000000E-03 0.  1.
    9900012    2    1    2    0    0  0.39715816435E+01  0.37026199338E+01 -0.43059736499E+02  0.47787265415E+02  0.19999974334E+02 0.  0.
         12    1    1    2    0    0 -0.39715816435E+01 -0.37026199338E+01  0.43059736499E+02  0.43400734585E+02  0.00000000000E+00 0. -1.
         11    1    3    3    0    0 -0.47973103665E+01  0.22194522114E+01 -0.18662747811E+02  0.19396863432E+02  0.51100000000E-03 0. -1.
        -11    1    3    3    0    0 -0.27902337340E+00  0.31270459872E+01 -0.14679401998E+02  0.15011366158E+02  0.51100000000E-03 0.  1.
         12    1    3    3    0    0  0.90479153834E+01 -0.16438782648E+01 -0.97175866891E+01  0.13379035825E+02  0.00000000000E+00 0. -1.
</event>
<event>
 7    1  0.9453509E-010  0.4778727E+02  0.7816164E-02  0.1312668E+00
        -11   -1    0    0    0    0  0.00000000000E+00  0.00000000000E+00  0.45593999997E+02  0.45594000000E+02  0.51100000000E-03 0. -1.
         11   -1    0    0    0    0 -0.00000000000E+00 -0.00000000000E+00 -0.45593999997E+02  0.45594000000E+02  0.51100000000E-03 0.  1.
    9900012    2    1    2    0    0  0.12456181358E+02  0.90607732176E+00  0.41564963788E+02  0.47787266771E+02  0.19999980515E+02 0.  0.
        -12    1    1    2    0    0 -0.12456181358E+02 -0.90607732176E+00 -0.41564963788E+02  0.43400733229E+02  0.00000000000E+00 0.  1.
         11    1    3    3    0    0  0.78876753761E+01  0.15116535983E+01  0.12092414728E+02  0.14516439428E+02  0.51100000000E-03 0. -1.
        -11    1    3    3    0    0  0.21729195648E-01 -0.21231033211E+00 -0.17265577764E+01  0.17396982070E+01  0.51100000000E-03 0.  1.
         12    1    3    3    0    0  0.45467767864E+01 -0.39326594442E+00  0.31199106836E+02  0.31531129136E+02  0.00000000000E+00 0. -1.
</event>
<event>
 7    1  0.7596051E-010  0.4778727E+02  0.7816164E-02  0.1312668E+00
        -11   -1    0    0    0    0  0.00000000000E+00  0.00000000000E+00  0.45593999997E+02  0.45594000000E+02  0.51100000000E-03 0.  1.
         11   -1    0    0    0    0 -0.00000000000E+00 -0.00000000000E+00 -0.45593999997E+02  0.45594000000E+02  0.51100000000E-03 0. -1.
    9900012    2    1    2    0    0 -0.39324178642E+02 -0.16063056976E+02  0.89000144918E+01  0.47787273240E+02  0.20000010012E+02 0.  0.
        -12    1    1    2    0    0  0.39324178642E+02  0.16063056976E+02 -0.89000144918E+01  0.43400726760E+02  0.00000000000E+00 0.  1.
         11    1    3    3    0    0 -0.29645474435E+01  0.13311025995E+01 -0.27819728018E+01  0.42778205440E+01  0.51100000000E-03 0. -1.
        -11    1    3    3    0    0 -0.13732311896E+01  0.11602923110E+01 -0.82696187157E+00  0.19788654187E+01  0.51100000000E-03 0.  1.
         12    1    3    3    0    0 -0.34986400009E+02 -0.18554451886E+02  0.12508949165E+02  0.41530587278E+02  0.00000000000E+00 0. -1.
</event>
<event>
 7    1  0.7596051E-010  0.4778727E+02  0.7816164E-02  0.1312668E+00
        -11   -1    0    0    0    0  0.00000000000E+00  0.00000000000E+00  0.45593999997E+02  0.45594000000E+02  0.51100000000E-03 0. -1.
         11   -1    0    0    0    0 -0.00000000000E+00 -0.00000000000E+00 -0.45593999997E+02  0.45594000000E+02  0.51100000000E-03 0.  1.
    9900012    2    1    2    0    0  0.12740633034E+02 -0.15005314148E+01 -0.41461401311E+02  0.47787272779E+02  0.20000007910E+02 0.  0.
         12    1    1    2    0    0 -0.12740633034E+02  0.15005314148E+01  0.41461401311E+02  0.43400727221E+02  0.00000000000E+00 0. -1.
         11    1    3    3    0    0  0.47056848717E+01  0.50790122899E+01 -0.77434168657E+01  0.10387508891E+02  0.51100000000E-03 0. -1.
        -11    1    3    3    0    0 -0.27415663168E+00  0.25149473934E+01 -0.15824114065E+01  0.29839819655E+01  0.51100000000E-03 0.  1.
        -12    1    3    3    0    0  0.83091047944E+01 -0.90944910981E+01 -0.32135573038E+02  0.34415781922E+02  0.00000000000E+00 0.  1.
</event>
<event>
 7    1  0.7596051E-010  0.4778724E+02  0.7816164E-02  0.1312668E+00
        -11   -1    0    0    0    0  0.00000000000E+00  0.00000000000E+00  0.45593999997E+02  0.45594000000E+02  0.51100000000E-03 0. -1.
         11   -1    0    0    0    0 -0.00000000000E+00 -0.00000000000E+00 -0.45593999997E+02  0.45594000000E+02  0.51100000000E-03 0.  1.
    9900012    2    1    2    0    0  0.38778345167E-01  0.20148338308E+02 -0.38440464612E+02  0.47787235491E+02  0.19999837899E+02 0.  0.
         12    1    1    2    0    0 -0.38778345167E-01 -0.20148338308E+02  0.38440464612E+02  0.43400764509E+02  0.00000000000E+00 0. -1.
         11    1    3    3    0    0  0.54180045549E+01  0.55969456239E+01 -0.17519530696E+02  0.19173276448E+02  0.51100000000E-03 0. -1.
        -11    1    3    3    0    0 -0.30679402109E+01 -0.36504566078E+00 -0.85716906928E+01  0.91114980693E+01  0.51100000000E-03 0.  1.
         12    1    3    3    0    0 -0.23112859988E+01  0.14916438345E+02 -0.12349243223E+02  0.19502460974E+02  0.00000000000E+00 0. -1.
</event>
<event>
 7    1  0.7596051E-010  0.4778730E+02  0.7816164E-02  0.1312668E+00
        -11   -1    0    0    0    0  0.00000000000E+00  0.00000000000E+00  0.45593999997E+02  0.45594000000E+02  0.51100000000E-03 0. -1.
         11   -1    0    0    0    0 -0.00000000000E+00 -0.00000000000E+00 -0.45593999997E+02  0.45594000000E+02  0.51100000000E-03 0.  1.
    9900012    2    1    2    0    0 -0.27916457831E+02 -0.19221746866E+02  0.27107508497E+02  0.47787295083E+02  0.20000109601E+02 0.  0.
        -12    1    1    2    0    0  0.27916457831E+02  0.19221746866E+02 -0.27107508497E+02  0.43400704917E+02  0.00000000000E+00 0.  1.
         11    1    3    3    0    0 -0.14293998091E+02 -0.93270414308E+01  0.89205787507E+01  0.19258473688E+02  0.51100000000E-03 0. -1.
        -11    1    3    3    0    0 -0.11042356323E+02 -0.83391500077E+01  0.45549064294E+01  0.14567849150E+02  0.51100000000E-03 0.  1.
        -12    1    3    3    0    0 -0.25801034166E+01 -0.15555554277E+01  0.13632023316E+02  0.13960972245E+02  0.00000000000E+00 0.  1.
</event>
<event>
 7    1  0.7596051E-010  0.4778726E+02  0.7816164E-02  0.1312668E+00
        -11   -1    0    0    0    0  0.00000000000E+00  0.00000000000E+00  0.45593999997E+02  0.45594000000E+02  0.51100000000E-03 0.  1.
         11   -1    0    0    0    0 -0.00000000000E+00 -0.00000000000E+00 -0.45593999997E+02  0.45594000000E+02  0.51100000000E-03 0. -1.
    9900012    2    1    2    0    0 -0.42749262776E+01 -0.38792964210E+02 -0.18985647910E+02  0.47787263906E+02  0.19999967454E+02 0.  0.
         12    1    1    2    0    0  0.42749262776E+01  0.38792964210E+02  0.18985647910E+02  0.43400736094E+02  0.00000000000E+00 0. -1.
         11    1    3    3    0    0  0.29616890440E+01 -0.99891542823E+01 -0.36368589055E+01  0.11035467739E+02  0.51100000000E-03 0. -1.
        -11    1    3    3    0    0 -0.38217491313E+01 -0.29628817576E+02 -0.13942936551E+02  0.32967833979E+02  0.51100000000E-03 0.  1.
         12    1    3    3    0    0 -0.34148661903E+01  0.82500764761E+00 -0.14058524539E+01  0.37839621878E+01  0.00000000000E+00 0. -1.
</event>
<event>
 7    1  0.7596051E-010  0.4778727E+02  0.7816164E-02  0.1312668E+00
        -11   -1    0    0    0    0  0.00000000000E+00  0.00000000000E+00  0.45593999997E+02  0.45594000000E+02  0.51100000000E-03 0. -1.
         11   -1    0    0    0    0 -0.00000000000E+00 -0.00000000000E+00 -0.45593999997E+02  0.45594000000E+02  0.51100000000E-03 0.  1.
    9900012    2    1    2    0    0  0.38045903239E+01  0.23062892229E+02  0.36568454650E+02  0.47787265202E+02  0.19999973361E+02 0.  0.
        -12    1    1    2    0    0 -0.38045903239E+01 -0.23062892229E+02 -0.36568454650E+02  0.43400734798E+02  0.00000000000E+00 0.  1.
         11    1    3    3    0    0 -0.32885988710E+01  0.11086463956E+02  0.75954793763E+01  0.13835312530E+02  0.51100000000E-03 0.  1.
        -11    1    3    3    0    0  0.36034413673E+01  0.60078950194E+01  0.25031767233E+02  0.25993633130E+02  0.51100000000E-03 0. -1.
         12    1    3    3    0    0  0.34897478277E+01  0.59685332542E+01  0.39412080413E+01  0.79583195420E+01  0.00000000000E+00 0. -1.
</event>
<event>
 7    1  0.7596051E-010  0.4778727E+02  0.7816164E-02  0.1312668E+00
        -11   -1    0    0    0    0  0.00000000000E+00  0.00000000000E+00  0.45593999997E+02  0.45594000000E+02  0.51100000000E-03 0. -1.
         11   -1    0    0    0    0 -0.00000000000E+00 -0.00000000000E+00 -0.45593999997E+02  0.45594000000E+02  0.51100000000E-03 0.  1.
    9900012    2    1    2    0    0 -0.23755099267E+02  0.83463740032E+01  0.35350483735E+02  0.47787269586E+02  0.19999993352E+02 0.  0.
        -12    1    1    2    0    0  0.23755099267E+02 -0.83463740032E+01 -0.35350483735E+02  0.43400730414E+02  0.00000000000E+00 0.  1.
         11    1    3    3    0    0 -0.14287492572E+02  0.17100016650E+01  0.12212833786E+02  0.18873522698E+02  0.51100000000E-03 0. -1.
        -11    1    3    3    0    0 -0.20822545902E+01 -0.15882205837E+01 -0.63686465983E+00  0.26951485408E+01  0.51100000000E-03 0.  1.
        -12    1    3    3    0    0 -0.73853521040E+01  0.82245929218E+01  0.23774514608E+02  0.26218598347E+02  0.00000000000E+00 0.  1.
</event>
<event>
 7    1  0.7596051E-010  0.4778727E+02  0.7816164E-02  0.1312668E+00
        -11   -1    0    0    0    0  0.00000000000E+00  0.00000000000E+00  0.45593999997E+02  0.45594000000E+02  0.51100000000E-03 0. -1.
         11   -1    0    0    0    0 -0.00000000000E+00 -0.00000000000E+00 -0.45593999997E+02  0.45594000000E+02  0.51100000000E-03 0.  1.
    9900012    2    1    2    0    0 -0.15936419056E+02  0.11539341065E+02 -0.38684593611E+02  0.47787266971E+02  0.19999981429E+02 0.  0.
         12    1    1    2    0    0  0.15936419056E+02 -0.11539341065E+02  0.38684593611E+02  0.43400733029E+02  0.00000000000E+00 0. -1.
         11    1    3    3    0    0 -0.27036922023E+01 -0.18580260429E+01 -0.30562098497E+00  0.32947862979E+01  0.51100000000E-03 0. -1.
        -11    1    3    3    0    0 -0.87674159371E+01  0.12384787757E+01 -0.10386857791E+02  0.13648744518E+02  0.51100000000E-03 0.  1.
         12    1    3    3    0    0 -0.44653109161E+01  0.12158888332E+02 -0.27992114835E+02  0.30843736155E+02  0.00000000000E+00 0. -1.
</event>
<event>
 7    1  0.7596051E-010  0.4778728E+02  0.7816164E-02  0.1312668E+00
        -11   -1    0    0    0    0  0.00000000000E+00  0.00000000000E+00  0.45593999997E+02  0.45594000000E+02  0.51100000000E-03 0. -1.
         11   -1    0    0    0    0 -0.00000000000E+00 -0.00000000000E+00 -0.45593999997E+02  0.45594000000E+02  0.51100000000E-03 0.  1.
    9900012    2    1    2    0    0  0.63904369121E+01  0.34339254258E+02 -0.25760449470E+02  0.47787276229E+02  0.20000023639E+02 0.  0.
         12    1    1    2    0    0 -0.63904369121E+01 -0.34339254258E+02  0.25760449470E+02  0.43400723771E+02  0.00000000000E+00 0. -1.
         11    1    3    3    0    0  0.16845869753E+01  0.23888706345E+02 -0.18719238148E+02  0.30396019496E+02  0.51100000000E-03 0. -1.
        -11    1    3    3    0    0  0.41798891710E+01  0.12580381972E+02 -0.73784816565E+01  0.15171666878E+02  0.51100000000E-03 0.  1.
         12    1    3    3    0    0  0.52596076586E+00 -0.21298340587E+01  0.33727033443E+00  0.22195898547E+01  0.00000000000E+00 0. -1.
</event>
<event>
 7    1  0.7596051E-010  0.4778727E+02  0.7816164E-02  0.1312668E+00
        -11   -1    0    0    0    0  0.00000000000E+00  0.00000000000E+00  0.45593999997E+02  0.45594000000E+02  0.51100000000E-03 0. -1.
         11   -1    0    0    0    0 -0.00000000000E+00 -0.00000000000E+00 -0.45593999997E+02  0.45594000000E+02  0.51100000000E-03 0.  1.
    9900012    2    1    2    0    0  0.23190998581E+01 -0.74627302591E+01 -0.42691365479E+02  0.47787271279E+02  0.20000001068E+02 0.  0.
         12    1    1    2    0    0 -0.23190998581E+01  0.74627302591E+01  0.42691365479E+02  0.43400728721E+02  0.00000000000E+00 0. -1.
         11    1    3    3    0    0  0.40611501070E+01 -0.16621846336E+01 -0.93898500045E+01  0.10364607147E+02  0.51100000000E-03 0. -1.
        -11    1    3    3    0    0 -0.44764238633E+01 -0.88948592199E+01 -0.31276682663E+02  0.32823585572E+02  0.51100000000E-03 0.  1.
         12    1    3    3    0    0  0.27343736144E+01  0.30943135943E+01 -0.20248328120E+01  0.45990785598E+01  0.00000000000E+00 0. -1.
</event>
<event>
 7    1  0.7596051E-010  0.4778728E+02  0.7816164E-02  0.1312668E+00
        -11   -1    0    0    0    0  0.00000000000E+00  0.00000000000E+00  0.45593999997E+02  0.45594000000E+02  0.51100000000E-03 0. -1.
         11   -1    0    0    0    0 -0.00000000000E+00 -0.00000000000E+00 -0.45593999997E+02  0.45594000000E+02  0.51100000000E-03 0.  1.
    9900012    2    1    2    0    0 -0.16303219985E+02 -0.25612341780E+02  0.31013478240E+02  0.47787275745E+02  0.20000021433E+02 0.  0.
        -12    1    1    2    0    0  0.16303219985E+02  0.25612341780E+02 -0.31013478240E+02  0.43400724255E+02  0.00000000000E+00 0.  1.
         11    1    3    3    0    0 -0.33844819900E+01 -0.30129602525E+01  0.14754644151E+02  0.15434771528E+02  0.51100000000E-03 0. -1.
        -11    1    3    3    0    0 -0.80908931349E+00 -0.89563181117E+00 -0.14118403001E+01  0.18574377923E+01  0.51100000000E-03 0.  1.
        -12    1    3    3    0    0 -0.12109648681E+02 -0.21703749716E+02  0.17670674389E+02  0.30495066425E+02  0.00000000000E+00 0.  1.
</event>
<event>
 7    1  0.7596051E-010  0.4778728E+02  0.7816164E-02  0.1312668E+00
        -11   -1    0    0    0    0  0.00000000000E+00  0.00000000000E+00  0.45593999997E+02  0.45594000000E+02  0.51100000000E-03 0. -1.
         11   -1    0    0    0    0 -0.00000000000E+00 -0.00000000000E+00 -0.45593999997E+02  0.45594000000E+02  0.51100000000E-03 0.  1.
    9900012    2    1    2    0    0 -0.14195103909E+02 -0.67048797861E+01  0.40461914097E+02  0.47787275578E+02  0.20000020672E+02 0.  0.
        -12    1    1    2    0    0  0.14195103909E+02  0.67048797861E+01 -0.40461914097E+02  0.43400724422E+02  0.00000000000E+00 0.  1.
         11    1    3    3    0    0 -0.11044324042E+01 -0.55946334018E+01  0.15179002900E+02  0.16214864265E+02  0.51100000000E-03 0. -1.
        -11    1    3    3    0    0 -0.85917188573E+01  0.19027375235E+01  0.24585608173E+02  0.26113026873E+02  0.51100000000E-03 0.  1.
        -12    1    3    3    0    0 -0.44989526479E+01 -0.30129839077E+01  0.69730302416E+00  0.54593844400E+01  0.00000000000E+00 0.  1.
</event>
<event>
 7    1  0.7596051E-010  0.4778727E+02  0.7816164E-02  0.1312668E+00
        -11   -1    0    0    0    0  0.00000000000E+00  0.00000000000E+00  0.45593999997E+02  0.45594000000E+02  0.51100000000E-03 0. -1.
         11   -1    0    0    0    0 -0.00000000000E+00 -0.00000000000E+00 -0.45593999997E+02  0.45594000000E+02  0.51100000000E-03 0.  1.
    9900012    2    1    2    0    0  0.34854008108E+02  0.23719071091E+02  0.10306652255E+02  0.47787270797E+02  0.19999998874E+02 0.  0.
        -12    1    1    2    0    0 -0.34854008108E+02 -0.23719071091E+02 -0.10306652255E+02  0.43400729203E+02  0.00000000000E+00 0.  1.
         11    1    3    3    0    0  0.94834920230E+01  0.11648511113E+02  0.75501521171E+01  0.16811580216E+02  0.51100000000E-03 0. -1.
        -11    1    3    3    0    0  0.33414314573E+00  0.46853755056E+01 -0.22756893133E+00  0.47027846166E+01  0.51100000000E-03 0.  1.
        -12    1    3    3    0    0  0.25036372939E+02  0.73851844722E+01  0.29840690697E+01  0.26272905965E+02  0.00000000000E+00 0.  1.
</event>
<event>
 7    1  0.7596051E-010  0.4778727E+02  0.7816164E-02  0.1312668E+00
        -11   -1    0    0    0    0  0.00000000000E+00  0.00000000000E+00  0.45593999997E+02  0.45594000000E+02  0.51100000000E-03 0. -1.
         11   -1    0    0    0    0 -0.00000000000E+00 -0.00000000000E+00 -0.45593999997E+02  0.45594000000E+02  0.51100000000E-03 0.  1.
    9900012    2    1    2    0    0  0.73766849991E+01 -0.14910520519E+02  0.40085961550E+02  0.47787269394E+02  0.19999992476E+02 0.  0.
        -12    1    1    2    0    0 -0.73766849991E+01  0.14910520519E+02 -0.40085961550E+02  0.43400730606E+02  0.00000000000E+00 0.  1.
         11    1    3    3    0    0  0.25593382309E+01 -0.41967144393E+00  0.10766776793E+02  0.11074737878E+02  0.51100000000E-03 0. -1.
        -11    1    3    3    0    0  0.63280437468E+01 -0.32464561831E+01  0.24100670112E+01  0.75094632744E+01  0.51100000000E-03 0.  1.
        -12    1    3    3    0    0 -0.15106969786E+01 -0.11244392892E+02  0.26909117746E+02  0.29203068241E+02  0.00000000000E+00 0.  1.
</event>
<event>
 7    1  0.7596051E-010  0.4778730E+02  0.7816164E-02  0.1312668E+00
        -11   -1    0    0    0    0  0.00000000000E+00  0.00000000000E+00  0.45593999997E+02  0.45594000000E+02  0.51100000000E-03 0. -1.
         11   -1    0    0    0    0 -0.00000000000E+00 -0.00000000000E+00 -0.45593999997E+02  0.45594000000E+02  0.51100000000E-03 0.  1.
    9900012    2    1    2    0    0 -0.28519163292E+01 -0.44563566259E+01  0.43077007585E+02  0.47787295816E+02  0.20000112945E+02 0.  0.
        -12    1    1    2    0    0  0.28519163292E+01  0.44563566259E+01 -0.43077007585E+02  0.43400704184E+02  0.00000000000E+00 0.  1.
         11    1    3    3    0    0  0.31753328181E+01  0.10379668714E+01  0.20031684896E+02  0.20308336066E+02  0.51100000000E-03 0. -1.
        -11    1    3    3    0    0 -0.58972679973E+00 -0.50645504493E+01  0.21069467144E+02  0.21677635825E+02  0.51100000000E-03 0.  1.
         12    1    3    3    0    0 -0.54375223476E+01 -0.42977304802E+00  0.19758555446E+01  0.58013239253E+01  0.00000000000E+00 0. -1.
</event>
<event>
 7    1  0.7596051E-010  0.4778726E+02  0.7816164E-02  0.1312668E+00
        -11   -1    0    0    0    0  0.00000000000E+00  0.00000000000E+00  0.45593999997E+02  0.45594000000E+02  0.51100000000E-03 0. -1.
         11   -1    0    0    0    0 -0.00000000000E+00 -0.00000000000E+00 -0.45593999997E+02  0.45594000000E+02  0.51100000000E-03 0.  1.
    9900012    2    1    2    0    0  0.20070893030E+02  0.17930696936E+02  0.34048104565E+02  0.47787261941E+02  0.19999958492E+02 0.  0.
        -12    1    1    2    0    0 -0.20070893030E+02 -0.17930696936E+02 -0.34048104565E+02  0.43400738059E+02  0.00000000000E+00 0.  1.
         11    1    3    3    0    0 -0.97951776118E+00  0.83121521366E+01  0.79421620800E+01  0.11538165667E+02  0.51100000000E-03 0. -1.
        -11    1    3    3    0    0  0.19434289166E+01 -0.19778229683E+01  0.23890847501E+01  0.36601128196E+01  0.51100000000E-03 0.  1.
        -12    1    3    3    0    0  0.19106981875E+02  0.11596367767E+02  0.23716857735E+02  0.32588983454E+02  0.00000000000E+00 0.  1.
</event>
<event>
 7    1  0.7596051E-010  0.4778727E+02  0.7816164E-02  0.1312668E+00
        -11   -1    0    0    0    0  0.00000000000E+00  0.00000000000E+00  0.45593999997E+02  0.45594000000E+02  0.51100000000E-03 0. -1.
         11   -1    0    0    0    0 -0.00000000000E+00 -0.00000000000E+00 -0.45593999997E+02  0.45594000000E+02  0.51100000000E-03 0.  1.
    9900012    2    1    2    0    0  0.39919159271E+02 -0.46883312204E+01  0.16373863852E+02  0.47787272541E+02  0.20000006822E+02 0.  0.
        -12    1    1    2    0    0 -0.39919159271E+02  0.46883312204E+01 -0.16373863852E+02  0.43400727459E+02  0.00000000000E+00 0.  1.
         11    1    3    3    0    0  0.20757260807E+02 -0.61576108169E+01  0.92630873026E+01  0.23549624919E+02  0.51100000000E-03 0. -1.
        -11    1    3    3    0    0  0.18630803647E+02 -0.16387655155E+01  0.28218687246E+01  0.18914421490E+02  0.51100000000E-03 0.  1.
         12    1    3    3    0    0  0.53109481790E+00  0.31080451120E+01  0.42889078250E+01  0.53232261323E+01  0.00000000000E+00 0. -1.
</event>
<event>
 7    1  0.7596051E-010  0.4778727E+02  0.7816164E-02  0.1312668E+00
        -11   -1    0    0    0    0  0.00000000000E+00  0.00000000000E+00  0.45593999997E+02  0.45594000000E+02  0.51100000000E-03 0. -1.
         11   -1    0    0    0    0 -0.00000000000E+00 -0.00000000000E+00 -0.45593999997E+02  0.45594000000E+02  0.51100000000E-03 0.  1.
    9900012    2    1    2    0    0  0.40562750650E+02  0.17039861575E+01  0.15342188024E+02  0.47787273710E+02  0.20000012156E+02 0.  0.
        -12    1    1    2    0    0 -0.40562750650E+02 -0.17039861575E+01 -0.15342188024E+02  0.43400726290E+02  0.00000000000E+00 0.  1.
         11    1    3    3    0    0  0.84598775546E+01 -0.68837832013E+01  0.28966440242E+01  0.11284792699E+02  0.51100000000E-03 0. -1.
        -11    1    3    3    0    0  0.39425855213E+01 -0.17459658717E+01  0.18095196295E+01  0.46761885087E+01  0.51100000000E-03 0.  1.
        -12    1    3    3    0    0  0.28160287574E+02  0.10333735231E+02  0.10636024370E+02  0.31826292502E+02  0.00000000000E+00 0.  1.
</event>
<event>
 7    1  0.1023615E-009  0.4778727E+02  0.7816164E-02  0.1312668E+00
        -11   -1    0    0    0    0  0.00000000000E+00  0.00000000000E+00  0.45593999997E+02  0.45594000000E+02  0.51100000000E-03 0. -1.
         11   -1    0    0    0    0 -0.00000000000E+00 -0.00000000000E+00 -0.45593999997E+02  0.45594000000E+02  0.51100000000E-03 0.  1.
    9900012    2    1    2    0    0 -0.95397888946E+01  0.27137997586E+02  0.32498378627E+02  0.47787273065E+02  0.20000009211E+02 0.  0.
        -12    1    1    2    0    0  0.95397888946E+01 -0.27137997586E+02 -0.32498378627E+02  0.43400726935E+02  0.00000000000E+00 0.  1.
         11    1    3    3    0    0  0.22308006308E+01  0.27516298740E+01  0.11433608603E+01  0.37222590904E+01  0.51100000000E-03 0. -1.
        -11    1    3    3    0    0  0.28919384308E+01  0.41999889087E+01  0.99963630381E+01  0.11221875466E+02  0.51100000000E-03 0.  1.
         12    1    3    3    0    0 -0.14662527956E+02  0.20186378803E+02  0.21358654729E+02  0.32843138508E+02  0.00000000000E+00 0. -1.
</event>
<event>
 7    1  0.7596051E-010  0.4778727E+02  0.7816164E-02  0.1312668E+00
        -11   -1    0    0    0    0  0.00000000000E+00  0.00000000000E+00  0.45593999997E+02  0.45594000000E+02  0.51100000000E-03 0. -1.
         11   -1    0    0    0    0 -0.00000000000E+00 -0.00000000000E+00 -0.45593999997E+02  0.45594000000E+02  0.51100000000E-03 0.  1.
    9900012    2    1    2    0    0  0.21938126210E+02 -0.18615745717E+01  0.37401559986E+02  0.47787268084E+02  0.19999986503E+02 0.  0.
        -12    1    1    2    0    0 -0.21938126210E+02  0.18615745717E+01 -0.37401559986E+02  0.43400731916E+02  0.00000000000E+00 0.  1.
         11    1    3    3    0    0  0.14899044690E+02 -0.50652284817E+01  0.92594684432E+01  0.18258582321E+02  0.51100000000E-03 0. -1.
        -11    1    3    3    0    0  0.56419356822E+00  0.23385221398E+01  0.79877141735E+01  0.83420967484E+01  0.51100000000E-03 0.  1.
         12    1    3    3    0    0  0.64748879509E+01  0.86513177022E+00  0.20154377369E+02  0.21186589015E+02  0.00000000000E+00 0. -1.
</event>
<event>
 7    1  0.7596051E-010  0.4778731E+02  0.7816164E-02  0.1312668E+00
        -11   -1    0    0    0    0  0.00000000000E+00  0.00000000000E+00  0.45593999997E+02  0.45594000000E+02  0.51100000000E-03 0. -1.
         11   -1    0    0    0    0 -0.00000000000E+00 -0.00000000000E+00 -0.45593999997E+02  0.45594000000E+02  0.51100000000E-03 0.  1.
    9900012    2    1    2    0    0  0.16381419935E+02  0.94174310539E+01  0.39071481738E+02  0.47787313232E+02  0.20000192349E+02 0.  0.
        -12    1    1    2    0    0 -0.16381419935E+02 -0.94174310539E+01 -0.39071481738E+02  0.43400686768E+02  0.00000000000E+00 0.  1.
         11    1    3    3    0    0  0.12393525384E+01 -0.40386511188E+00  0.12043898827E+02  0.12114231340E+02  0.51100000000E-03 0. -1.
        -11    1    3    3    0    0 -0.26123851602E+01  0.63103828903E+00  0.64282641468E+01  0.69674490131E+01  0.51100000000E-03 0.  1.
        -12    1    3    3    0    0  0.17754452557E+02  0.91902578768E+01  0.20599318764E+02  0.28705632879E+02  0.00000000000E+00 0.  1.
</event>
<event>
 7    1  0.7596051E-010  0.4778727E+02  0.7816164E-02  0.1312668E+00
        -11   -1    0    0    0    0  0.00000000000E+00  0.00000000000E+00  0.45593999997E+02  0.45594000000E+02  0.51100000000E-03 0. -1.
         11   -1    0    0    0    0 -0.00000000000E+00 -0.00000000000E+00 -0.45593999997E+02  0.45594000000E+02  0.51100000000E-03 0.  1.
    9900012    2    1    2    0    0 -0.12639558129E+02 -0.32505993578E+01 -0.41392011302E+02  0.47787269298E+02  0.19999992037E+02 0.  0.
         12    1    1    2    0    0  0.12639558129E+02  0.32505993578E+01  0.41392011302E+02  0.43400730702E+02  0.00000000000E+00 0. -1.
         11    1    3    3    0    0 -0.24925764509E+01 -0.41898967581E+01 -0.34196166313E+01  0.59549937341E+01  0.51100000000E-03 0. -1.
        -11    1    3    3    0    0 -0.67559948394E+01 -0.41566037665E+01 -0.80922068769E+01  0.11331576834E+02  0.51100000000E-03 0.  1.
        -12    1    3    3    0    0 -0.33909868387E+01  0.50959011669E+01 -0.29880187793E+02  0.30500698730E+02  0.00000000000E+00 0.  1.
</event>
<event>
 7    1  0.7596051E-010  0.4778727E+02  0.7816164E-02  0.1312668E+00
        -11   -1    0    0    0    0  0.00000000000E+00  0.00000000000E+00  0.45593999997E+02  0.45594000000E+02  0.51100000000E-03 0. -1.
         11   -1    0    0    0    0 -0.00000000000E+00 -0.00000000000E+00 -0.45593999997E+02  0.45594000000E+02  0.51100000000E-03 0.  1.
    9900012    2    1    2    0    0 -0.14760258744E+02  0.18108733091E+02  0.36576383651E+02  0.47787270820E+02  0.19999998978E+02 0.  0.
        -12    1    1    2    0    0  0.14760258744E+02 -0.18108733091E+02 -0.36576383651E+02  0.43400729180E+02  0.00000000000E+00 0.  1.
         11    1    3    3    0    0 -0.46410709184E+01  0.69461365053E+01  0.75398858306E+01  0.11253365284E+02  0.51100000000E-03 0. -1.
        -11    1    3    3    0    0  0.27304688486E+01  0.44960624281E+01  0.15756970614E+01  0.54911618972E+01  0.51100000000E-03 0.  1.
         12    1    3    3    0    0 -0.12849656674E+02  0.66665341575E+01  0.27460800759E+02  0.31042743639E+02  0.00000000000E+00 0. -1.
</event>
<event>
 7    1  0.7596051E-010  0.4778727E+02  0.7816164E-02  0.1312668E+00
        -11   -1    0    0    0    0  0.00000000000E+00  0.00000000000E+00  0.45593999997E+02  0.45594000000E+02  0.51100000000E-03 0. -1.
         11   -1    0    0    0    0 -0.00000000000E+00 -0.00000000000E+00 -0.45593999997E+02  0.45594000000E+02  0.51100000000E-03 0.  1.
    9900012    2    1    2    0    0 -0.34959159131E+02  0.15788678290E+02 -0.20302666268E+02  0.47787269281E+02  0.19999991962E+02 0.  0.
         12    1    1    2    0    0  0.34959159131E+02 -0.15788678290E+02  0.20302666268E+02  0.43400730719E+02  0.00000000000E+00 0. -1.
         11    1    3    3    0    0 -0.93815084660E+01  0.40174271603E+01 -0.58985767677E+01  0.11787520105E+02  0.51100000000E-03 0. -1.
        -11    1    3    3    0    0 -0.18368954902E+02  0.45845899151E+01 -0.72158605472E+00  0.18946177862E+02  0.51100000000E-03 0.  1.
         12    1    3    3    0    0 -0.72086957628E+01  0.71866612148E+01 -0.13682503446E+02  0.17053571314E+02  0.00000000000E+00 0. -1.
</event>
<event>
 7    1  0.7596051E-010  0.4778727E+02  0.7816164E-02  0.1312668E+00
        -11   -1    0    0    0    0  0.00000000000E+00  0.00000000000E+00  0.45593999997E+02  0.45594000000E+02  0.51100000000E-03 0. -1.
         11   -1    0    0    0    0 -0.00000000000E+00 -0.00000000000E+00 -0.45593999997E+02  0.45594000000E+02  0.51100000000E-03 0.  1.
    9900012    2    1    2    0    0  0.22792760279E+01 -0.81354804674E+01 -0.42570438875E+02  0.47787269503E+02  0.19999992974E+02 0.  0.
         12    1    1    2    0    0 -0.22792760279E+01  0.81354804674E+01  0.42570438875E+02  0.43400730497E+02  0.00000000000E+00 0. -1.
         11    1    3    3    0    0  0.35769409368E+00 -0.13402204911E+01 -0.72936716694E+01  0.74244045359E+01  0.51100000000E-03 0. -1.
        -11    1    3    3    0    0  0.65359758201E+01 -0.56803612714E+01 -0.34478188080E+02  0.35548993482E+02  0.51100000000E-03 0.  1.
         12    1    3    3    0    0 -0.46143938858E+01 -0.11148987049E+01 -0.79857912567E+00  0.48138714852E+01  0.00000000000E+00 0. -1.
</event>
<event>
 7    1  0.7596051E-010  0.4778726E+02  0.7816164E-02  0.1312668E+00
        -11   -1    0    0    0    0  0.00000000000E+00  0.00000000000E+00  0.45593999997E+02  0.45594000000E+02  0.51100000000E-03 0. -1.
         11   -1    0    0    0    0 -0.00000000000E+00 -0.00000000000E+00 -0.45593999997E+02  0.45594000000E+02  0.51100000000E-03 0.  1.
    9900012    2    1    2    0    0  0.80795913945E+01 -0.29001574156E+02  0.31261053192E+02  0.47787256374E+02  0.19999933112E+02 0.  0.
        -12    1    1    2    0    0 -0.80795913945E+01  0.29001574156E+02 -0.31261053192E+02  0.43400743626E+02  0.00000000000E+00 0.  1.
         11    1    3    3    0    0 -0.41035172610E+01 -0.40979019256E+01  0.12998973397E+01  0.59431799113E+01  0.51100000000E-03 0. -1.
        -11    1    3    3    0    0  0.34332358627E+01 -0.82297067114E+00  0.28050469074E+01  0.45091770455E+01  0.51100000000E-03 0.  1.
        -12    1    3    3    0    0  0.87498727928E+01 -0.24080701559E+02  0.27156108945E+02  0.37334899417E+02  0.00000000000E+00 0.  1.
</event>
<event>
 7    1  0.7596051E-010  0.4778727E+02  0.7816164E-02  0.1312668E+00
        -11   -1    0    0    0    0  0.00000000000E+00  0.00000000000E+00  0.45593999997E+02  0.45594000000E+02  0.51100000000E-03 0.  1.
         11   -1    0    0    0    0 -0.00000000000E+00 -0.00000000000E+00 -0.45593999997E+02  0.45594000000E+02  0.51100000000E-03 0. -1.
    9900012    2    1    2    0    0 -0.12912779983E+02 -0.41222083691E+02 -0.41980083023E+01  0.47787270232E+02  0.19999996297E+02 0.  0.
         12    1    1    2    0    0  0.12912779983E+02  0.41222083691E+02  0.41980083023E+01  0.43400729768E+02  0.00000000000E+00 0. -1.
         11    1    3    3    0    0 -0.38966759173E+01 -0.17373680825E+02 -0.64044175142E+01  0.18922088483E+02  0.51100000000E-03 0. -1.
        -11    1    3    3    0    0  0.25005631496E+01 -0.11951397178E+02  0.51800981743E+00  0.12221171998E+02  0.51100000000E-03 0.  1.
        -12    1    3    3    0    0 -0.11516667215E+02 -0.11897005687E+02  0.16883993944E+01  0.16644009751E+02  0.00000000000E+00 0.  1.
</event>
<event>
 7    1  0.7596051E-010  0.4778727E+02  0.7816164E-02  0.1312668E+00
        -11   -1    0    0    0    0  0.00000000000E+00  0.00000000000E+00  0.45593999997E+02  0.45594000000E+02  0.51100000000E-03 0.  1.
         11   -1    0    0    0    0 -0.00000000000E+00 -0.00000000000E+00 -0.45593999997E+02  0.45594000000E+02  0.51100000000E-03 0. -1.
    9900012    2    1    2    0    0  0.32980462065E+02 -0.16308992430E+02 -0.23020194624E+02  0.47787268755E+02  0.19999989561E+02 0.  0.
         12    1    1    2    0    0 -0.32980462065E+02  0.16308992430E+02  0.23020194624E+02  0.43400731245E+02  0.00000000000E+00 0. -1.
         11    1    3    3    0    0  0.13490938387E+02 -0.87823813328E+00 -0.61135323449E+01  0.14837519967E+02  0.51100000000E-03 0. -1.
        -11    1    3    3    0    0  0.17072070654E+02 -0.56888861355E+01 -0.87162963113E+01  0.19994820418E+02  0.51100000000E-03 0.  1.
        -12    1    3    3    0    0  0.24174530232E+01 -0.97418681610E+01 -0.81903659678E+01  0.12954928370E+02  0.00000000000E+00 0.  1.
</event>
<event>
 7    1  0.7596051E-010  0.4778727E+02  0.7816164E-02  0.1312668E+00
        -11   -1    0    0    0    0  0.00000000000E+00  0.00000000000E+00  0.45593999997E+02  0.45594000000E+02  0.51100000000E-03 0. -1.
         11   -1    0    0    0    0 -0.00000000000E+00 -0.00000000000E+00 -0.45593999997E+02  0.45594000000E+02  0.51100000000E-03 0.  1.
    9900012    2    1    2    0    0 -0.26676248155E+02 -0.29334150958E+02 -0.17649606875E+02  0.47787271309E+02  0.20000001206E+02 0.  0.
         12    1    1    2    0    0  0.26676248155E+02  0.29334150958E+02  0.17649606875E+02  0.43400728691E+02  0.00000000000E+00 0. -1.
         11    1    3    3    0    0  0.19080024940E+00 -0.24638803030E+00 -0.47715737485E+01  0.47817390242E+01  0.51100000000E-03 0. -1.
        -11    1    3    3    0    0 -0.35079678350E+01 -0.99406278453E+01 -0.11466964664E+01  0.10603623595E+02  0.51100000000E-03 0.  1.
        -12    1    3    3    0    0 -0.23359080570E+02 -0.19147135082E+02 -0.11731336660E+02  0.32401908690E+02  0.00000000000E+00 0.  1.
</event>
<event>
 7    1  0.1206992E-009  0.4778728E+02  0.7816164E-02  0.1312668E+00
        -11   -1    0    0    0    0  0.00000000000E+00  0.00000000000E+00  0.45593999997E+02  0.45594000000E+02  0.51100000000E-03 0. -1.
         11   -1    0    0    0    0 -0.00000000000E+00 -0.00000000000E+00 -0.45593999997E+02  0.45594000000E+02  0.51100000000E-03 0.  1.
    9900012    2    1    2    0    0 -0.29723104968E+02 -0.12787349998E+02  0.28924788079E+02  0.47787278183E+02  0.20000032546E+02 0.  0.
        -12    1    1    2    0    0  0.29723104968E+02  0.12787349998E+02 -0.28924788079E+02  0.43400721817E+02  0.00000000000E+00 0.  1.
         11    1    3    3    0    0 -0.43424811588E+00 -0.21858622054E+01  0.56220393512E+01  0.60476352184E+01  0.51100000000E-03 0. -1.
        -11    1    3    3    0    0  0.19565174156E+00  0.15356246752E+01 -0.82552995782E+00  0.17544009574E+01  0.51100000000E-03 0.  1.
         12    1    3    3    0    0 -0.29484508593E+02 -0.12137112467E+02  0.24128278685E+02  0.39985242007E+02  0.00000000000E+00 0. -1.
</event>
<event>
 7    1  0.7596051E-010  0.4778727E+02  0.7816164E-02  0.1312668E+00
        -11   -1    0    0    0    0  0.00000000000E+00  0.00000000000E+00  0.45593999997E+02  0.45594000000E+02  0.51100000000E-03 0. -1.
         11   -1    0    0    0    0 -0.00000000000E+00 -0.00000000000E+00 -0.45593999997E+02  0.45594000000E+02  0.51100000000E-03 0.  1.
    9900012    2    1    2    0    0  0.18896145728E+02 -0.12777599975E+02 -0.36922783960E+02  0.47787270054E+02  0.19999995486E+02 0.  0.
         12    1    1    2    0    0 -0.18896145728E+02  0.12777599975E+02  0.36922783960E+02  0.43400729946E+02  0.00000000000E+00 0. -1.
         11    1    3    3    0    0  0.18892743593E+01  0.29739214930E+00 -0.91609049960E+01  0.93584176175E+01  0.51100000000E-03 0. -1.
        -11    1    3    3    0    0  0.18455119174E+02 -0.86383151961E+01 -0.26794805512E+02  0.33662642734E+02  0.51100000000E-03 0.  1.
         12    1    3    3    0    0 -0.14482478049E+01 -0.44366769284E+01 -0.96707345121E+00  0.47662097029E+01  0.00000000000E+00 0. -1.
</event>
<event>
 7    1  0.7596051E-010  0.4778726E+02  0.7816164E-02  0.1312668E+00
        -11   -1    0    0    0    0  0.00000000000E+00  0.00000000000E+00  0.45593999997E+02  0.45594000000E+02  0.51100000000E-03 0. -1.
         11   -1    0    0    0    0 -0.00000000000E+00 -0.00000000000E+00 -0.45593999997E+02  0.45594000000E+02  0.51100000000E-03 0.  1.
    9900012    2    1    2    0    0  0.15206628140E+01 -0.19000598075E+02 -0.38990884585E+02  0.47787260106E+02  0.19999950128E+02 0.  0.
         12    1    1    2    0    0 -0.15206628140E+01  0.19000598075E+02  0.38990884585E+02  0.43400739894E+02  0.00000000000E+00 0. -1.
         11    1    3    3    0    0  0.89752612968E+00 -0.65573034227E+01 -0.20390303280E+02  0.21437542990E+02  0.51100000000E-03 0. -1.
        -11    1    3    3    0    0  0.13698123705E+01 -0.14827443922E+02 -0.18631946197E+02  0.23851182330E+02  0.51100000000E-03 0.  1.
         12    1    3    3    0    0 -0.74667568614E+00  0.23841492696E+01  0.31364892250E-01  0.24985347859E+01  0.00000000000E+00 0. -1.
</event>
<event>
 7    1  0.7596051E-010  0.4778727E+02  0.7816164E-02  0.1312668E+00
        -11   -1    0    0    0    0  0.00000000000E+00  0.00000000000E+00  0.45593999997E+02  0.45594000000E+02  0.51100000000E-03 0. -1.
         11   -1    0    0    0    0 -0.00000000000E+00 -0.00000000000E+00 -0.45593999997E+02  0.45594000000E+02  0.51100000000E-03 0.  1.
    9900012    2    1    2    0    0  0.21683819745E+01 -0.11562530274E+02  0.41775939832E+02  0.47787272638E+02  0.20000007265E+02 0.  0.
        -12    1    1    2    0    0 -0.21683819745E+01  0.11562530274E+02 -0.41775939832E+02  0.43400727362E+02  0.00000000000E+00 0.  1.
         11    1    3    3    0    0  0.10409233323E+01  0.33346387157E+01  0.12611634668E+02  0.13086507021E+02  0.51100000000E-03 0. -1.
        -11    1    3    3    0    0  0.71816388369E+00  0.22023530597E-01  0.11724674311E+02  0.11746668990E+02  0.51100000000E-03 0.  1.
        -12    1    3    3    0    0  0.40929475856E+00 -0.14919192521E+02  0.17439630853E+02  0.22954096627E+02  0.00000000000E+00 0.  1.
</event>
<event>
 7    1  0.7596051E-010  0.4778727E+02  0.7816164E-02  0.1312668E+00
        -11   -1    0    0    0    0  0.00000000000E+00  0.00000000000E+00  0.45593999997E+02  0.45594000000E+02  0.51100000000E-03 0. -1.
         11   -1    0    0    0    0 -0.00000000000E+00 -0.00000000000E+00 -0.45593999997E+02  0.45594000000E+02  0.51100000000E-03 0.  1.
    9900012    2    1    2    0    0  0.11593925343E+02  0.93197439979E+01 -0.40771883723E+02  0.47787271488E+02  0.20000002024E+02 0.  0.
         12    1    1    2    0    0 -0.11593925343E+02 -0.93197439979E+01  0.40771883723E+02  0.43400728512E+02  0.00000000000E+00 0. -1.
         11    1    3    3    0    0  0.54639152350E+01  0.31516818480E+01 -0.86062976985E+01  0.10670324667E+02  0.51100000000E-03 0.  1.
        -11    1    3    3    0    0  0.10125089797E+01  0.62187643684E+01 -0.31298341877E+02  0.31926233871E+02  0.51100000000E-03 0. -1.
         12    1    3    3    0    0  0.51175011285E+01 -0.50702218498E-01 -0.86724414727E+00  0.51907129497E+01  0.00000000000E+00 0. -1.
</event>
<event>
 7    1  0.7596051E-010  0.4778727E+02  0.7816164E-02  0.1312668E+00
        -11   -1    0    0    0    0  0.00000000000E+00  0.00000000000E+00  0.45593999997E+02  0.45594000000E+02  0.51100000000E-03 0. -1.
         11   -1    0    0    0    0 -0.00000000000E+00 -0.00000000000E+00 -0.45593999997E+02  0.45594000000E+02  0.51100000000E-03 0.  1.
    9900012    2    1    2    0    0 -0.49073578482E+01 -0.21029327109E+02  0.37647157221E+02  0.47787271820E+02  0.20000003537E+02 0.  0.
        -12    1    1    2    0    0  0.49073578482E+01  0.21029327109E+02 -0.37647157221E+02  0.43400728180E+02  0.00000000000E+00 0.  1.
         11    1    3    3    0    0  0.20232374908E+01 -0.80917205255E+01  0.25772184988E+02  0.27088280682E+02  0.51100000000E-03 0. -1.
        -11    1    3    3    0    0 -0.80115195926E+00 -0.56922475357E+01  0.33528718928E+00  0.57581198520E+01  0.51100000000E-03 0.  1.
        -12    1    3    3    0    0 -0.61294433797E+01 -0.72453590474E+01  0.11539685044E+02  0.14940871286E+02  0.00000000000E+00 0.  1.
</event>
<event>
 7    1  0.7596051E-010  0.4778728E+02  0.7816164E-02  0.1312668E+00
        -11   -1    0    0    0    0  0.00000000000E+00  0.00000000000E+00  0.45593999997E+02  0.45594000000E+02  0.51100000000E-03 0.  1.
         11   -1    0    0    0    0 -0.00000000000E+00 -0.00000000000E+00 -0.45593999997E+02  0.45594000000E+02  0.51100000000E-03 0. -1.
    9900012    2    1    2    0    0 -0.28319072316E+02  0.24836167119E+02  0.21559618841E+02  0.47787283202E+02  0.20000055431E+02 0.  0.
        -12    1    1    2    0    0  0.28319072316E+02 -0.24836167119E+02 -0.21559618841E+02  0.43400716798E+02  0.00000000000E+00 0.  1.
         11    1    3    3    0    0 -0.15479310015E+02  0.92830443429E+01  0.12946838384E+02  0.22212712019E+02  0.51100000000E-03 0. -1.
        -11    1    3    3    0    0 -0.10674043330E+02  0.12459592157E+02  0.12138048753E+02  0.20408548834E+02  0.51100000000E-03 0.  1.
        -12    1    3    3    0    0 -0.21657189710E+01  0.30935306199E+01 -0.35252682958E+01  0.51660223494E+01  0.00000000000E+00 0.  1.
</event>
<event>
 7    1  0.7596051E-010  0.4778727E+02  0.7816164E-02  0.1312668E+00
        -11   -1    0    0    0    0  0.00000000000E+00  0.00000000000E+00  0.45593999997E+02  0.45594000000E+02  0.51100000000E-03 0. -1.
         11   -1    0    0    0    0 -0.00000000000E+00 -0.00000000000E+00 -0.45593999997E+02  0.45594000000E+02  0.51100000000E-03 0.  1.
    9900012    2    1    2    0    0  0.15077101504E+02  0.29559649648E+02  0.27973764450E+02  0.47787269884E+02  0.19999994710E+02 0.  0.
        -12    1    1    2    0    0 -0.15077101504E+02 -0.29559649648E+02 -0.27973764450E+02  0.43400730116E+02  0.00000000000E+00 0.  1.
         11    1    3    3    0    0  0.61349580062E+01  0.90444956424E+01  0.13892256783E+02  0.17675842553E+02  0.51100000000E-03 0. -1.
        -11    1    3    3    0    0  0.71063393766E+01  0.18913011359E+02  0.16932422800E+02  0.26361126686E+02  0.51100000000E-03 0.  1.
        -12    1    3    3    0    0  0.18358041208E+01  0.16021426475E+01 -0.28509151338E+01  0.37503006457E+01  0.00000000000E+00 0.  1.
</event>
<event>
 7    1  0.7596051E-010  0.4778727E+02  0.7816164E-02  0.1312668E+00
        -11   -1    0    0    0    0  0.00000000000E+00  0.00000000000E+00  0.45593999997E+02  0.45594000000E+02  0.51100000000E-03 0. -1.
         11   -1    0    0    0    0 -0.00000000000E+00 -0.00000000000E+00 -0.45593999997E+02  0.45594000000E+02  0.51100000000E-03 0.  1.
    9900012    2    1    2    0    0  0.10534457467E+02  0.15090518319E+02 -0.39305536343E+02  0.47787265853E+02  0.19999976332E+02 0.  0.
         12    1    1    2    0    0 -0.10534457467E+02 -0.15090518319E+02  0.39305536343E+02  0.43400734147E+02  0.00000000000E+00 0. -1.
         11    1    3    3    0    0  0.67040441413E+00 -0.29017342034E+01 -0.12551094601E+02  0.12899592219E+02  0.51100000000E-03 0. -1.
        -11    1    3    3    0    0 -0.15912359560E+01  0.40151384358E+01 -0.52279504901E+01  0.67812119207E+01  0.51100000000E-03 0.  1.
        -12    1    3    3    0    0  0.11455289009E+02  0.13977114087E+02 -0.21526491252E+02  0.28106461714E+02  0.00000000000E+00 0.  1.
</event>
<event>
 7    1  0.7596051E-010  0.4778728E+02  0.7816164E-02  0.1312668E+00
        -11   -1    0    0    0    0  0.00000000000E+00  0.00000000000E+00  0.45593999997E+02  0.45594000000E+02  0.51100000000E-03 0. -1.
         11   -1    0    0    0    0 -0.00000000000E+00 -0.00000000000E+00 -0.45593999997E+02  0.45594000000E+02  0.51100000000E-03 0.  1.
    9900012    2    1    2    0    0 -0.17736228122E+02  0.35037565195E+01 -0.39455950317E+02  0.47787284417E+02  0.20000060970E+02 0.  0.
         12    1    1    2    0    0  0.17736228122E+02 -0.35037565195E+01  0.39455950317E+02  0.43400715583E+02  0.00000000000E+00 0. -1.
         11    1    3    3    0    0 -0.13173271644E+02  0.75128210144E+01 -0.38507646602E+02  0.41386186253E+02  0.51100000000E-03 0.  1.
        -11    1    3    3    0    0 -0.90780116159E+00 -0.61029169217E-01  0.11402588435E+00  0.91696765041E+00  0.51100000000E-03 0. -1.
        -12    1    3    3    0    0 -0.36551553160E+01 -0.39480353257E+01 -0.10623295985E+01  0.54841305139E+01  0.00000000000E+00 0.  1.
</event>
<event>
 7    1  0.7596051E-010  0.4778726E+02  0.7816164E-02  0.1312668E+00
        -11   -1    0    0    0    0  0.00000000000E+00  0.00000000000E+00  0.45593999997E+02  0.45594000000E+02  0.51100000000E-03 0. -1.
         11   -1    0    0    0    0 -0.00000000000E+00 -0.00000000000E+00 -0.45593999997E+02  0.45594000000E+02  0.51100000000E-03 0.  1.
    9900012    2    1    2    0    0 -0.41475109108E+02 -0.35767814083E+01 -0.12273788337E+02  0.47787263590E+02  0.19999966014E+02 0.  0.
         12    1    1    2    0    0  0.41475109108E+02  0.35767814083E+01  0.12273788337E+02  0.43400736410E+02  0.00000000000E+00 0. -1.
         11    1    3    3    0    0 -0.52275412891E+01 -0.41624675779E+01 -0.32269166994E+01  0.74206681581E+01  0.51100000000E-03 0. -1.
        -11    1    3    3    0    0 -0.35918591819E+02 -0.22358707811E+01 -0.10031570204E+02  0.37360095790E+02  0.51100000000E-03 0.  1.
         12    1    3    3    0    0 -0.32897600007E+00  0.28215569507E+01  0.98469856639E+00  0.30064996427E+01  0.00000000000E+00 0. -1.
</event>
<event>
 7    1  0.7596051E-010  0.4778726E+02  0.7816164E-02  0.1312668E+00
        -11   -1    0    0    0    0  0.00000000000E+00  0.00000000000E+00  0.45593999997E+02  0.45594000000E+02  0.51100000000E-03 0. -1.
         11   -1    0    0    0    0 -0.00000000000E+00 -0.00000000000E+00 -0.45593999997E+02  0.45594000000E+02  0.51100000000E-03 0.  1.
    9900012    2    1    2    0    0  0.12356396348E+02 -0.27510654298E+01  0.41513554900E+02  0.47787261156E+02  0.19999954916E+02 0.  0.
        -12    1    1    2    0    0 -0.12356396348E+02  0.27510654298E+01 -0.41513554900E+02  0.43400738844E+02  0.00000000000E+00 0.  1.
         11    1    3    3    0    0 -0.21567887669E+01 -0.57934502201E+00  0.40188773859E+00  0.22691171091E+01  0.51100000000E-03 0. -1.
        -11    1    3    3    0    0  0.12483208266E+01 -0.20074496789E+01  0.47553791281E-01  0.23644070554E+01  0.51100000000E-03 0.  1.
         12    1    3    3    0    0  0.13264864288E+02 -0.16427072891E+00  0.41064113371E+02  0.43153736992E+02  0.00000000000E+00 0. -1.
</event>
<event>
 7    1  0.7596051E-010  0.4778727E+02  0.7816164E-02  0.1312668E+00
        -11   -1    0    0    0    0  0.00000000000E+00  0.00000000000E+00  0.45593999997E+02  0.45594000000E+02  0.51100000000E-03 0. -1.
         11   -1    0    0    0    0 -0.00000000000E+00 -0.00000000000E+00 -0.45593999997E+02  0.45594000000E+02  0.51100000000E-03 0.  1.
    9900012    2    1    2    0    0  0.33099793418E+02  0.25647917715E+02 -0.11411014709E+02  0.47787271157E+02  0.20000000512E+02 0.  0.
         12    1    1    2    0    0 -0.33099793418E+02 -0.25647917715E+02  0.11411014709E+02  0.43400728843E+02  0.00000000000E+00 0. -1.
         11    1    3    3    0    0  0.13745409949E+01  0.24055789276E+01 -0.27098626094E+01  0.38755036507E+01  0.51100000000E-03 0. -1.
        -11    1    3    3    0    0  0.32433693236E+02  0.20047736807E+02 -0.11260593307E+02  0.39757479421E+02  0.51100000000E-03 0.  1.
        -12    1    3    3    0    0 -0.70844081302E+00  0.31946019811E+01  0.25594412074E+01  0.41542880855E+01  0.00000000000E+00 0.  1.
</event>
<event>
 7    1  0.9692458E-010  0.4778727E+02  0.7816164E-02  0.1312668E+00
        -11   -1    0    0    0    0  0.00000000000E+00  0.00000000000E+00  0.45593999997E+02  0.45594000000E+02  0.51100000000E-03 0. -1.
         11   -1    0    0    0    0 -0.00000000000E+00 -0.00000000000E+00 -0.45593999997E+02  0.45594000000E+02  0.51100000000E-03 0.  1.
    9900012    2    1    2    0    0  0.11374378198E+02  0.22358329173E+02  0.35416829416E+02  0.47787272257E+02  0.20000005526E+02 0.  0.
        -12    1    1    2    0    0 -0.11374378198E+02 -0.22358329173E+02 -0.35416829416E+02  0.43400727743E+02  0.00000000000E+00 0.  1.
         11    1    3    3    0    0 -0.19709362175E+01  0.63414944117E+01  0.46357147090E+01  0.80987031105E+01  0.51100000000E-03 0. -1.
        -11    1    3    3    0    0  0.45218285690E+01 -0.32865080151E+00  0.10852762446E+01  0.46618418833E+01  0.51100000000E-03 0.  1.
         12    1    3    3    0    0  0.88234858468E+01  0.16345485563E+02  0.29695838462E+02  0.35026727263E+02  0.00000000000E+00 0. -1.
</event>
<event>
 7    1  0.7596051E-010  0.4778727E+02  0.7816164E-02  0.1312668E+00
        -11   -1    0    0    0    0  0.00000000000E+00  0.00000000000E+00  0.45593999997E+02  0.45594000000E+02  0.51100000000E-03 0. -1.
         11   -1    0    0    0    0 -0.00000000000E+00 -0.00000000000E+00 -0.45593999997E+02  0.45594000000E+02  0.51100000000E-03 0.  1.
    9900012    2    1    2    0    0 -0.16351042302E+02  0.29741027086E+02 -0.27050657264E+02  0.47787270341E+02  0.19999996793E+02 0.  0.
         12    1    1    2    0    0  0.16351042302E+02 -0.29741027086E+02  0.27050657264E+02  0.43400729659E+02  0.00000000000E+00 0. -1.
         11    1    3    3    0    0 -0.50593901845E+01  0.71317659192E+01 -0.31486571471E+01  0.92937374751E+01  0.51100000000E-03 0.  1.
        -11    1    3    3    0    0 -0.93964338414E+01  0.24190439654E+01 -0.98179563558E+01  0.13803514404E+02  0.51100000000E-03 0. -1.
         12    1    3    3    0    0 -0.18952182758E+01  0.20190217202E+02 -0.14084043761E+02  0.24690018462E+02  0.00000000000E+00 0. -1.
</event>
<event>
 7    1  0.7596051E-010  0.4778728E+02  0.7816164E-02  0.1312668E+00
        -11   -1    0    0    0    0  0.00000000000E+00  0.00000000000E+00  0.45593999997E+02  0.45594000000E+02  0.51100000000E-03 0.  1.
         11   -1    0    0    0    0 -0.00000000000E+00 -0.00000000000E+00 -0.45593999997E+02  0.45594000000E+02  0.51100000000E-03 0. -1.
    9900012    2    1    2    0    0  0.39707044257E+02  0.17185882028E+02 -0.34086219068E+01  0.47787278716E+02  0.20000034977E+02 0.  0.
         12    1    1    2    0    0 -0.39707044257E+02 -0.17185882028E+02  0.34086219068E+01  0.43400721284E+02  0.00000000000E+00 0. -1.
         11    1    3    3    0    0  0.26822682669E+01  0.34323300558E+01 -0.12644575801E+01  0.45358908607E+01  0.51100000000E-03 0.  1.
        -11    1    3    3    0    0  0.50533663476E+01  0.42772543474E+01  0.59891994233E+01  0.89275935273E+01  0.51100000000E-03 0. -1.
         12    1    3    3    0    0  0.31971409642E+02  0.94762976244E+01 -0.81333637499E+01  0.34323794328E+02  0.00000000000E+00 0. -1.
</event>
<event>
 7    1  0.1069942E-009  0.4778725E+02  0.7816164E-02  0.1312668E+00
        -11   -1    0    0    0    0  0.00000000000E+00  0.00000000000E+00  0.45593999997E+02  0.45594000000E+02  0.51100000000E-03 0. -1.
         11   -1    0    0    0    0 -0.00000000000E+00 -0.00000000000E+00 -0.45593999997E+02  0.45594000000E+02  0.51100000000E-03 0.  1.
    9900012    2    1    2    0    0 -0.39008502177E+01  0.25216649205E+02  0.35107387458E+02  0.47787254802E+02  0.19999925946E+02 0.  0.
        -12    1    1    2    0    0  0.39008502177E+01 -0.25216649205E+02 -0.35107387458E+02  0.43400745198E+02  0.00000000000E+00 0.  1.
         11    1    3    3    0    0 -0.33458699990E+00  0.66552683672E+01  0.11894813749E+01  0.67690037452E+01  0.51100000000E-03 0. -1.
        -11    1    3    3    0    0  0.36911228686E+00 -0.17784683528E+01  0.87083877503E+00  0.20143371107E+01  0.51100000000E-03 0.  1.
         12    1    3    3    0    0 -0.39353755047E+01  0.20339849190E+02  0.33047067309E+02  0.39003913947E+02  0.00000000000E+00 0. -1.
</event>
<event>
 7    1  0.7596051E-010  0.4778727E+02  0.7816164E-02  0.1312668E+00
        -11   -1    0    0    0    0  0.00000000000E+00  0.00000000000E+00  0.45593999997E+02  0.45594000000E+02  0.51100000000E-03 0. -1.
         11   -1    0    0    0    0 -0.00000000000E+00 -0.00000000000E+00 -0.45593999997E+02  0.45594000000E+02  0.51100000000E-03 0.  1.
    9900012    2    1    2    0    0  0.46367645433E+01  0.25097223096E+02  0.35103459191E+02  0.47787273742E+02  0.20000012297E+02 0.  0.
        -12    1    1    2    0    0 -0.46367645433E+01 -0.25097223096E+02 -0.35103459191E+02  0.43400726258E+02  0.00000000000E+00 0.  1.
         11    1    3    3    0    0 -0.13724813412E+00  0.69024345461E+00  0.44529804738E-01  0.70516398205E+00  0.51100000000E-03 0. -1.
        -11    1    3    3    0    0  0.49422172869E+01  0.75464963630E+00  0.26075281983E+00  0.50062960439E+01  0.51100000000E-03 0.  1.
         12    1    3    3    0    0 -0.16820460951E+00  0.23652330005E+02  0.34798176567E+02  0.42075813716E+02  0.00000000000E+00 0. -1.
</event>
<event>
 7    1  0.7596051E-010  0.4778727E+02  0.7816164E-02  0.1312668E+00
        -11   -1    0    0    0    0  0.00000000000E+00  0.00000000000E+00  0.45593999997E+02  0.45594000000E+02  0.51100000000E-03 0. -1.
         11   -1    0    0    0    0 -0.00000000000E+00 -0.00000000000E+00 -0.45593999997E+02  0.45594000000E+02  0.51100000000E-03 0.  1.
    9900012    2    1    2    0    0  0.32085395916E+01 -0.21717846776E+01  0.43227443687E+02  0.47787271173E+02  0.20000000587E+02 0.  0.
        -12    1    1    2    0    0 -0.32085395916E+01  0.21717846776E+01 -0.43227443687E+02  0.43400728827E+02  0.00000000000E+00 0.  1.
         11    1    3    3    0    0  0.69977525260E+01 -0.35652075525E+01  0.20979537544E+02  0.22401344628E+02  0.51100000000E-03 0. -1.
        -11    1    3    3    0    0  0.22945375577E+01  0.14946767276E+01  0.47563619744E+00  0.27794228136E+01  0.51100000000E-03 0.  1.
        -12    1    3    3    0    0 -0.60837504921E+01 -0.10125385265E+00  0.21772269946E+02  0.22606503732E+02  0.00000000000E+00 0.  1.
</event>
<event>
 7    1  0.7596051E-010  0.4778727E+02  0.7816164E-02  0.1312668E+00
        -11   -1    0    0    0    0  0.00000000000E+00  0.00000000000E+00  0.45593999997E+02  0.45594000000E+02  0.51100000000E-03 0. -1.
         11   -1    0    0    0    0 -0.00000000000E+00 -0.00000000000E+00 -0.45593999997E+02  0.45594000000E+02  0.51100000000E-03 0.  1.
    9900012    2    1    2    0    0 -0.23392178266E+02  0.21244453601E+02  0.29750667936E+02  0.47787273561E+02  0.20000011474E+02 0.  0.
        -12    1    1    2    0    0  0.23392178266E+02 -0.21244453601E+02 -0.29750667936E+02  0.43400726439E+02  0.00000000000E+00 0.  1.
         11    1    3    3    0    0 -0.12352359420E+02  0.14692899512E+02  0.11069757297E+02  0.22158556050E+02  0.51100000000E-03 0. -1.
        -11    1    3    3    0    0 -0.15553757058E+01  0.62793197010E+01  0.26304152921E+01  0.69834185299E+01  0.51100000000E-03 0.  1.
        -12    1    3    3    0    0 -0.94844431403E+01  0.27223438720E+00  0.16050495346E+02  0.18645298981E+02  0.00000000000E+00 0.  1.
</event>
<event>
 7    1  0.7596051E-010  0.4778727E+02  0.7816164E-02  0.1312668E+00
        -11   -1    0    0    0    0  0.00000000000E+00  0.00000000000E+00  0.45593999997E+02  0.45594000000E+02  0.51100000000E-03 0. -1.
         11   -1    0    0    0    0 -0.00000000000E+00 -0.00000000000E+00 -0.45593999997E+02  0.45594000000E+02  0.51100000000E-03 0.  1.
    9900012    2    1    2    0    0 -0.18450650119E+02 -0.29779520057E+02 -0.25619855213E+02  0.47787270907E+02  0.19999999375E+02 0.  0.
         12    1    1    2    0    0  0.18450650119E+02  0.29779520057E+02  0.25619855213E+02  0.43400729093E+02  0.00000000000E+00 0. -1.
         11    1    3    3    0    0 -0.95866971870E+01 -0.54457540033E+01 -0.14440844708E+02  0.18168626689E+02  0.51100000000E-03 0. -1.
        -11    1    3    3    0    0  0.10960715756E+01 -0.88477747549E+00 -0.21876998142E+01  0.26019674898E+01  0.51100000000E-03 0.  1.
        -12    1    3    3    0    0 -0.99600245076E+01 -0.23448988578E+02 -0.89913106912E+01  0.27016676729E+02  0.00000000000E+00 0.  1.
</event>
<event>
 7    1  0.7596051E-010  0.4778727E+02  0.7816164E-02  0.1312668E+00
        -11   -1    0    0    0    0  0.00000000000E+00  0.00000000000E+00  0.45593999997E+02  0.45594000000E+02  0.51100000000E-03 0. -1.
         11   -1    0    0    0    0 -0.00000000000E+00 -0.00000000000E+00 -0.45593999997E+02  0.45594000000E+02  0.51100000000E-03 0.  1.
    9900012    2    1    2    0    0 -0.24263280074E+02 -0.26958912222E+02  0.23835553067E+02  0.47787270765E+02  0.19999998725E+02 0.  0.
        -12    1    1    2    0    0  0.24263280074E+02  0.26958912222E+02 -0.23835553067E+02  0.43400729235E+02  0.00000000000E+00 0.  1.
         11    1    3    3    0    0 -0.11405031504E+02 -0.48563582535E+01  0.71792400891E+01  0.14324819287E+02  0.51100000000E-03 0. -1.
        -11    1    3    3    0    0 -0.10064685361E+02 -0.70827106516E+01  0.23440552859E+01  0.12528259138E+02  0.51100000000E-03 0.  1.
         12    1    3    3    0    0 -0.27935632091E+01 -0.15019843317E+02  0.14312257692E+02  0.20934192340E+02  0.00000000000E+00 0. -1.
</event>
<event>
 7    1  0.7596051E-010  0.4778726E+02  0.7816164E-02  0.1312668E+00
        -11   -1    0    0    0    0  0.00000000000E+00  0.00000000000E+00  0.45593999997E+02  0.45594000000E+02  0.51100000000E-03 0. -1.
         11   -1    0    0    0    0 -0.00000000000E+00 -0.00000000000E+00 -0.45593999997E+02  0.45594000000E+02  0.51100000000E-03 0.  1.
    9900012    2    1    2    0    0  0.38761013428E+02 -0.15273280145E+01 -0.19464709803E+02  0.47787264746E+02  0.19999971284E+02 0.  0.
         12    1    1    2    0    0 -0.38761013428E+02  0.15273280145E+01  0.19464709803E+02  0.43400735254E+02  0.00000000000E+00 0. -1.
         11    1    3    3    0    0  0.81572184697E+01 -0.11248463603E+01  0.27838899918E+01  0.86922687628E+01  0.51100000000E-03 0. -1.
        -11    1    3    3    0    0  0.46207544866E+01 -0.33070074502E+01 -0.62346709281E+01  0.84355670908E+01  0.51100000000E-03 0.  1.
        -12    1    3    3    0    0  0.25983040472E+02  0.29045257961E+01 -0.16013928867E+02  0.30659428893E+02  0.00000000000E+00 0.  1.
</event>
<event>
 7    1  0.7596051E-010  0.4778727E+02  0.7816164E-02  0.1312668E+00
        -11   -1    0    0    0    0  0.00000000000E+00  0.00000000000E+00  0.45593999997E+02  0.45594000000E+02  0.51100000000E-03 0. -1.
         11   -1    0    0    0    0 -0.00000000000E+00 -0.00000000000E+00 -0.45593999997E+02  0.45594000000E+02  0.51100000000E-03 0.  1.
    9900012    2    1    2    0    0 -0.13025910086E+02  0.28556621770E+01 -0.41301258456E+02  0.47787273162E+02  0.20000009654E+02 0.  0.
         12    1    1    2    0    0  0.13025910086E+02 -0.28556621770E+01  0.41301258456E+02  0.43400726838E+02  0.00000000000E+00 0. -1.
         11    1    3    3    0    0 -0.20385923758E+01  0.21665177494E+00  0.20698482832E+00  0.20604950489E+01  0.51100000000E-03 0. -1.
        -11    1    3    3    0    0 -0.14913716296E+02  0.18820940279E+01 -0.30240343198E+02  0.33770394855E+02  0.51100000000E-03 0.  1.
        -12    1    3    3    0    0  0.39263985859E+01  0.75691637416E+00 -0.11267900087E+02  0.11956383258E+02  0.00000000000E+00 0.  1.
</event>
<event>
 7    1  0.7596051E-010  0.4778727E+02  0.7816164E-02  0.1312668E+00
        -11   -1    0    0    0    0  0.00000000000E+00  0.00000000000E+00  0.45593999997E+02  0.45594000000E+02  0.51100000000E-03 0. -1.
         11   -1    0    0    0    0 -0.00000000000E+00 -0.00000000000E+00 -0.45593999997E+02  0.45594000000E+02  0.51100000000E-03 0.  1.
    9900012    2    1    2    0    0 -0.25733288071E+01  0.56801740268E+01  0.42950401250E+02  0.47787269987E+02  0.19999995180E+02 0.  0.
        -12    1    1    2    0    0  0.25733288071E+01 -0.56801740268E+01 -0.42950401250E+02  0.43400730013E+02  0.00000000000E+00 0.  1.
         11    1    3    3    0    0  0.37169315839E+00  0.22016975993E+01  0.17147015966E+02  0.17291783741E+02  0.51100000000E-03 0. -1.
        -11    1    3    3    0    0 -0.22540322295E+01  0.31269714635E+01  0.27949281708E+02  0.28213843412E+02  0.51100000000E-03 0.  1.
        -12    1    3    3    0    0 -0.69098973592E+00  0.35150496399E+00 -0.21458964252E+01  0.22816428341E+01  0.00000000000E+00 0.  1.
</event>
<event>
 7    1  0.7596051E-010  0.4778727E+02  0.7816164E-02  0.1312668E+00
        -11   -1    0    0    0    0  0.00000000000E+00  0.00000000000E+00  0.45593999997E+02  0.45594000000E+02  0.51100000000E-03 0. -1.
         11   -1    0    0    0    0 -0.00000000000E+00 -0.00000000000E+00 -0.45593999997E+02  0.45594000000E+02  0.51100000000E-03 0.  1.
    9900012    2    1    2    0    0 -0.15683637215E+02 -0.16919060467E+02 -0.36761286241E+02  0.47787271326E+02  0.20000001282E+02 0.  0.
         12    1    1    2    0    0  0.15683637215E+02  0.16919060467E+02  0.36761286241E+02  0.43400728674E+02  0.00000000000E+00 0. -1.
         11    1    3    3    0    0  0.20647584032E+01 -0.75109001068E+01 -0.98349259800E+01  0.12546019965E+02  0.51100000000E-03 0. -1.
        -11    1    3    3    0    0 -0.75217605089E+01 -0.84207420003E+01 -0.84585966785E+01  0.14107928091E+02  0.51100000000E-03 0.  1.
        -12    1    3    3    0    0 -0.10226635109E+02 -0.98741835979E+00 -0.18467763583E+02  0.21133323269E+02  0.00000000000E+00 0.  1.
</event>
<event>
 7    1  0.7596051E-010  0.4778726E+02  0.7816164E-02  0.1312668E+00
        -11   -1    0    0    0    0  0.00000000000E+00  0.00000000000E+00  0.45593999997E+02  0.45594000000E+02  0.51100000000E-03 0. -1.
         11   -1    0    0    0    0 -0.00000000000E+00 -0.00000000000E+00 -0.45593999997E+02  0.45594000000E+02  0.51100000000E-03 0.  1.
    9900012    2    1    2    0    0  0.12689946144E+02  0.26160697458E+02 -0.32221231931E+02  0.47787255631E+02  0.19999929725E+02 0.  0.
         12    1    1    2    0    0 -0.12689946144E+02 -0.26160697458E+02  0.32221231931E+02  0.43400744369E+02  0.00000000000E+00 0. -1.
         11    1    3    3    0    0  0.45200432838E+01  0.36815517456E+01 -0.11052995864E+00  0.58306802069E+01  0.51100000000E-03 0. -1.
        -11    1    3    3    0    0  0.10302061049E+02  0.17649520379E+02 -0.19335894751E+02  0.28133873845E+02  0.51100000000E-03 0.  1.
        -12    1    3    3    0    0 -0.21321581889E+01  0.48296253336E+01 -0.12774807221E+02  0.13822701579E+02  0.00000000000E+00 0.  1.
</event>
<event>
 7    1  0.7596051E-010  0.4778727E+02  0.7816164E-02  0.1312668E+00
        -11   -1    0    0    0    0  0.00000000000E+00  0.00000000000E+00  0.45593999997E+02  0.45594000000E+02  0.51100000000E-03 0. -1.
         11   -1    0    0    0    0 -0.00000000000E+00 -0.00000000000E+00 -0.45593999997E+02  0.45594000000E+02  0.51100000000E-03 0.  1.
    9900012    2    1    2    0    0 -0.19712942512E+02  0.30440087611E+01 -0.38545520343E+02  0.47787271547E+02  0.20000002289E+02 0.  0.
         12    1    1    2    0    0  0.19712942512E+02 -0.30440087611E+01  0.38545520343E+02  0.43400728453E+02  0.00000000000E+00 0. -1.
         11    1    3    3    0    0 -0.34122044404E+01 -0.25334066554E+01 -0.16209397640E+02  0.16757262919E+02  0.51100000000E-03 0. -1.
        -11    1    3    3    0    0  0.53592534187E+00 -0.23614384991E+01 -0.76886905170E+00  0.25406234741E+01  0.51100000000E-03 0.  1.
         12    1    3    3    0    0 -0.16836663413E+02  0.79388539156E+01 -0.21567253651E+02  0.28489385153E+02  0.00000000000E+00 0. -1.
</event>
<event>
 7    1  0.7596051E-010  0.4778725E+02  0.7816164E-02  0.1312668E+00
        -11   -1    0    0    0    0  0.00000000000E+00  0.00000000000E+00  0.45593999997E+02  0.45594000000E+02  0.51100000000E-03 0. -1.
         11   -1    0    0    0    0 -0.00000000000E+00 -0.00000000000E+00 -0.45593999997E+02  0.45594000000E+02  0.51100000000E-03 0.  1.
    9900012    2    1    2    0    0 -0.30146337294E+02  0.24224243858E+02 -0.19697944911E+02  0.47787254886E+02  0.19999926327E+02 0.  0.
         12    1    1    2    0    0  0.30146337294E+02 -0.24224243858E+02  0.19697944911E+02  0.43400745114E+02  0.00000000000E+00 0. -1.
         11    1    3    3    0    0 -0.10456958676E+01  0.86074156220E+01 -0.38913077093E+01  0.95038602413E+01  0.51100000000E-03 0.  1.
        -11    1    3    3    0    0 -0.11905724973E+02  0.10122701925E+02 -0.12317039882E+02  0.19897860516E+02  0.51100000000E-03 0. -1.
        -12    1    3    3    0    0 -0.17194916453E+02  0.54941263116E+01 -0.34895973196E+01  0.18385534129E+02  0.00000000000E+00 0.  1.
</event>
<event>
 7    1  0.7596051E-010  0.4778727E+02  0.7816164E-02  0.1312668E+00
        -11   -1    0    0    0    0  0.00000000000E+00  0.00000000000E+00  0.45593999997E+02  0.45594000000E+02  0.51100000000E-03 0.  1.
         11   -1    0    0    0    0 -0.00000000000E+00 -0.00000000000E+00 -0.45593999997E+02  0.45594000000E+02  0.51100000000E-03 0. -1.
    9900012    2    1    2    0    0 -0.21143556048E+02  0.34778486494E+02  0.15067523349E+02  0.47787270224E+02  0.19999996261E+02 0.  0.
        -12    1    1    2    0    0  0.21143556048E+02 -0.34778486494E+02 -0.15067523349E+02  0.43400729776E+02  0.00000000000E+00 0.  1.
         11    1    3    3    0    0 -0.36647572679E+01  0.17610811293E+02  0.84144924808E+01  0.19858872178E+02  0.51100000000E-03 0. -1.
        -11    1    3    3    0    0 -0.11303727166E+02  0.16666056204E+02  0.21146274288E+01  0.20248538878E+02  0.51100000000E-03 0.  1.
        -12    1    3    3    0    0 -0.61750716142E+01  0.50161899642E+00  0.45384034399E+01  0.76798591681E+01  0.00000000000E+00 0.  1.
</event>
<event>
 7    1  0.7596051E-010  0.4778727E+02  0.7816164E-02  0.1312668E+00
        -11   -1    0    0    0    0  0.00000000000E+00  0.00000000000E+00  0.45593999997E+02  0.45594000000E+02  0.51100000000E-03 0. -1.
         11   -1    0    0    0    0 -0.00000000000E+00 -0.00000000000E+00 -0.45593999997E+02  0.45594000000E+02  0.51100000000E-03 0.  1.
    9900012    2    1    2    0    0  0.13061370425E+02  0.28017366466E+02 -0.30463929929E+02  0.47787271345E+02  0.20000001369E+02 0.  0.
         12    1    1    2    0    0 -0.13061370425E+02 -0.28017366466E+02  0.30463929929E+02  0.43400728655E+02  0.00000000000E+00 0. -1.
         11    1    3    3    0    0 -0.30940365566E+01  0.89565953086E+01 -0.71936251799E+01  0.11897138531E+02  0.51100000000E-03 0. -1.
        -11    1    3    3    0    0  0.86262696165E+01  0.83664198522E+01 -0.18311975605E+02  0.21902921254E+02  0.51100000000E-03 0.  1.
         12    1    3    3    0    0  0.75291373652E+01  0.10694351305E+02 -0.49583291442E+01  0.13987211559E+02  0.00000000000E+00 0. -1.
</event>
<event>
 7    1  0.7596051E-010  0.4778727E+02  0.7816164E-02  0.1312668E+00
        -11   -1    0    0    0    0  0.00000000000E+00  0.00000000000E+00  0.45593999997E+02  0.45594000000E+02  0.51100000000E-03 0. -1.
         11   -1    0    0    0    0 -0.00000000000E+00 -0.00000000000E+00 -0.45593999997E+02  0.45594000000E+02  0.51100000000E-03 0.  1.
    9900012    2    1    2    0    0  0.84826162744E+01  0.27735554849E+01  0.42473239583E+02  0.47787268790E+02  0.19999989720E+02 0.  0.
        -12    1    1    2    0    0 -0.84826162744E+01 -0.27735554849E+01 -0.42473239583E+02  0.43400731210E+02  0.00000000000E+00 0.  1.
         11    1    3    3    0    0  0.95881697378E+01 -0.57386312828E+00  0.38154909887E+02  0.39345386853E+02  0.51100000000E-03 0. -1.
        -11    1    3    3    0    0  0.25801894731E+01  0.10333079556E+01  0.94522995840E+00  0.29357389161E+01  0.51100000000E-03 0.  1.
         12    1    3    3    0    0 -0.36857429365E+01  0.23141106576E+01  0.33730997376E+01  0.55061430212E+01  0.00000000000E+00 0. -1.
</event>
<event>
 7    1  0.7596051E-010  0.4778727E+02  0.7816164E-02  0.1312668E+00
        -11   -1    0    0    0    0  0.00000000000E+00  0.00000000000E+00  0.45593999997E+02  0.45594000000E+02  0.51100000000E-03 0.  1.
         11   -1    0    0    0    0 -0.00000000000E+00 -0.00000000000E+00 -0.45593999997E+02  0.45594000000E+02  0.51100000000E-03 0. -1.
    9900012    2    1    2    0    0 -0.20778453845E+02  0.17927726583E+02  0.33622546790E+02  0.47787272158E+02  0.20000005075E+02 0.  0.
        -12    1    1    2    0    0  0.20778453845E+02 -0.17927726583E+02 -0.33622546790E+02  0.43400727842E+02  0.00000000000E+00 0.  1.
         11    1    3    3    0    0 -0.37151022931E+01  0.96108514014E+01  0.20822426134E+02  0.23232388600E+02  0.51100000000E-03 0. -1.
        -11    1    3    3    0    0 -0.53887925578E-01  0.15882573188E+01 -0.78259508330E+00  0.17714176652E+01  0.51100000000E-03 0.  1.
         12    1    3    3    0    0 -0.17009463627E+02  0.67286178626E+01  0.13582715739E+02  0.22783465892E+02  0.00000000000E+00 0. -1.
</event>
<event>
 7    1  0.7596051E-010  0.4778727E+02  0.7816164E-02  0.1312668E+00
        -11   -1    0    0    0    0  0.00000000000E+00  0.00000000000E+00  0.45593999997E+02  0.45594000000E+02  0.51100000000E-03 0. -1.
         11   -1    0    0    0    0 -0.00000000000E+00 -0.00000000000E+00 -0.45593999997E+02  0.45594000000E+02  0.51100000000E-03 0.  1.
    9900012    2    1    2    0    0 -0.19392492416E+02 -0.37257800651E+02  0.10927517905E+02  0.47787272828E+02  0.20000008132E+02 0.  0.
        -12    1    1    2    0    0  0.19392492416E+02  0.37257800651E+02 -0.10927517905E+02  0.43400727172E+02  0.00000000000E+00 0.  1.
         11    1    3    3    0    0 -0.15130787679E+01 -0.85924622201E+00 -0.26154161828E+01  0.31413553600E+01  0.51100000000E-03 0. -1.
        -11    1    3    3    0    0  0.80525845293E-01 -0.20048062416E+00  0.28341227641E+01  0.28423456854E+01  0.51100000000E-03 0.  1.
         12    1    3    3    0    0 -0.17959939493E+02 -0.36198073805E+02  0.10708811324E+02  0.41803571783E+02  0.00000000000E+00 0. -1.
</event>
<event>
 7    1  0.7596051E-010  0.4778727E+02  0.7816164E-02  0.1312668E+00
        -11   -1    0    0    0    0  0.00000000000E+00  0.00000000000E+00  0.45593999997E+02  0.45594000000E+02  0.51100000000E-03 0.  1.
         11   -1    0    0    0    0 -0.00000000000E+00 -0.00000000000E+00 -0.45593999997E+02  0.45594000000E+02  0.51100000000E-03 0. -1.
    9900012    2    1    2    0    0 -0.16959050771E+02  0.29135281505E+02  0.27334031592E+02  0.47787270577E+02  0.19999997867E+02 0.  0.
        -12    1    1    2    0    0  0.16959050771E+02 -0.29135281505E+02 -0.27334031592E+02  0.43400729423E+02  0.00000000000E+00 0.  1.
         11    1    3    3    0    0 -0.19098621379E+00  0.44249315861E+01  0.16661740950E+01  0.47320853386E+01  0.51100000000E-03 0. -1.
        -11    1    3    3    0    0  0.34500579451E+01  0.37553174825E+01  0.62023414041E+01  0.80295920428E+01  0.51100000000E-03 0.  1.
         12    1    3    3    0    0 -0.20218122502E+02  0.20955032436E+02  0.19465516093E+02  0.35025593195E+02  0.00000000000E+00 0. -1.
</event>
<event>
 7    1  0.7606056E-010  0.4778727E+02  0.7816164E-02  0.1312668E+00
        -11   -1    0    0    0    0  0.00000000000E+00  0.00000000000E+00  0.45593999997E+02  0.45594000000E+02  0.51100000000E-03 0. -1.
         11   -1    0    0    0    0 -0.00000000000E+00 -0.00000000000E+00 -0.45593999997E+02  0.45594000000E+02  0.51100000000E-03 0.  1.
    9900012    2    1    2    0    0 -0.22579191224E+02 -0.18066649035E+02  0.32363549436E+02  0.47787274018E+02  0.20000013556E+02 0.  0.
        -12    1    1    2    0    0  0.22579191224E+02  0.18066649035E+02 -0.32363549436E+02  0.43400725982E+02  0.00000000000E+00 0.  1.
         11    1    3    3    0    0 -0.39957362634E+00  0.36216048498E+01  0.28730711310E+01  0.46400666758E+01  0.51100000000E-03 0. -1.
        -11    1    3    3    0    0 -0.54618632149E+01 -0.68032205888E+01  0.53894403007E+01  0.10254844083E+02  0.51100000000E-03 0.  1.
         12    1    3    3    0    0 -0.16717754383E+02 -0.14885033296E+02  0.24101038005E+02  0.32892363258E+02  0.00000000000E+00 0. -1.
</event>
<event>
 7    1  0.7596051E-010  0.4778727E+02  0.7816164E-02  0.1312668E+00
        -11   -1    0    0    0    0  0.00000000000E+00  0.00000000000E+00  0.45593999997E+02  0.45594000000E+02  0.51100000000E-03 0.  1.
         11   -1    0    0    0    0 -0.00000000000E+00 -0.00000000000E+00 -0.45593999997E+02  0.45594000000E+02  0.51100000000E-03 0. -1.
    9900012    2    1    2    0    0 -0.15420938450E+02 -0.32900958165E+02  0.23734888037E+02  0.47787270732E+02  0.19999998574E+02 0.  0.
        -12    1    1    2    0    0  0.15420938450E+02  0.32900958165E+02 -0.23734888037E+02  0.43400729268E+02  0.00000000000E+00 0.  1.
         11    1    3    3    0    0 -0.91020657990E+01 -0.62430186927E+01  0.91846577541E+01  0.14358997964E+02  0.51100000000E-03 0. -1.
        -11    1    3    3    0    0  0.12633287637E+01  0.72945720017E+00  0.17006283348E+01  0.22405901826E+01  0.51100000000E-03 0.  1.
         12    1    3    3    0    0 -0.75822014148E+01 -0.27387396673E+02  0.12849601949E+02  0.31187682585E+02  0.00000000000E+00 0. -1.
</event>
<event>
 7    1  0.7596051E-010  0.4778727E+02  0.7816164E-02  0.1312668E+00
        -11   -1    0    0    0    0  0.00000000000E+00  0.00000000000E+00  0.45593999997E+02  0.45594000000E+02  0.51100000000E-03 0. -1.
         11   -1    0    0    0    0 -0.00000000000E+00 -0.00000000000E+00 -0.45593999997E+02  0.45594000000E+02  0.51100000000E-03 0.  1.
    9900012    2    1    2    0    0 -0.39585955422E+01  0.33480830642E+02 -0.27331060915E+02  0.47787269708E+02  0.19999993908E+02 0.  0.
         12    1    1    2    0    0  0.39585955422E+01 -0.33480830642E+02  0.27331060915E+02  0.43400730292E+02  0.00000000000E+00 0. -1.
         11    1    3    3    0    0  0.30190147010E+01  0.78529854260E+01 -0.67910820555E+01  0.10812151757E+02  0.51100000000E-03 0. -1.
        -11    1    3    3    0    0 -0.59324899828E+01  0.25618043618E+02 -0.12946858321E+02  0.29310403219E+02  0.51100000000E-03 0.  1.
        -12    1    3    3    0    0 -0.10451202603E+01  0.98015982824E-02 -0.75931205381E+01  0.76647147329E+01  0.00000000000E+00 0.  1.
</event>
<event>
 7    1  0.7596051E-010  0.4778726E+02  0.7816164E-02  0.1312668E+00
        -11   -1    0    0    0    0  0.00000000000E+00  0.00000000000E+00  0.45593999997E+02  0.45594000000E+02  0.51100000000E-03 0. -1.
         11   -1    0    0    0    0 -0.00000000000E+00 -0.00000000000E+00 -0.45593999997E+02  0.45594000000E+02  0.51100000000E-03 0.  1.
    9900012    2    1    2    0    0 -0.12931651332E+02 -0.28484115404E+01  0.41331378914E+02  0.47787263400E+02  0.19999965147E+02 0.  0.
        -12    1    1    2    0    0  0.12931651332E+02  0.28484115404E+01 -0.41331378914E+02  0.43400736600E+02  0.00000000000E+00 0.  1.
         11    1    3    3    0    0 -0.44113125342E+01  0.45458237139E+00  0.14796718933E+02  0.15446980768E+02  0.51100000000E-03 0. -1.
        -11    1    3    3    0    0  0.72589033817E+00  0.23190285657E+01  0.18998830327E+02  0.19153599253E+02  0.51100000000E-03 0.  1.
         12    1    3    3    0    0 -0.92462291362E+01 -0.56220224774E+01  0.75358296536E+01  0.13186683379E+02  0.00000000000E+00 0. -1.
</event>
<event>
 7    1  0.7596051E-010  0.4778728E+02  0.7816164E-02  0.1312668E+00
        -11   -1    0    0    0    0  0.00000000000E+00  0.00000000000E+00  0.45593999997E+02  0.45594000000E+02  0.51100000000E-03 0. -1.
         11   -1    0    0    0    0 -0.00000000000E+00 -0.00000000000E+00 -0.45593999997E+02  0.45594000000E+02  0.51100000000E-03 0.  1.
    9900012    2    1    2    0    0  0.11391722309E+02  0.85279439550E+01  0.41001529927E+02  0.47787278558E+02  0.20000034259E+02 0.  0.
        -12    1    1    2    0    0 -0.11391722309E+02 -0.85279439550E+01 -0.41001529927E+02  0.43400721442E+02  0.00000000000E+00 0.  1.
         11    1    3    3    0    0 -0.22798939700E+01 -0.68329814561E+00  0.39148066146E+01  0.45815416577E+01  0.51100000000E-03 0. -1.
        -11    1    3    3    0    0  0.54535054186E+01  0.11782571337E+02  0.17330540575E+02  0.21654499430E+02  0.51100000000E-03 0.  1.
         12    1    3    3    0    0  0.82181108608E+01 -0.25713292368E+01  0.19756182737E+02  0.21551237471E+02  0.00000000000E+00 0. -1.
</event>
<event>
 7    1  0.7596051E-010  0.4778728E+02  0.7816164E-02  0.1312668E+00
        -11   -1    0    0    0    0  0.00000000000E+00  0.00000000000E+00  0.45593999997E+02  0.45594000000E+02  0.51100000000E-03 0.  1.
         11   -1    0    0    0    0 -0.00000000000E+00 -0.00000000000E+00 -0.45593999997E+02  0.45594000000E+02  0.51100000000E-03 0. -1.
    9900012    2    1    2    0    0 -0.25958452912E+01  0.41219937654E+02  0.13334211994E+02  0.47787275553E+02  0.20000020557E+02 0.  0.
         12    1    1    2    0    0  0.25958452912E+01 -0.41219937654E+02 -0.13334211994E+02  0.43400724447E+02  0.00000000000E+00 0. -1.
         11    1    3    3    0    0  0.14268061611E+00  0.17633159491E+01  0.30977957134E+01  0.35673490770E+01  0.51100000000E-03 0. -1.
        -11    1    3    3    0    0  0.35989893317E+01  0.24922241215E+02 -0.29968939725E+00  0.25182546444E+02  0.51100000000E-03 0.  1.
        -12    1    3    3    0    0 -0.63375152390E+01  0.14534380490E+02  0.10536105678E+02  0.19037380032E+02  0.00000000000E+00 0.  1.
</event>
<event>
 7    1  0.7596051E-010  0.4778727E+02  0.7816164E-02  0.1312668E+00
        -11   -1    0    0    0    0  0.00000000000E+00  0.00000000000E+00  0.45593999997E+02  0.45594000000E+02  0.51100000000E-03 0. -1.
         11   -1    0    0    0    0 -0.00000000000E+00 -0.00000000000E+00 -0.45593999997E+02  0.45594000000E+02  0.51100000000E-03 0.  1.
    9900012    2    1    2    0    0  0.40864958196E+01 -0.36999613456E+01 -0.43049202157E+02  0.47787274564E+02  0.20000016046E+02 0.  0.
         12    1    1    2    0    0 -0.40864958196E+01  0.36999613456E+01  0.43049202157E+02  0.43400725436E+02  0.00000000000E+00 0. -1.
         11    1    3    3    0    0  0.12903889100E+01 -0.77158766850E-01 -0.11609761866E+02  0.11681507945E+02  0.51100000000E-03 0. -1.
        -11    1    3    3    0    0  0.75907223958E+01 -0.79022449405E+01 -0.23190496621E+02  0.25648853296E+02  0.51100000000E-03 0.  1.
         12    1    3    3    0    0 -0.47946154861E+01  0.42794423618E+01 -0.82489436691E+01  0.10456913323E+02  0.00000000000E+00 0. -1.
</event>
<event>
 7    1  0.7596051E-010  0.4778726E+02  0.7816164E-02  0.1312668E+00
        -11   -1    0    0    0    0  0.00000000000E+00  0.00000000000E+00  0.45593999997E+02  0.45594000000E+02  0.51100000000E-03 0. -1.
         11   -1    0    0    0    0 -0.00000000000E+00 -0.00000000000E+00 -0.45593999997E+02  0.45594000000E+02  0.51100000000E-03 0.  1.
    9900012    2    1    2    0    0  0.94488512209E+01 -0.33172064328E+02 -0.26343067661E+02  0.47787264350E+02  0.19999969476E+02 0.  0.
         12    1    1    2    0    0 -0.94488512209E+01  0.33172064328E+02  0.26343067661E+02  0.43400735650E+02  0.00000000000E+00 0. -1.
         11    1    3    3    0    0 -0.74745590890E+00 -0.11206879367E+01  0.18318619151E+00  0.13594812353E+01  0.51100000000E-03 0. -1.
        -11    1    3    3    0    0  0.14328522182E+02 -0.21423102782E+02 -0.22857547381E+02  0.34448851262E+02  0.51100000000E-03 0.  1.
        -12    1    3    3    0    0 -0.41322150520E+01 -0.10628273610E+02 -0.36687064718E+01  0.11978931853E+02  0.00000000000E+00 0.  1.
</event>
<event>
 7    1  0.7596051E-010  0.4778727E+02  0.7816164E-02  0.1312668E+00
        -11   -1    0    0    0    0  0.00000000000E+00  0.00000000000E+00  0.45593999997E+02  0.45594000000E+02  0.51100000000E-03 0. -1.
         11   -1    0    0    0    0 -0.00000000000E+00 -0.00000000000E+00 -0.45593999997E+02  0.45594000000E+02  0.51100000000E-03 0.  1.
    9900012    2    1    2    0    0  0.22293846536E+02 -0.25318607710E+02 -0.27305228874E+02  0.47787274043E+02  0.20000013673E+02 0.  0.
         12    1    1    2    0    0 -0.22293846536E+02  0.25318607710E+02  0.27305228874E+02  0.43400725957E+02  0.00000000000E+00 0. -1.
         11    1    3    3    0    0 -0.39524962158E+00  0.10587697243E+01  0.25107090007E-01  0.11304186037E+01  0.51100000000E-03 0. -1.
        -11    1    3    3    0    0  0.43309330746E+01 -0.10541697175E+02 -0.16619897039E+02  0.20152055440E+02  0.51100000000E-03 0.  1.
        -12    1    3    3    0    0  0.18358163082E+02 -0.15835680259E+02 -0.10710438925E+02  0.26504799999E+02  0.00000000000E+00 0.  1.
</event>
<event>
 7    1  0.7596051E-010  0.4778727E+02  0.7816164E-02  0.1312668E+00
        -11   -1    0    0    0    0  0.00000000000E+00  0.00000000000E+00  0.45593999997E+02  0.45594000000E+02  0.51100000000E-03 0. -1.
         11   -1    0    0    0    0 -0.00000000000E+00 -0.00000000000E+00 -0.45593999997E+02  0.45594000000E+02  0.51100000000E-03 0.  1.
    9900012    2    1    2    0    0  0.13303938364E+02  0.21430620914E+02 -0.35317941307E+02  0.47787271125E+02  0.20000000366E+02 0.  0.
         12    1    1    2    0    0 -0.13303938364E+02 -0.21430620914E+02  0.35317941307E+02  0.43400728875E+02  0.00000000000E+00 0. -1.
         11    1    3    3    0    0  0.63487832507E+01  0.42320235635E+01 -0.14854841251E+02  0.16699801827E+02  0.51100000000E-03 0. -1.
        -11    1    3    3    0    0  0.76307411040E+01  0.18154967668E+01 -0.86751970483E+01  0.11695438529E+02  0.51100000000E-03 0.  1.
         12    1    3    3    0    0 -0.67558599043E+00  0.15383100584E+02 -0.11787903007E+02  0.19392030768E+02  0.00000000000E+00 0. -1.
</event>
<event>
 7    1  0.7596051E-010  0.4778727E+02  0.7816164E-02  0.1312668E+00
        -11   -1    0    0    0    0  0.00000000000E+00  0.00000000000E+00  0.45593999997E+02  0.45594000000E+02  0.51100000000E-03 0. -1.
         11   -1    0    0    0    0 -0.00000000000E+00 -0.00000000000E+00 -0.45593999997E+02  0.45594000000E+02  0.51100000000E-03 0.  1.
    9900012    2    1    2    0    0  0.13239163964E+02  0.92387945075E+01 -0.40286378647E+02  0.47787273152E+02  0.20000009610E+02 0.  0.
         12    1    1    2    0    0 -0.13239163964E+02 -0.92387945075E+01  0.40286378647E+02  0.43400726848E+02  0.00000000000E+00 0. -1.
         11    1    3    3    0    0 -0.25617388249E+01  0.27504843584E+00 -0.46167849905E+01  0.52870465629E+01  0.51100000000E-03 0. -1.
        -11    1    3    3    0    0  0.17609282150E+01  0.88943313620E+01 -0.13904862937E+02  0.16599855786E+02  0.51100000000E-03 0.  1.
         12    1    3    3    0    0  0.14039974574E+02  0.69414709587E-01 -0.21764730719E+02  0.25900370803E+02  0.00000000000E+00 0. -1.
</event>
<event>
 7    1  0.7596051E-010  0.4778727E+02  0.7816164E-02  0.1312668E+00
        -11   -1    0    0    0    0  0.00000000000E+00  0.00000000000E+00  0.45593999997E+02  0.45594000000E+02  0.51100000000E-03 0. -1.
         11   -1    0    0    0    0 -0.00000000000E+00 -0.00000000000E+00 -0.45593999997E+02  0.45594000000E+02  0.51100000000E-03 0.  1.
    9900012    2    1    2    0    0  0.22386596074E+02  0.13407423658E+02  0.34680033241E+02  0.47787269608E+02  0.19999993451E+02 0.  0.
        -12    1    1    2    0    0 -0.22386596074E+02 -0.13407423658E+02 -0.34680033241E+02  0.43400730392E+02  0.00000000000E+00 0.  1.
         11    1    3    3    0    0  0.21171374004E+02  0.37390076780E+01  0.25242006832E+02  0.33156691102E+02  0.51100000000E-03 0. -1.
        -11    1    3    3    0    0 -0.91953163702E+00  0.33334984985E+00  0.28342571776E+01  0.29982786001E+01  0.51100000000E-03 0.  1.
         12    1    3    3    0    0  0.21347537068E+01  0.93350661299E+01  0.66037692317E+01  0.11632299906E+02  0.00000000000E+00 0. -1.
</event>
<event>
 7    1  0.7596051E-010  0.4778727E+02  0.7816164E-02  0.1312668E+00
        -11   -1    0    0    0    0  0.00000000000E+00  0.00000000000E+00  0.45593999997E+02  0.45594000000E+02  0.51100000000E-03 0. -1.
         11   -1    0    0    0    0 -0.00000000000E+00 -0.00000000000E+00 -0.45593999997E+02  0.45594000000E+02  0.51100000000E-03 0.  1.
    9900012    2    1    2    0    0  0.11093861887E+02  0.18655680759E+02  0.37583441015E+02  0.47787271496E+02  0.20000002060E+02 0.  0.
        -12    1    1    2    0    0 -0.11093861887E+02 -0.18655680759E+02 -0.37583441015E+02  0.43400728504E+02  0.00000000000E+00 0.  1.
         11    1    3    3    0    0  0.10288385803E+02  0.13087964663E+02  0.14558460111E+02  0.22115480156E+02  0.51100000000E-03 0. -1.
        -11    1    3    3    0    0 -0.16088589995E+01  0.31110419842E+01  0.13962074372E+01  0.37704648223E+01  0.51100000000E-03 0.  1.
        -12    1    3    3    0    0  0.24143350831E+01  0.24566741120E+01  0.21628773466E+02  0.21901326518E+02  0.00000000000E+00 0.  1.
</event>
<event>
 7    1  0.7596051E-010  0.4778727E+02  0.7816164E-02  0.1312668E+00
        -11   -1    0    0    0    0  0.00000000000E+00  0.00000000000E+00  0.45593999997E+02  0.45594000000E+02  0.51100000000E-03 0.  1.
         11   -1    0    0    0    0 -0.00000000000E+00 -0.00000000000E+00 -0.45593999997E+02  0.45594000000E+02  0.51100000000E-03 0. -1.
    9900012    2    1    2    0    0  0.15992425896E+02 -0.28456874994E+02 -0.28601954925E+02  0.47787271365E+02  0.20000001463E+02 0.  0.
         12    1    1    2    0    0 -0.15992425896E+02  0.28456874994E+02  0.28601954925E+02  0.43400728635E+02  0.00000000000E+00 0. -1.
         11    1    3    3    0    0  0.12325259149E+01  0.13267045229E+01 -0.41979675118E+01  0.45718920058E+01  0.51100000000E-03 0. -1.
        -11    1    3    3    0    0 -0.15775548981E+01 -0.11686441435E+00 -0.21488932691E+00  0.15964067251E+01  0.51100000000E-03 0.  1.
        -12    1    3    3    0    0  0.16337454879E+02 -0.29666715103E+02 -0.24189098087E+02  0.41618972634E+02  0.00000000000E+00 0.  1.
</event>
<event>
 7    1  0.7596051E-010  0.4778727E+02  0.7816164E-02  0.1312668E+00
        -11   -1    0    0    0    0  0.00000000000E+00  0.00000000000E+00  0.45593999997E+02  0.45594000000E+02  0.51100000000E-03 0. -1.
         11   -1    0    0    0    0 -0.00000000000E+00 -0.00000000000E+00 -0.45593999997E+02  0.45594000000E+02  0.51100000000E-03 0.  1.
    9900012    2    1    2    0    0  0.16807780928E+02  0.17685630180E+02 -0.35893454123E+02  0.47787273469E+02  0.20000011054E+02 0.  0.
         12    1    1    2    0    0 -0.16807780928E+02 -0.17685630180E+02  0.35893454123E+02  0.43400726531E+02  0.00000000000E+00 0. -1.
         11    1    3    3    0    0 -0.31290900461E+01  0.41461672779E+01 -0.12392130296E+02  0.13436770488E+02  0.51100000000E-03 0. -1.
        -11    1    3    3    0    0  0.23540706476E+01 -0.31960028447E+00 -0.40373870091E+01  0.46844729776E+01  0.51100000000E-03 0.  1.
        -12    1    3    3    0    0  0.17582800326E+02  0.13859063187E+02 -0.19463936818E+02  0.29666030004E+02  0.00000000000E+00 0.  1.
</event>
<event>
 7    1  0.7596051E-010  0.4778727E+02  0.7816164E-02  0.1312668E+00
        -11   -1    0    0    0    0  0.00000000000E+00  0.00000000000E+00  0.45593999997E+02  0.45594000000E+02  0.51100000000E-03 0. -1.
         11   -1    0    0    0    0 -0.00000000000E+00 -0.00000000000E+00 -0.45593999997E+02  0.45594000000E+02  0.51100000000E-03 0.  1.
    9900012    2    1    2    0    0  0.63529963781E+01 -0.10696960194E+02  0.41579296464E+02  0.47787269421E+02  0.19999992596E+02 0.  0.
        -12    1    1    2    0    0 -0.63529963781E+01  0.10696960194E+02 -0.41579296464E+02  0.43400730579E+02  0.00000000000E+00 0.  1.
         11    1    3    3    0    0  0.44786315801E+01 -0.49826748319E+01  0.24450360448E+02  0.25351633392E+02  0.51100000000E-03 0. -1.
        -11    1    3    3    0    0 -0.26013614331E+01  0.16261357393E+01  0.12084187177E+02  0.12467516944E+02  0.51100000000E-03 0.  1.
         12    1    3    3    0    0  0.44757262312E+01 -0.73404211019E+01  0.50447488384E+01  0.99681190850E+01  0.00000000000E+00 0. -1.
</event>
<event>
 7    1  0.7596051E-010  0.4778727E+02  0.7816164E-02  0.1312668E+00
        -11   -1    0    0    0    0  0.00000000000E+00  0.00000000000E+00  0.45593999997E+02  0.45594000000E+02  0.51100000000E-03 0. -1.
         11   -1    0    0    0    0 -0.00000000000E+00 -0.00000000000E+00 -0.45593999997E+02  0.45594000000E+02  0.51100000000E-03 0.  1.
    9900012    2    1    2    0    0 -0.13673036714E+02  0.18789693440E+02  0.36655408682E+02  0.47787268460E+02  0.19999988218E+02 0.  0.
        -12    1    1    2    0    0  0.13673036714E+02 -0.18789693440E+02 -0.36655408682E+02  0.43400731540E+02  0.00000000000E+00 0.  1.
         11    1    3    3    0    0 -0.17580166696E+01  0.23483333925E+01  0.16378713555E+02  0.16639337437E+02  0.51100000000E-03 0. -1.
        -11    1    3    3    0    0 -0.10091163399E+02  0.60739165413E+01  0.15804770174E+02  0.19710778813E+02  0.51100000000E-03 0.  1.
        -12    1    3    3    0    0 -0.18238566455E+01  0.10367443506E+02  0.44719249524E+01  0.11437152211E+02  0.00000000000E+00 0.  1.
</event>
<event>
 7    1  0.7596051E-010  0.4778727E+02  0.7816164E-02  0.1312668E+00
        -11   -1    0    0    0    0  0.00000000000E+00  0.00000000000E+00  0.45593999997E+02  0.45594000000E+02  0.51100000000E-03 0. -1.
         11   -1    0    0    0    0 -0.00000000000E+00 -0.00000000000E+00 -0.45593999997E+02  0.45594000000E+02  0.51100000000E-03 0.  1.
    9900012    2    1    2    0    0  0.40183580454E+02 -0.91255522333E+01 -0.13624509878E+02  0.47787272920E+02  0.20000008552E+02 0.  0.
         12    1    1    2    0    0 -0.40183580454E+02  0.91255522333E+01  0.13624509878E+02  0.43400727080E+02  0.00000000000E+00 0. -1.
         11    1    3    3    0    0  0.13700544373E+02 -0.65711708928E+01 -0.11284505559E+02  0.18926839911E+02  0.51100000000E-03 0. -1.
        -11    1    3    3    0    0  0.97155411457E+01  0.28213641799E+01 -0.45893374207E+01  0.11109178809E+02  0.51100000000E-03 0.  1.
         12    1    3    3    0    0  0.16767494935E+02 -0.53757455204E+01  0.22493331018E+01  0.17751254200E+02  0.00000000000E+00 0. -1.
</event>
<event>
 7    1  0.7596051E-010  0.4778727E+02  0.7816164E-02  0.1312668E+00
        -11   -1    0    0    0    0  0.00000000000E+00  0.00000000000E+00  0.45593999997E+02  0.45594000000E+02  0.51100000000E-03 0. -1.
         11   -1    0    0    0    0 -0.00000000000E+00 -0.00000000000E+00 -0.45593999997E+02  0.45594000000E+02  0.51100000000E-03 0.  1.
    9900012    2    1    2    0    0  0.67033512399E+01  0.27332078094E+02  0.33040064078E+02  0.47787271376E+02  0.20000001512E+02 0.  0.
        -12    1    1    2    0    0 -0.67033512399E+01 -0.27332078094E+02 -0.33040064078E+02  0.43400728624E+02  0.00000000000E+00 0.  1.
         11    1    3    3    0    0 -0.18154875476E+01  0.15211824730E+02  0.26825599330E+02  0.30891882208E+02  0.51100000000E-03 0.  1.
        -11    1    3    3    0    0  0.14368606198E+01 -0.62414091479E-01  0.13919123676E+01  0.20014705244E+01  0.51100000000E-03 0. -1.
         12    1    3    3    0    0  0.70819781676E+01  0.12182667456E+02  0.48225523804E+01  0.14893918644E+02  0.00000000000E+00 0. -1.
</event>
<event>
 7    1  0.7596051E-010  0.4778727E+02  0.7816164E-02  0.1312668E+00
        -11   -1    0    0    0    0  0.00000000000E+00  0.00000000000E+00  0.45593999997E+02  0.45594000000E+02  0.51100000000E-03 0. -1.
         11   -1    0    0    0    0 -0.00000000000E+00 -0.00000000000E+00 -0.45593999997E+02  0.45594000000E+02  0.51100000000E-03 0.  1.
    9900012    2    1    2    0    0  0.44937965708E+01 -0.34436101176E+02 -0.26030446015E+02  0.47787269689E+02  0.19999993819E+02 0.  0.
         12    1    1    2    0    0 -0.44937965708E+01  0.34436101176E+02  0.26030446015E+02  0.43400730311E+02  0.00000000000E+00 0. -1.
         11    1    3    3    0    0 -0.22583429504E+01 -0.13233046143E+01  0.84281178898E+00  0.27498327143E+01  0.51100000000E-03 0. -1.
        -11    1    3    3    0    0 -0.15287948363E+01 -0.44788799958E+00 -0.40110188076E+01  0.43157953436E+01  0.51100000000E-03 0.  1.
         12    1    3    3    0    0  0.82809343576E+01 -0.32664908562E+02 -0.22862238996E+02  0.40721641631E+02  0.00000000000E+00 0. -1.
</event>
<event>
 7    1  0.7596051E-010  0.4778728E+02  0.7816164E-02  0.1312668E+00
        -11   -1    0    0    0    0  0.00000000000E+00  0.00000000000E+00  0.45593999997E+02  0.45594000000E+02  0.51100000000E-03 0. -1.
         11   -1    0    0    0    0 -0.00000000000E+00 -0.00000000000E+00 -0.45593999997E+02  0.45594000000E+02  0.51100000000E-03 0.  1.
    9900012    2    1    2    0    0  0.26691106504E+02 -0.65360086658E+01 -0.33592977743E+02  0.47787277317E+02  0.20000028601E+02 0.  0.
         12    1    1    2    0    0 -0.26691106504E+02  0.65360086658E+01  0.33592977743E+02  0.43400722683E+02  0.00000000000E+00 0. -1.
         11    1    3    3    0    0  0.54441424674E+01 -0.39103327491E+01 -0.62416379031E+00  0.67319365796E+01  0.51100000000E-03 0. -1.
        -11    1    3    3    0    0  0.91497909618E+01 -0.69699553055E+01 -0.17524354947E+02  0.20961917092E+02  0.51100000000E-03 0.  1.
         12    1    3    3    0    0  0.12097173075E+02  0.43442793888E+01 -0.15444459006E+02  0.20093423646E+02  0.00000000000E+00 0. -1.
</event>
<event>
 7    1  0.8535998E-010  0.4778727E+02  0.7816164E-02  0.1312668E+00
        -11   -1    0    0    0    0  0.00000000000E+00  0.00000000000E+00  0.45593999997E+02  0.45594000000E+02  0.51100000000E-03 0. -1.
         11   -1    0    0    0    0 -0.00000000000E+00 -0.00000000000E+00 -0.45593999997E+02  0.45594000000E+02  0.51100000000E-03 0.  1.
    9900012    2    1    2    0    0  0.30055895721E+02 -0.64218418417E+01  0.30643536163E+02  0.47787271563E+02  0.20000002365E+02 0.  0.
        -12    1    1    2    0    0 -0.30055895721E+02  0.64218418417E+01 -0.30643536163E+02  0.43400728437E+02  0.00000000000E+00 0.  1.
         11    1    3    3    0    0  0.42586658189E+01 -0.17642311689E+01 -0.26718522212E+00  0.46173731037E+01  0.51100000000E-03 0. -1.
        -11    1    3    3    0    0  0.42386087726E+00 -0.18584908673E+01 -0.11202852445E+01  0.22110372311E+01  0.51100000000E-03 0.  1.
         12    1    3    3    0    0  0.25373369025E+02 -0.27991198055E+01  0.32031006630E+02  0.40958861228E+02  0.00000000000E+00 0. -1.
</event>
<event>
 7    1  0.7596051E-010  0.4778727E+02  0.7816164E-02  0.1312668E+00
        -11   -1    0    0    0    0  0.00000000000E+00  0.00000000000E+00  0.45593999997E+02  0.45594000000E+02  0.51100000000E-03 0. -1.
         11   -1    0    0    0    0 -0.00000000000E+00 -0.00000000000E+00 -0.45593999997E+02  0.45594000000E+02  0.51100000000E-03 0.  1.
    9900012    2    1    2    0    0  0.22478392052E+02 -0.34414339037E+02  0.13928347768E+02  0.47787265995E+02  0.19999976979E+02 0.  0.
        -12    1    1    2    0    0 -0.22478392052E+02  0.34414339037E+02 -0.13928347768E+02  0.43400734005E+02  0.00000000000E+00 0.  1.
         11    1    3    3    0    0  0.77409287223E+01 -0.81502288872E+01  0.78052652754E+01  0.13684676638E+02  0.51100000000E-03 0.  1.
        -11    1    3    3    0    0  0.13813618057E+02 -0.25171695232E+02  0.96543414666E+01  0.30292517130E+02  0.51100000000E-03 0. -1.
         12    1    3    3    0    0  0.92384527339E+00 -0.10924149179E+01 -0.35312589736E+01  0.38100722278E+01  0.00000000000E+00 0. -1.
</event>
<event>
 7    1  0.7596051E-010  0.4778727E+02  0.7816164E-02  0.1312668E+00
        -11   -1    0    0    0    0  0.00000000000E+00  0.00000000000E+00  0.45593999997E+02  0.45594000000E+02  0.51100000000E-03 0. -1.
         11   -1    0    0    0    0 -0.00000000000E+00 -0.00000000000E+00 -0.45593999997E+02  0.45594000000E+02  0.51100000000E-03 0.  1.
    9900012    2    1    2    0    0 -0.30701648499E+02  0.20065540030E+02 -0.23203575391E+02  0.47787273875E+02  0.20000012904E+02 0.  0.
         12    1    1    2    0    0  0.30701648499E+02 -0.20065540030E+02  0.23203575391E+02  0.43400726125E+02  0.00000000000E+00 0. -1.
         11    1    3    3    0    0 -0.19941911984E+02  0.36593180343E+01 -0.67836892263E+01  0.21379637551E+02  0.51100000000E-03 0. -1.
        -11    1    3    3    0    0 -0.24538239735E+01  0.77690762511E+00 -0.54246991638E+00  0.26304203889E+01  0.51100000000E-03 0.  1.
        -12    1    3    3    0    0 -0.83059125416E+01  0.15629314371E+02 -0.15877416249E+02  0.23777215934E+02  0.00000000000E+00 0.  1.
</event>
<event>
 7    1  0.7596051E-010  0.4778727E+02  0.7816164E-02  0.1312668E+00
        -11   -1    0    0    0    0  0.00000000000E+00  0.00000000000E+00  0.45593999997E+02  0.45594000000E+02  0.51100000000E-03 0. -1.
         11   -1    0    0    0    0 -0.00000000000E+00 -0.00000000000E+00 -0.45593999997E+02  0.45594000000E+02  0.51100000000E-03 0.  1.
    9900012    2    1    2    0    0 -0.22061569448E+02 -0.22046672999E+02 -0.30180368516E+02  0.47787270968E+02  0.19999999650E+02 0.  0.
         12    1    1    2    0    0  0.22061569448E+02  0.22046672999E+02  0.30180368516E+02  0.43400729032E+02  0.00000000000E+00 0. -1.
         11    1    3    3    0    0  0.13835394611E+01 -0.97965583879E+00 -0.49370453374E+01  0.52199927133E+01  0.51100000000E-03 0. -1.
        -11    1    3    3    0    0 -0.60799820941E+01 -0.80015622191E+01 -0.16125487166E+02  0.19000592538E+02  0.51100000000E-03 0.  1.
         12    1    3    3    0    0 -0.17365126815E+02 -0.13065454941E+02 -0.91178360123E+01  0.23566685716E+02  0.00000000000E+00 0. -1.
</event>
<event>
 7    1  0.7596051E-010  0.4778727E+02  0.7816164E-02  0.1312668E+00
        -11   -1    0    0    0    0  0.00000000000E+00  0.00000000000E+00  0.45593999997E+02  0.45594000000E+02  0.51100000000E-03 0. -1.
         11   -1    0    0    0    0 -0.00000000000E+00 -0.00000000000E+00 -0.45593999997E+02  0.45594000000E+02  0.51100000000E-03 0.  1.
    9900012    2    1    2    0    0 -0.23494365870E+02 -0.90896356959E+01 -0.35341431607E+02  0.47787268523E+02  0.19999988504E+02 0.  0.
         12    1    1    2    0    0  0.23494365870E+02  0.90896356959E+01  0.35341431607E+02  0.43400731477E+02  0.00000000000E+00 0. -1.
         11    1    3    3    0    0 -0.27041453155E+01 -0.14772942994E+01 -0.14359262455E+02  0.14686157389E+02  0.51100000000E-03 0. -1.
        -11    1    3    3    0    0 -0.16332310620E+02 -0.23958975140E+01 -0.20360303836E+02  0.26211193556E+02  0.51100000000E-03 0.  1.
         12    1    3    3    0    0 -0.44579099349E+01 -0.52164438824E+01 -0.62186531594E+00  0.68899175784E+01  0.00000000000E+00 0. -1.
</event>
<event>
 7    1  0.7596051E-010  0.4778727E+02  0.7816164E-02  0.1312668E+00
        -11   -1    0    0    0    0  0.00000000000E+00  0.00000000000E+00  0.45593999997E+02  0.45594000000E+02  0.51100000000E-03 0. -1.
         11   -1    0    0    0    0 -0.00000000000E+00 -0.00000000000E+00 -0.45593999997E+02  0.45594000000E+02  0.51100000000E-03 0.  1.
    9900012    2    1    2    0    0  0.16777397828E+02 -0.34333178231E+02 -0.20576076352E+02  0.47787272778E+02  0.20000007904E+02 0.  0.
         12    1    1    2    0    0 -0.16777397828E+02  0.34333178231E+02  0.20576076352E+02  0.43400727222E+02  0.00000000000E+00 0. -1.
         11    1    3    3    0    0 -0.23421617729E+01 -0.64316398852E+00 -0.64803364966E+00  0.25138276709E+01  0.51100000000E-03 0. -1.
        -11    1    3    3    0    0  0.83415064514E+00 -0.86093169259E+01 -0.86953448450E+01  0.12264793821E+02  0.51100000000E-03 0.  1.
         12    1    3    3    0    0  0.18285408956E+02 -0.25080697317E+02 -0.11232697858E+02  0.33008651286E+02  0.00000000000E+00 0. -1.
</event>
<event>
 7    1  0.7596051E-010  0.4778727E+02  0.7816164E-02  0.1312668E+00
        -11   -1    0    0    0    0  0.00000000000E+00  0.00000000000E+00  0.45593999997E+02  0.45594000000E+02  0.51100000000E-03 0. -1.
         11   -1    0    0    0    0 -0.00000000000E+00 -0.00000000000E+00 -0.45593999997E+02  0.45594000000E+02  0.51100000000E-03 0.  1.
    9900012    2    1    2    0    0  0.39020610988E+02  0.13914040767E+02 -0.12938881811E+02  0.47787271033E+02  0.19999999946E+02 0.  0.
         12    1    1    2    0    0 -0.39020610988E+02 -0.13914040767E+02  0.12938881811E+02  0.43400728967E+02  0.00000000000E+00 0. -1.
         11    1    3    3    0    0  0.16369115221E+02 -0.88725978125E+00 -0.50924325074E+00  0.16401051551E+02  0.51100000000E-03 0. -1.
        -11    1    3    3    0    0  0.89684062859E+00  0.91071516680E+00  0.15687344521E+01  0.20235249617E+01  0.51100000000E-03 0.  1.
        -12    1    3    3    0    0  0.21754655139E+02  0.13890585382E+02 -0.13998373012E+02  0.29362694520E+02  0.00000000000E+00 0.  1.
</event>
<event>
 7    1  0.7596051E-010  0.4778727E+02  0.7816164E-02  0.1312668E+00
        -11   -1    0    0    0    0  0.00000000000E+00  0.00000000000E+00  0.45593999997E+02  0.45594000000E+02  0.51100000000E-03 0. -1.
         11   -1    0    0    0    0 -0.00000000000E+00 -0.00000000000E+00 -0.45593999997E+02  0.45594000000E+02  0.51100000000E-03 0.  1.
    9900012    2    1    2    0    0 -0.13084546363E+02  0.20914408737E+02 -0.35707220970E+02  0.47787268719E+02  0.19999989396E+02 0.  0.
         12    1    1    2    0    0  0.13084546363E+02 -0.20914408737E+02  0.35707220970E+02  0.43400731281E+02  0.00000000000E+00 0. -1.
         11    1    3    3    0    0 -0.40325600395E+01  0.93038445371E+01 -0.55136953889E+01  0.11542265841E+02  0.51100000000E-03 0. -1.
        -11    1    3    3    0    0 -0.11292799331E+02  0.52966883646E+01 -0.14173301339E+02  0.18880272653E+02  0.51100000000E-03 0.  1.
         12    1    3    3    0    0  0.22408130071E+01  0.63138758352E+01 -0.16020224243E+02  0.17364730225E+02  0.00000000000E+00 0. -1.
</event>
<event>
 7    1  0.7596051E-010  0.4778727E+02  0.7816164E-02  0.1312668E+00
        -11   -1    0    0    0    0  0.00000000000E+00  0.00000000000E+00  0.45593999997E+02  0.45594000000E+02  0.51100000000E-03 0. -1.
         11   -1    0    0    0    0 -0.00000000000E+00 -0.00000000000E+00 -0.45593999997E+02  0.45594000000E+02  0.51100000000E-03 0.  1.
    9900012    2    1    2    0    0  0.25518337296E+01  0.27738074547E+02 -0.33282287830E+02  0.47787270534E+02  0.19999997674E+02 0.  0.
         12    1    1    2    0    0 -0.25518337296E+01 -0.27738074547E+02  0.33282287830E+02  0.43400729466E+02  0.00000000000E+00 0. -1.
         11    1    3    3    0    0  0.71371932487E+00  0.96935796402E+01 -0.19879464133E+02  0.22128442693E+02  0.51100000000E-03 0. -1.
        -11    1    3    3    0    0  0.17364303620E+01  0.50873453109E+01 -0.11324619717E+02  0.12535680465E+02  0.51100000000E-03 0.  1.
         12    1    3    3    0    0  0.10168404270E+00  0.12957149596E+02 -0.20782039794E+01  0.13123147377E+02  0.00000000000E+00 0. -1.
</event>
<event>
 7    1  0.7596051E-010  0.4778727E+02  0.7816164E-02  0.1312668E+00
        -11   -1    0    0    0    0  0.00000000000E+00  0.00000000000E+00  0.45593999997E+02  0.45594000000E+02  0.51100000000E-03 0. -1.
         11   -1    0    0    0    0 -0.00000000000E+00 -0.00000000000E+00 -0.45593999997E+02  0.45594000000E+02  0.51100000000E-03 0.  1.
    9900012    2    1    2    0    0  0.37599146989E+01 -0.27934591310E+02  0.33002190879E+02  0.47787274741E+02  0.20000016852E+02 0.  0.
        -12    1    1    2    0    0 -0.37599146989E+01  0.27934591310E+02 -0.33002190879E+02  0.43400725259E+02  0.00000000000E+00 0.  1.
         11    1    3    3    0    0 -0.20315291895E+01 -0.93933417323E+01  0.15972340691E+02  0.18640752323E+02  0.51100000000E-03 0. -1.
        -11    1    3    3    0    0 -0.34120063617E+01 -0.69377552787E+01  0.18727525208E+01  0.79549631039E+01  0.51100000000E-03 0.  1.
        -12    1    3    3    0    0  0.92034502501E+01 -0.11603494299E+02  0.15157097667E+02  0.21191559314E+02  0.00000000000E+00 0.  1.
</event>
<event>
 7    1  0.7596051E-010  0.4778727E+02  0.7816164E-02  0.1312668E+00
        -11   -1    0    0    0    0  0.00000000000E+00  0.00000000000E+00  0.45593999997E+02  0.45594000000E+02  0.51100000000E-03 0. -1.
         11   -1    0    0    0    0 -0.00000000000E+00 -0.00000000000E+00 -0.45593999997E+02  0.45594000000E+02  0.51100000000E-03 0.  1.
    9900012    2    1    2    0    0 -0.16886592806E+02  0.53349768909E+01  0.39623275841E+02  0.47787274391E+02  0.20000015257E+02 0.  0.
        -12    1    1    2    0    0  0.16886592806E+02 -0.53349768909E+01 -0.39623275841E+02  0.43400725609E+02  0.00000000000E+00 0.  1.
         11    1    3    3    0    0 -0.84615203774E+01 -0.42307635032E+01  0.17984056790E+02  0.20320506534E+02  0.51100000000E-03 0. -1.
        -11    1    3    3    0    0 -0.45109688604E+01  0.22176969199E+01  0.17424821836E+02  0.18135364236E+02  0.51100000000E-03 0.  1.
         12    1    3    3    0    0 -0.39141035684E+01  0.73480434741E+01  0.42143972148E+01  0.93314036203E+01  0.00000000000E+00 0. -1.
</event>
<event>
 7    1  0.7596051E-010  0.4778727E+02  0.7816164E-02  0.1312668E+00
        -11   -1    0    0    0    0  0.00000000000E+00  0.00000000000E+00  0.45593999997E+02  0.45594000000E+02  0.51100000000E-03 0.  1.
         11   -1    0    0    0    0 -0.00000000000E+00 -0.00000000000E+00 -0.45593999997E+02  0.45594000000E+02  0.51100000000E-03 0. -1.
    9900012    2    1    2    0    0 -0.13006384156E+02 -0.41341088352E+02 -0.23177374171E+01  0.47787268190E+02  0.19999986984E+02 0.  0.
        -12    1    1    2    0    0  0.13006384156E+02  0.41341088352E+02  0.23177374171E+01  0.43400731810E+02  0.00000000000E+00 0.  1.
         11    1    3    3    0    0 -0.27776341629E+01 -0.11026744219E+02 -0.22503261462E+01  0.11591734454E+02  0.51100000000E-03 0. -1.
        -11    1    3    3    0    0  0.26143346504E+01 -0.78565523466E+01  0.52224292758E+01  0.97894804889E+01  0.51100000000E-03 0.  1.
        -12    1    3    3    0    0 -0.12843084644E+02 -0.22457791786E+02 -0.52898405467E+01  0.26406053247E+02  0.00000000000E+00 0.  1.
</event>
<event>
 7    1  0.7596051E-010  0.4778727E+02  0.7816164E-02  0.1312668E+00
        -11   -1    0    0    0    0  0.00000000000E+00  0.00000000000E+00  0.45593999997E+02  0.45594000000E+02  0.51100000000E-03 0. -1.
         11   -1    0    0    0    0 -0.00000000000E+00 -0.00000000000E+00 -0.45593999997E+02  0.45594000000E+02  0.51100000000E-03 0.  1.
    9900012    2    1    2    0    0  0.37244951675E+01 -0.10935066543E+02 -0.41835101481E+02  0.47787271199E+02  0.20000000704E+02 0.  0.
         12    1    1    2    0    0 -0.37244951675E+01  0.10935066543E+02  0.41835101481E+02  0.43400728801E+02  0.00000000000E+00 0. -1.
         11    1    3    3    0    0  0.29076039763E+01  0.18907765789E+01 -0.25193582667E+01  0.42867660645E+01  0.51100000000E-03 0.  1.
        -11    1    3    3    0    0  0.44145587116E+01 -0.12474607009E+01 -0.37506065254E+01  0.59254988303E+01  0.51100000000E-03 0. -1.
        -12    1    3    3    0    0 -0.35976675204E+01 -0.11578382421E+02 -0.35565136689E+02  0.37575006304E+02  0.00000000000E+00 0.  1.
</event>
<event>
 7    1  0.7596051E-010  0.4778727E+02  0.7816164E-02  0.1312668E+00
        -11   -1    0    0    0    0  0.00000000000E+00  0.00000000000E+00  0.45593999997E+02  0.45594000000E+02  0.51100000000E-03 0. -1.
         11   -1    0    0    0    0 -0.00000000000E+00 -0.00000000000E+00 -0.45593999997E+02  0.45594000000E+02  0.51100000000E-03 0.  1.
    9900012    2    1    2    0    0  0.15689439925E+02  0.72886179059E+01 -0.39803781561E+02  0.47787268408E+02  0.19999987980E+02 0.  0.
         12    1    1    2    0    0 -0.15689439925E+02 -0.72886179059E+01  0.39803781561E+02  0.43400731592E+02  0.00000000000E+00 0. -1.
         11    1    3    3    0    0 -0.22264312149E+01 -0.26204545596E+01 -0.42790970614E+01  0.54894854018E+01  0.51100000000E-03 0. -1.
        -11    1    3    3    0    0  0.32557188508E+01  0.19905092701E+01 -0.16822680117E+02  0.17250055042E+02  0.51100000000E-03 0.  1.
        -12    1    3    3    0    0  0.14660152289E+02  0.79185631954E+01 -0.18702004383E+02  0.25047727964E+02  0.00000000000E+00 0.  1.
</event>
<event>
 7    1  0.7596051E-010  0.4778727E+02  0.7816164E-02  0.1312668E+00
        -11   -1    0    0    0    0  0.00000000000E+00  0.00000000000E+00  0.45593999997E+02  0.45594000000E+02  0.51100000000E-03 0. -1.
         11   -1    0    0    0    0 -0.00000000000E+00 -0.00000000000E+00 -0.45593999997E+02  0.45594000000E+02  0.51100000000E-03 0.  1.
    9900012    2    1    2    0    0 -0.33948812956E+02 -0.16990995674E+02 -0.21033480241E+02  0.47787272747E+02  0.20000007761E+02 0.  0.
         12    1    1    2    0    0  0.33948812956E+02  0.16990995674E+02  0.21033480241E+02  0.43400727253E+02  0.00000000000E+00 0. -1.
         11    1    3    3    0    0  0.22945171457E+00 -0.20155001970E+01  0.34283221173E+00  0.20572854250E+01  0.51100000000E-03 0. -1.
        -11    1    3    3    0    0 -0.17609208993E+02  0.68494353521E+00 -0.96770533354E+01  0.20104694738E+02  0.51100000000E-03 0.  1.
        -12    1    3    3    0    0 -0.16569055677E+02 -0.15660439012E+02 -0.11699259117E+02  0.25625292583E+02  0.00000000000E+00 0.  1.
</event>
<event>
 7    1  0.7596051E-010  0.4778727E+02  0.7816164E-02  0.1312668E+00
        -11   -1    0    0    0    0  0.00000000000E+00  0.00000000000E+00  0.45593999997E+02  0.45594000000E+02  0.51100000000E-03 0. -1.
         11   -1    0    0    0    0 -0.00000000000E+00 -0.00000000000E+00 -0.45593999997E+02  0.45594000000E+02  0.51100000000E-03 0.  1.
    9900012    2    1    2    0    0 -0.31003372886E+02 -0.21631401258E+02  0.21318920529E+02  0.47787273932E+02  0.20000013166E+02 0.  0.
        -12    1    1    2    0    0  0.31003372886E+02  0.21631401258E+02 -0.21318920529E+02  0.43400726068E+02  0.00000000000E+00 0.  1.
         11    1    3    3    0    0 -0.35242479837E+01 -0.85164481428E+01  0.24395153692E+01  0.95342251032E+01  0.51100000000E-03 0. -1.
        -11    1    3    3    0    0 -0.48080489700E+01 -0.37946226908E+01  0.10849648988E+02  0.12459188564E+02  0.51100000000E-03 0.  1.
         12    1    3    3    0    0 -0.22671075932E+02 -0.93203304245E+01  0.80297561718E+01  0.25793860264E+02  0.00000000000E+00 0. -1.
</event>
<event>
 7    1  0.7596051E-010  0.4778727E+02  0.7816164E-02  0.1312668E+00
        -11   -1    0    0    0    0  0.00000000000E+00  0.00000000000E+00  0.45593999997E+02  0.45594000000E+02  0.51100000000E-03 0. -1.
         11   -1    0    0    0    0 -0.00000000000E+00 -0.00000000000E+00 -0.45593999997E+02  0.45594000000E+02  0.51100000000E-03 0.  1.
    9900012    2    1    2    0    0 -0.17063450633E+02  0.30983442588E+02  0.25149324776E+02  0.47787267301E+02  0.19999982932E+02 0.  0.
        -12    1    1    2    0    0  0.17063450633E+02 -0.30983442588E+02 -0.25149324776E+02  0.43400732699E+02  0.00000000000E+00 0.  1.
         11    1    3    3    0    0 -0.77293591927E+01  0.16345815602E+02  0.12975540625E+02  0.22255186721E+02  0.51100000000E-03 0. -1.
        -11    1    3    3    0    0 -0.10698385646E+02  0.13481335849E+02  0.46907385089E+01  0.17838298678E+02  0.51100000000E-03 0.  1.
        -12    1    3    3    0    0  0.13642942053E+01  0.11562911368E+01  0.74830456418E+01  0.76937819016E+01  0.00000000000E+00 0.  1.
</event>
<event>
 7    1  0.7596051E-010  0.4778727E+02  0.7816164E-02  0.1312668E+00
        -11   -1    0    0    0    0  0.00000000000E+00  0.00000000000E+00  0.45593999997E+02  0.45594000000E+02  0.51100000000E-03 0. -1.
         11   -1    0    0    0    0 -0.00000000000E+00 -0.00000000000E+00 -0.45593999997E+02  0.45594000000E+02  0.51100000000E-03 0.  1.
    9900012    2    1    2    0    0  0.15283308433E+02  0.37026262305E+02  0.16706267033E+02  0.47787274486E+02  0.20000015692E+02 0.  0.
        -12    1    1    2    0    0 -0.15283308433E+02 -0.37026262305E+02 -0.16706267033E+02  0.43400725514E+02  0.00000000000E+00 0.  1.
         11    1    3    3    0    0  0.78683661970E+01  0.13323552045E+02  0.92871537628E+01  0.18046591118E+02  0.51100000000E-03 0. -1.
        -11    1    3    3    0    0  0.31835624264E+01  0.18537143010E+02  0.11373781446E+02  0.21980073825E+02  0.51100000000E-03 0.  1.
         12    1    3    3    0    0  0.42313798092E+01  0.51655672503E+01 -0.39546681754E+01  0.77606095434E+01  0.00000000000E+00 0. -1.
</event>
<event>
 7    1  0.7596051E-010  0.4778727E+02  0.7816164E-02  0.1312668E+00
        -11   -1    0    0    0    0  0.00000000000E+00  0.00000000000E+00  0.45593999997E+02  0.45594000000E+02  0.51100000000E-03 0. -1.
         11   -1    0    0    0    0 -0.00000000000E+00 -0.00000000000E+00 -0.45593999997E+02  0.45594000000E+02  0.51100000000E-03 0.  1.
    9900012    2    1    2    0    0 -0.19275768396E+02  0.93010223125E+01  0.37756573775E+02  0.47787272742E+02  0.20000007740E+02 0.  0.
        -12    1    1    2    0    0  0.19275768396E+02 -0.93010223125E+01 -0.37756573775E+02  0.43400727258E+02  0.00000000000E+00 0.  1.
         11    1    3    3    0    0 -0.53034244702E+01 -0.37273462781E+01  0.62472619786E+01  0.90026498254E+01  0.51100000000E-03 0. -1.
        -11    1    3    3    0    0 -0.17013734430E+01 -0.19478427831E-01  0.12691882756E+02  0.12805426161E+02  0.51100000000E-03 0.  1.
         12    1    3    3    0    0 -0.12270970483E+02  0.13047847018E+02  0.18817429040E+02  0.25979196756E+02  0.00000000000E+00 0. -1.
</event>
<event>
 7    1  0.7596051E-010  0.4778727E+02  0.7816164E-02  0.1312668E+00
        -11   -1    0    0    0    0  0.00000000000E+00  0.00000000000E+00  0.45593999997E+02  0.45594000000E+02  0.51100000000E-03 0. -1.
         11   -1    0    0    0    0 -0.00000000000E+00 -0.00000000000E+00 -0.45593999997E+02  0.45594000000E+02  0.51100000000E-03 0.  1.
    9900012    2    1    2    0    0  0.17207532950E+02  0.34976110116E+02 -0.19083917219E+02  0.47787269989E+02  0.19999995186E+02 0.  0.
         12    1    1    2    0    0 -0.17207532950E+02 -0.34976110116E+02  0.19083917219E+02  0.43400730011E+02  0.00000000000E+00 0. -1.
         11    1    3    3    0    0  0.66352226834E+01  0.26661759406E+01 -0.10789981014E+01  0.72317986261E+01  0.51100000000E-03 0. -1.
        -11    1    3    3    0    0  0.99498086273E+01  0.11535783285E+02 -0.10302607749E+02  0.18390669221E+02  0.51100000000E-03 0.  1.
        -12    1    3    3    0    0  0.62250163882E+00  0.20774150891E+02 -0.77023113692E+01  0.22164802142E+02  0.00000000000E+00 0.  1.
</event>
<event>
 7    1  0.7596051E-010  0.4778726E+02  0.7816164E-02  0.1312668E+00
        -11   -1    0    0    0    0  0.00000000000E+00  0.00000000000E+00  0.45593999997E+02  0.45594000000E+02  0.51100000000E-03 0. -1.
         11   -1    0    0    0    0 -0.00000000000E+00 -0.00000000000E+00 -0.45593999997E+02  0.45594000000E+02  0.51100000000E-03 0.  1.
    9900012    2    1    2    0    0  0.21427865622E+01 -0.37227013203E+02  0.22207712470E+02  0.47787256465E+02  0.19999933525E+02 0.  0.
        -12    1    1    2    0    0 -0.21427865622E+01  0.37227013203E+02 -0.22207712470E+02  0.43400743535E+02  0.00000000000E+00 0.  1.
         11    1    3    3    0    0 -0.71305872525E+00 -0.46482630645E+01  0.18699337201E+01  0.50607760908E+01  0.51100000000E-03 0. -1.
        -11    1    3    3    0    0  0.87507645840E+01 -0.27981086151E+02  0.19485251850E+02  0.35202160487E+02  0.51100000000E-03 0.  1.
        -12    1    3    3    0    0 -0.58949192965E+01 -0.45976639873E+01  0.85252689991E+00  0.75243198874E+01  0.00000000000E+00 0.  1.
</event>
<event>
 7    1  0.7596051E-010  0.4778728E+02  0.7816164E-02  0.1312668E+00
        -11   -1    0    0    0    0  0.00000000000E+00  0.00000000000E+00  0.45593999997E+02  0.45594000000E+02  0.51100000000E-03 0. -1.
         11   -1    0    0    0    0 -0.00000000000E+00 -0.00000000000E+00 -0.45593999997E+02  0.45594000000E+02  0.51100000000E-03 0.  1.
    9900012    2    1    2    0    0  0.65664824308E+01 -0.67141000206E+01 -0.42372448672E+02  0.47787282989E+02  0.20000054459E+02 0.  0.
         12    1    1    2    0    0 -0.65664824308E+01  0.67141000206E+01  0.42372448672E+02  0.43400717011E+02  0.00000000000E+00 0. -1.
         11    1    3    3    0    0 -0.20678162115E+01 -0.96807363633E+01 -0.15320399655E+02  0.18240262232E+02  0.51100000000E-03 0. -1.
        -11    1    3    3    0    0 -0.69804571867E+00  0.24259464333E+01 -0.52474344410E+01  0.58230621151E+01  0.51100000000E-03 0.  1.
        -12    1    3    3    0    0  0.93323443609E+01  0.54068990942E+00 -0.21804614576E+02  0.23723958642E+02  0.00000000000E+00 0.  1.
</event>
<event>
 7    1  0.7596051E-010  0.4778727E+02  0.7816164E-02  0.1312668E+00
        -11   -1    0    0    0    0  0.00000000000E+00  0.00000000000E+00  0.45593999997E+02  0.45594000000E+02  0.51100000000E-03 0. -1.
         11   -1    0    0    0    0 -0.00000000000E+00 -0.00000000000E+00 -0.45593999997E+02  0.45594000000E+02  0.51100000000E-03 0.  1.
    9900012    2    1    2    0    0 -0.41610169484E+02 -0.43922877965E+01 -0.11529297964E+02  0.47787272954E+02  0.20000008706E+02 0.  0.
         12    1    1    2    0    0  0.41610169484E+02  0.43922877965E+01  0.11529297964E+02  0.43400727046E+02  0.00000000000E+00 0. -1.
         11    1    3    3    0    0 -0.13551458949E+02 -0.37585615307E+01 -0.32632717082E+00  0.14066816061E+02  0.51100000000E-03 0. -1.
        -11    1    3    3    0    0 -0.12989908716E+02 -0.37879023836E+01  0.16944462339E+01  0.13636608127E+02  0.51100000000E-03 0.  1.
        -12    1    3    3    0    0 -0.15068801820E+02  0.31541761178E+01 -0.12897417027E+02  0.20083848766E+02  0.00000000000E+00 0.  1.
</event>
<event>
 7    1  0.7596051E-010  0.4778727E+02  0.7816164E-02  0.1312668E+00
        -11   -1    0    0    0    0  0.00000000000E+00  0.00000000000E+00  0.45593999997E+02  0.45594000000E+02  0.51100000000E-03 0. -1.
         11   -1    0    0    0    0 -0.00000000000E+00 -0.00000000000E+00 -0.45593999997E+02  0.45594000000E+02  0.51100000000E-03 0.  1.
    9900012    2    1    2    0    0 -0.13473508411E+02  0.87841716923E+01  0.40310371715E+02  0.47787272252E+02  0.20000005507E+02 0.  0.
        -12    1    1    2    0    0  0.13473508411E+02 -0.87841716923E+01 -0.40310371715E+02  0.43400727748E+02  0.00000000000E+00 0.  1.
         11    1    3    3    0    0 -0.61499920023E+01  0.88768540168E+01  0.34777585895E+02  0.36415675468E+02  0.51100000000E-03 0. -1.
        -11    1    3    3    0    0  0.26525938559E+00  0.18779286152E+01  0.23959453323E+00  0.19116443777E+01  0.51100000000E-03 0.  1.
         12    1    3    3    0    0 -0.75887757942E+01 -0.19706109397E+01  0.52931912867E+01  0.94599524062E+01  0.00000000000E+00 0. -1.
</event>
<event>
 7    1  0.7596051E-010  0.4778728E+02  0.7816164E-02  0.1312668E+00
        -11   -1    0    0    0    0  0.00000000000E+00  0.00000000000E+00  0.45593999997E+02  0.45594000000E+02  0.51100000000E-03 0. -1.
         11   -1    0    0    0    0 -0.00000000000E+00 -0.00000000000E+00 -0.45593999997E+02  0.45594000000E+02  0.51100000000E-03 0.  1.
    9900012    2    1    2    0    0  0.19475550919E+02  0.22810809549E+02 -0.31368649273E+02  0.47787282574E+02  0.20000052570E+02 0.  0.
         12    1    1    2    0    0 -0.19475550919E+02 -0.22810809549E+02  0.31368649273E+02  0.43400717426E+02  0.00000000000E+00 0. -1.
         11    1    3    3    0    0  0.12638335296E+02  0.85665115190E+01 -0.21093328389E+02  0.26039223134E+02  0.51100000000E-03 0. -1.
        -11    1    3    3    0    0  0.74795354283E+01  0.10297895070E+02 -0.11907659456E+02  0.17429355900E+02  0.51100000000E-03 0.  1.
         12    1    3    3    0    0 -0.64231980540E+00  0.39464029596E+01  0.16323385725E+01  0.43187035401E+01  0.00000000000E+00 0. -1.
</event>
<event>
 7    1  0.7596051E-010  0.4778726E+02  0.7816164E-02  0.1312668E+00
        -11   -1    0    0    0    0  0.00000000000E+00  0.00000000000E+00  0.45593999997E+02  0.45594000000E+02  0.51100000000E-03 0. -1.
         11   -1    0    0    0    0 -0.00000000000E+00 -0.00000000000E+00 -0.45593999997E+02  0.45594000000E+02  0.51100000000E-03 0.  1.
    9900012    2    1    2    0    0  0.14219405826E+02  0.16639699258E+02 -0.37477369473E+02  0.47787259038E+02  0.19999945260E+02 0.  0.
         12    1    1    2    0    0 -0.14219405826E+02 -0.16639699258E+02  0.37477369473E+02  0.43400740962E+02  0.00000000000E+00 0. -1.
         11    1    3    3    0    0  0.86846476399E+01  0.26336452951E+01 -0.77324352236E+01  0.11922656873E+02  0.51100000000E-03 0. -1.
        -11    1    3    3    0    0  0.54174537125E+01 -0.33737247801E+00 -0.10949782783E+02  0.12221307957E+02  0.51100000000E-03 0.  1.
         12    1    3    3    0    0  0.11730447329E+00  0.14343426441E+02 -0.18795151466E+02  0.23643294208E+02  0.00000000000E+00 0. -1.
</event>
<event>
 7    1  0.7596051E-010  0.4778727E+02  0.7816164E-02  0.1312668E+00
        -11   -1    0    0    0    0  0.00000000000E+00  0.00000000000E+00  0.45593999997E+02  0.45594000000E+02  0.51100000000E-03 0. -1.
         11   -1    0    0    0    0 -0.00000000000E+00 -0.00000000000E+00 -0.45593999997E+02  0.45594000000E+02  0.51100000000E-03 0.  1.
    9900012    2    1    2    0    0 -0.54942144416E+01  0.98439160298E+01 -0.41911027676E+02  0.47787270559E+02  0.19999997788E+02 0.  0.
         12    1    1    2    0    0  0.54942144416E+01 -0.98439160298E+01  0.41911027676E+02  0.43400729441E+02  0.00000000000E+00 0. -1.
         11    1    3    3    0    0 -0.24797792045E+01 -0.31063574831E+01 -0.14953750453E+01  0.42467527009E+01  0.51100000000E-03 0. -1.
        -11    1    3    3    0    0 -0.36171663173E+01  0.93601797381E+00 -0.58489031901E+01  0.69404387903E+01  0.51100000000E-03 0.  1.
        -12    1    3    3    0    0  0.60273108019E+00  0.12014255539E+02 -0.34566749440E+02  0.36600079068E+02  0.00000000000E+00 0.  1.
</event>
<event>
 7    1  0.7596051E-010  0.4778727E+02  0.7816164E-02  0.1312668E+00
        -11   -1    0    0    0    0  0.00000000000E+00  0.00000000000E+00  0.45593999997E+02  0.45594000000E+02  0.51100000000E-03 0. -1.
         11   -1    0    0    0    0 -0.00000000000E+00 -0.00000000000E+00 -0.45593999997E+02  0.45594000000E+02  0.51100000000E-03 0.  1.
    9900012    2    1    2    0    0  0.91382902409E+01  0.22246329878E+01 -0.42369399112E+02  0.47787270495E+02  0.19999997496E+02 0.  0.
         12    1    1    2    0    0 -0.91382902409E+01 -0.22246329878E+01  0.42369399112E+02  0.43400729505E+02  0.00000000000E+00 0. -1.
         11    1    3    3    0    0  0.47456524557E+00  0.10443721727E+01  0.52439635251E+00  0.12613156636E+01  0.51100000000E-03 0. -1.
        -11    1    3    3    0    0  0.12036987073E+02 -0.16232588377E+01 -0.21559353846E+02  0.24745297848E+02  0.51100000000E-03 0.  1.
         12    1    3    3    0    0 -0.33732620778E+01  0.28035196527E+01 -0.21334441618E+02  0.21780656984E+02  0.00000000000E+00 0. -1.
</event>
<event>
 7    1  0.7596051E-010  0.4778728E+02  0.7816164E-02  0.1312668E+00
        -11   -1    0    0    0    0  0.00000000000E+00  0.00000000000E+00  0.45593999997E+02  0.45594000000E+02  0.51100000000E-03 0. -1.
         11   -1    0    0    0    0 -0.00000000000E+00 -0.00000000000E+00 -0.45593999997E+02  0.45594000000E+02  0.51100000000E-03 0.  1.
    9900012    2    1    2    0    0 -0.26990228797E+02 -0.20382104627E+02  0.27197799366E+02  0.47787275007E+02  0.20000018068E+02 0.  0.
        -12    1    1    2    0    0  0.26990228797E+02  0.20382104627E+02 -0.27197799366E+02  0.43400724993E+02  0.00000000000E+00 0.  1.
         11    1    3    3    0    0 -0.10513358344E+02 -0.44813052775E+01  0.33202975747E+01  0.11901141832E+02  0.51100000000E-03 0. -1.
        -11    1    3    3    0    0 -0.94133201492E+01 -0.12151435980E+01  0.43176233752E+01  0.10427321903E+02  0.51100000000E-03 0.  1.
         12    1    3    3    0    0 -0.70635503042E+01 -0.14685655751E+02  0.19559878416E+02  0.25458811272E+02  0.00000000000E+00 0. -1.
</event>
<event>
 7    1  0.7596051E-010  0.4778726E+02  0.7816164E-02  0.1312668E+00
        -11   -1    0    0    0    0  0.00000000000E+00  0.00000000000E+00  0.45593999997E+02  0.45594000000E+02  0.51100000000E-03 0. -1.
         11   -1    0    0    0    0 -0.00000000000E+00 -0.00000000000E+00 -0.45593999997E+02  0.45594000000E+02  0.51100000000E-03 0.  1.
    9900012    2    1    2    0    0  0.21775234301E+02 -0.26461639370E+02 -0.26631661770E+02  0.47787255817E+02  0.19999930571E+02 0.  0.
         12    1    1    2    0    0 -0.21775234301E+02  0.26461639370E+02  0.26631661770E+02  0.43400744183E+02  0.00000000000E+00 0. -1.
         11    1    3    3    0    0  0.11045607404E+02 -0.77740417644E+01 -0.11173729649E+02  0.17529786160E+02  0.51100000000E-03 0. -1.
        -11    1    3    3    0    0  0.70179472268E+01 -0.13398845446E+02 -0.17823843997E+02  0.23376699032E+02  0.51100000000E-03 0.  1.
         12    1    3    3    0    0  0.37116796699E+01 -0.52887521594E+01  0.23659118761E+01  0.68807706241E+01  0.00000000000E+00 0. -1.
</event>
<event>
 7    1  0.7596051E-010  0.4778727E+02  0.7816164E-02  0.1312668E+00
        -11   -1    0    0    0    0  0.00000000000E+00  0.00000000000E+00  0.45593999997E+02  0.45594000000E+02  0.51100000000E-03 0. -1.
         11   -1    0    0    0    0 -0.00000000000E+00 -0.00000000000E+00 -0.45593999997E+02  0.45594000000E+02  0.51100000000E-03 0.  1.
    9900012    2    1    2    0    0  0.22989703386E+02  0.27796198954E+02  0.24134380902E+02  0.47787268675E+02  0.19999989195E+02 0.  0.
        -12    1    1    2    0    0 -0.22989703386E+02 -0.27796198954E+02 -0.24134380902E+02  0.43400731325E+02  0.00000000000E+00 0.  1.
         11    1    3    3    0    0  0.66841819719E+01  0.63258529537E+01  0.34917436676E+01  0.98431183233E+01  0.51100000000E-03 0. -1.
        -11    1    3    3    0    0  0.23992938699E+01 -0.25520444092E+01  0.27031355100E+00  0.35132052911E+01  0.51100000000E-03 0.  1.
         12    1    3    3    0    0  0.13906227544E+02  0.24022390409E+02  0.20372323683E+02  0.34430945060E+02  0.00000000000E+00 0. -1.
</event>
<event>
 7    1  0.7596051E-010  0.4778727E+02  0.7816164E-02  0.1312668E+00
        -11   -1    0    0    0    0  0.00000000000E+00  0.00000000000E+00  0.45593999997E+02  0.45594000000E+02  0.51100000000E-03 0.  1.
         11   -1    0    0    0    0 -0.00000000000E+00 -0.00000000000E+00 -0.45593999997E+02  0.45594000000E+02  0.51100000000E-03 0. -1.
    9900012    2    1    2    0    0  0.36470892595E+02  0.22103783001E+02 -0.80572965326E+01  0.47787271238E+02  0.20000000884E+02 0.  0.
         12    1    1    2    0    0 -0.36470892595E+02 -0.22103783001E+02  0.80572965326E+01  0.43400728762E+02  0.00000000000E+00 0. -1.
         11    1    3    3    0    0  0.13963668393E+02  0.72261945123E+01 -0.17848542662E+01  0.15823641400E+02  0.51100000000E-03 0. -1.
        -11    1    3    3    0    0  0.20128929355E+02  0.17801989009E+02 -0.31245866219E+01  0.27052682889E+02  0.51100000000E-03 0.  1.
        -12    1    3    3    0    0  0.23782948461E+01 -0.29244005207E+01 -0.31478556445E+01  0.49109469494E+01  0.00000000000E+00 0.  1.
</event>
<event>
 7    1  0.7596051E-010  0.4778727E+02  0.7816164E-02  0.1312668E+00
        -11   -1    0    0    0    0  0.00000000000E+00  0.00000000000E+00  0.45593999997E+02  0.45594000000E+02  0.51100000000E-03 0. -1.
         11   -1    0    0    0    0 -0.00000000000E+00 -0.00000000000E+00 -0.45593999997E+02  0.45594000000E+02  0.51100000000E-03 0.  1.
    9900012    2    1    2    0    0 -0.15053539537E+02  0.28839396316E+01  0.40604149658E+02  0.47787272704E+02  0.20000007565E+02 0.  0.
        -12    1    1    2    0    0  0.15053539537E+02 -0.28839396316E+01 -0.40604149658E+02  0.43400727296E+02  0.00000000000E+00 0.  1.
         11    1    3    3    0    0 -0.99708355321E+01 -0.20909154957E+01  0.29910792360E+02  0.31598180148E+02  0.51100000000E-03 0. -1.
        -11    1    3    3    0    0 -0.61843328399E+01 -0.55937222698E+00  0.73821893583E+01  0.96465325349E+01  0.51100000000E-03 0.  1.
        -12    1    3    3    0    0  0.11016288351E+01  0.55342273543E+01  0.33111679401E+01  0.65425600209E+01  0.00000000000E+00 0.  1.
</event>
<event>
 7    1  0.7596051E-010  0.4778728E+02  0.7816164E-02  0.1312668E+00
        -11   -1    0    0    0    0  0.00000000000E+00  0.00000000000E+00  0.45593999997E+02  0.45594000000E+02  0.51100000000E-03 0. -1.
         11   -1    0    0    0    0 -0.00000000000E+00 -0.00000000000E+00 -0.45593999997E+02  0.45594000000E+02  0.51100000000E-03 0.  1.
    9900012    2    1    2    0    0  0.40597505699E+02  0.13439524205E+02  0.74057166293E+01  0.47787275137E+02  0.20000018659E+02 0.  0.
        -12    1    1    2    0    0 -0.40597505699E+02 -0.13439524205E+02 -0.74057166293E+01  0.43400724863E+02  0.00000000000E+00 0.  1.
         11    1    3    3    0    0  0.38950655663E+00 -0.90627689176E+00  0.37285602419E+00  0.10545496850E+01  0.51100000000E-03 0. -1.
        -11    1    3    3    0    0  0.79722595106E-01 -0.17111001946E+01 -0.19416710726E+01  0.25892675380E+01  0.51100000000E-03 0.  1.
         12    1    3    3    0    0  0.40128276548E+02  0.16056901291E+02  0.89745316778E+01  0.44143457914E+02  0.00000000000E+00 0. -1.
</event>
<event>
 7    1  0.7596051E-010  0.4778728E+02  0.7816164E-02  0.1312668E+00
        -11   -1    0    0    0    0  0.00000000000E+00  0.00000000000E+00  0.45593999997E+02  0.45594000000E+02  0.51100000000E-03 0. -1.
         11   -1    0    0    0    0 -0.00000000000E+00 -0.00000000000E+00 -0.45593999997E+02  0.45594000000E+02  0.51100000000E-03 0.  1.
    9900012    2    1    2    0    0 -0.75572207981E+01  0.24648446871E+02 -0.34913684862E+02  0.47787275236E+02  0.20000019113E+02 0.  0.
         12    1    1    2    0    0  0.75572207981E+01 -0.24648446871E+02  0.34913684862E+02  0.43400724764E+02  0.00000000000E+00 0. -1.
         11    1    3    3    0    0 -0.61561112975E+00  0.41602879443E+01 -0.16911517754E+02  0.17426600525E+02  0.51100000000E-03 0. -1.
        -11    1    3    3    0    0 -0.36840210119E+01  0.29438809286E+01 -0.94752049169E+01  0.10583853467E+02  0.51100000000E-03 0.  1.
         12    1    3    3    0    0 -0.32575886564E+01  0.17544277998E+02 -0.85269621916E+01  0.19776821245E+02  0.00000000000E+00 0. -1.
</event>
<event>
 7    1  0.7596051E-010  0.4778727E+02  0.7816164E-02  0.1312668E+00
        -11   -1    0    0    0    0  0.00000000000E+00  0.00000000000E+00  0.45593999997E+02  0.45594000000E+02  0.51100000000E-03 0. -1.
         11   -1    0    0    0    0 -0.00000000000E+00 -0.00000000000E+00 -0.45593999997E+02  0.45594000000E+02  0.51100000000E-03 0.  1.
    9900012    2    1    2    0    0  0.16815286511E+02  0.15452738190E+02 -0.36906399605E+02  0.47787270630E+02  0.19999998110E+02 0.  0.
         12    1    1    2    0    0 -0.16815286511E+02 -0.15452738190E+02  0.36906399605E+02  0.43400729370E+02  0.00000000000E+00 0. -1.
         11    1    3    3    0    0  0.14602445361E+01 -0.35405815309E+01 -0.97232949149E+01  0.10450382574E+02  0.51100000000E-03 0. -1.
        -11    1    3    3    0    0  0.53995288908E+01  0.32845886596E+01 -0.10988408034E+02  0.12676298604E+02  0.51100000000E-03 0.  1.
        -12    1    3    3    0    0  0.99555130839E+01  0.15708731062E+02 -0.16194696656E+02  0.24660589452E+02  0.00000000000E+00 0.  1.
</event>
<event>
 7    1  0.7596051E-010  0.4778727E+02  0.7816164E-02  0.1312668E+00
        -11   -1    0    0    0    0  0.00000000000E+00  0.00000000000E+00  0.45593999997E+02  0.45594000000E+02  0.51100000000E-03 0. -1.
         11   -1    0    0    0    0 -0.00000000000E+00 -0.00000000000E+00 -0.45593999997E+02  0.45594000000E+02  0.51100000000E-03 0.  1.
    9900012    2    1    2    0    0 -0.26476103843E+02 -0.32743223243E+02 -0.10512864097E+02  0.47787273571E+02  0.20000011520E+02 0.  0.
         12    1    1    2    0    0  0.26476103843E+02  0.32743223243E+02  0.10512864097E+02  0.43400726429E+02  0.00000000000E+00 0. -1.
         11    1    3    3    0    0 -0.98659073640E+01 -0.37893868429E+01 -0.29540311144E+01  0.10973690393E+02  0.51100000000E-03 0. -1.
        -11    1    3    3    0    0 -0.17045181478E+02 -0.22103997455E+02 -0.98157481084E+01  0.29588406958E+02  0.51100000000E-03 0.  1.
        -12    1    3    3    0    0  0.43498499960E+00 -0.68498389453E+01  0.22569151260E+01  0.72251762202E+01  0.00000000000E+00 0.  1.
</event>
<event>
 7    1  0.7596051E-010  0.4778727E+02  0.7816164E-02  0.1312668E+00
        -11   -1    0    0    0    0  0.00000000000E+00  0.00000000000E+00  0.45593999997E+02  0.45594000000E+02  0.51100000000E-03 0. -1.
         11   -1    0    0    0    0 -0.00000000000E+00 -0.00000000000E+00 -0.45593999997E+02  0.45594000000E+02  0.51100000000E-03 0.  1.
    9900012    2    1    2    0    0  0.35078745540E+02  0.14683496440E+01 -0.25513699037E+02  0.47787270998E+02  0.19999999789E+02 0.  0.
         12    1    1    2    0    0 -0.35078745540E+02 -0.14683496440E+01  0.25513699037E+02  0.43400729002E+02  0.00000000000E+00 0. -1.
         11    1    3    3    0    0  0.22551741678E+01  0.63416653741E+00  0.92383133011E+00  0.25182220538E+01  0.51100000000E-03 0. -1.
        -11    1    3    3    0    0  0.25476810812E+02  0.67228176420E+01 -0.23761714831E+02  0.35480744893E+02  0.51100000000E-03 0.  1.
        -12    1    3    3    0    0  0.73467605604E+01 -0.58886345354E+01 -0.26758155364E+01  0.97883040517E+01  0.00000000000E+00 0.  1.
</event>
<event>
 7    1  0.7596051E-010  0.4778727E+02  0.7816164E-02  0.1312668E+00
        -11   -1    0    0    0    0  0.00000000000E+00  0.00000000000E+00  0.45593999997E+02  0.45594000000E+02  0.51100000000E-03 0. -1.
         11   -1    0    0    0    0 -0.00000000000E+00 -0.00000000000E+00 -0.45593999997E+02  0.45594000000E+02  0.51100000000E-03 0.  1.
    9900012    2    1    2    0    0 -0.28098433634E+02 -0.10261553081E+02  0.31445219740E+02  0.47787270872E+02  0.19999999215E+02 0.  0.
        -12    1    1    2    0    0  0.28098433634E+02  0.10261553081E+02 -0.31445219740E+02  0.43400729128E+02  0.00000000000E+00 0.  1.
         11    1    3    3    0    0 -0.11646327143E+02 -0.47039463949E+01  0.12533289904E+01  0.12622792141E+02  0.51100000000E-03 0.  1.
        -11    1    3    3    0    0 -0.50756931406E+01 -0.24430173623E+01  0.58821921631E+01  0.81443955942E+01  0.51100000000E-03 0. -1.
        -12    1    3    3    0    0 -0.11376413350E+02 -0.31145893240E+01  0.24309698587E+02  0.27020083137E+02  0.00000000000E+00 0.  1.
</event>
<event>
 7    1  0.7596051E-010  0.4778727E+02  0.7816164E-02  0.1312668E+00
        -11   -1    0    0    0    0  0.00000000000E+00  0.00000000000E+00  0.45593999997E+02  0.45594000000E+02  0.51100000000E-03 0. -1.
         11   -1    0    0    0    0 -0.00000000000E+00 -0.00000000000E+00 -0.45593999997E+02  0.45594000000E+02  0.51100000000E-03 0.  1.
    9900012    2    1    2    0    0  0.34748623821E+02  0.16319905969E+01  0.25951744957E+02  0.47787270547E+02  0.19999997732E+02 0.  0.
        -12    1    1    2    0    0 -0.34748623821E+02 -0.16319905969E+01 -0.25951744957E+02  0.43400729453E+02  0.00000000000E+00 0.  1.
         11    1    3    3    0    0  0.40308142049E+01  0.11502293634E+01  0.81939904959E-01  0.41925177581E+01  0.51100000000E-03 0.  1.
        -11    1    3    3    0    0  0.29439134884E+02  0.53476949994E+01  0.20716666464E+02  0.36392867078E+02  0.51100000000E-03 0. -1.
         12    1    3    3    0    0  0.12786747317E+01 -0.48659337658E+01  0.51531385877E+01  0.72018857105E+01  0.00000000000E+00 0. -1.
</event>
<event>
 7    1  0.7596051E-010  0.4778727E+02  0.7816164E-02  0.1312668E+00
        -11   -1    0    0    0    0  0.00000000000E+00  0.00000000000E+00  0.45593999997E+02  0.45594000000E+02  0.51100000000E-03 0.  1.
         11   -1    0    0    0    0 -0.00000000000E+00 -0.00000000000E+00 -0.45593999997E+02  0.45594000000E+02  0.51100000000E-03 0. -1.
    9900012    2    1    2    0    0 -0.34595853214E+02 -0.26075963711E+02  0.26065663936E+01  0.47787272686E+02  0.20000007483E+02 0.  0.
         12    1    1    2    0    0  0.34595853214E+02  0.26075963711E+02 -0.26065663936E+01  0.43400727314E+02  0.00000000000E+00 0. -1.
         11    1    3    3    0    0 -0.49487761776E+01 -0.10689699580E+02  0.14864127040E+01  0.11873057136E+02  0.51100000000E-03 0. -1.
        -11    1    3    3    0    0 -0.19733884519E+02 -0.16385808344E+02  0.28281785452E+01  0.25805416243E+02  0.51100000000E-03 0.  1.
         12    1    3    3    0    0 -0.99131925174E+01  0.99954421391E+00 -0.17080248556E+01  0.10108799307E+02  0.00000000000E+00 0. -1.
</event>
<event>
 7    1  0.7596051E-010  0.4778726E+02  0.7816164E-02  0.1312668E+00
        -11   -1    0    0    0    0  0.00000000000E+00  0.00000000000E+00  0.45593999997E+02  0.45594000000E+02  0.51100000000E-03 0. -1.
         11   -1    0    0    0    0 -0.00000000000E+00 -0.00000000000E+00 -0.45593999997E+02  0.45594000000E+02  0.51100000000E-03 0.  1.
    9900012    2    1    2    0    0 -0.16219773563E+02  0.32140891971E+02  0.24238519836E+02  0.47787264581E+02  0.19999970529E+02 0.  0.
        -12    1    1    2    0    0  0.16219773563E+02 -0.32140891971E+02 -0.24238519836E+02  0.43400735419E+02  0.00000000000E+00 0.  1.
         11    1    3    3    0    0 -0.48869751030E+00  0.63015611600E+01  0.82418479051E+01  0.10386363919E+02  0.51100000000E-03 0. -1.
        -11    1    3    3    0    0  0.10999859749E+01  0.77555862400E+01 -0.24277976609E+00  0.78369655701E+01  0.51100000000E-03 0.  1.
        -12    1    3    3    0    0 -0.16831062028E+02  0.18083744571E+02  0.16239451697E+02  0.29563935091E+02  0.00000000000E+00 0.  1.
</event>
<event>
 7    1  0.7596051E-010  0.4778726E+02  0.7816164E-02  0.1312668E+00
        -11   -1    0    0    0    0  0.00000000000E+00  0.00000000000E+00  0.45593999997E+02  0.45594000000E+02  0.51100000000E-03 0. -1.
         11   -1    0    0    0    0 -0.00000000000E+00 -0.00000000000E+00 -0.45593999997E+02  0.45594000000E+02  0.51100000000E-03 0.  1.
    9900012    2    1    2    0    0 -0.12788085655E+02 -0.70022413837E+01 -0.40878569448E+02  0.47787263149E+02  0.19999964001E+02 0.  0.
         12    1    1    2    0    0  0.12788085655E+02  0.70022413837E+01  0.40878569448E+02  0.43400736851E+02  0.00000000000E+00 0. -1.
         11    1    3    3    0    0 -0.80536388083E+00 -0.71540356205E+01 -0.85191309721E+01  0.11153673360E+02  0.51100000000E-03 0. -1.
        -11    1    3    3    0    0 -0.79591314847E+01 -0.54087995597E+01 -0.13618475885E+02  0.16675304266E+02  0.51100000000E-03 0.  1.
        -12    1    3    3    0    0 -0.40235902890E+01  0.55605937965E+01 -0.18740962591E+02  0.19958285523E+02  0.00000000000E+00 0.  1.
</event>
<event>
 7    1  0.7596051E-010  0.4778727E+02  0.7816164E-02  0.1312668E+00
        -11   -1    0    0    0    0  0.00000000000E+00  0.00000000000E+00  0.45593999997E+02  0.45594000000E+02  0.51100000000E-03 0. -1.
         11   -1    0    0    0    0 -0.00000000000E+00 -0.00000000000E+00 -0.45593999997E+02  0.45594000000E+02  0.51100000000E-03 0.  1.
    9900012    2    1    2    0    0 -0.18289030069E+02  0.30483255333E+02 -0.24897903891E+02  0.47787273108E+02  0.20000009409E+02 0.  0.
         12    1    1    2    0    0  0.18289030069E+02 -0.30483255333E+02  0.24897903891E+02  0.43400726892E+02  0.00000000000E+00 0. -1.
         11    1    3    3    0    0 -0.37934784468E+00  0.11194418060E+02 -0.65644866888E+00  0.11220063530E+02  0.51100000000E-03 0. -1.
        -11    1    3    3    0    0 -0.52793479156E+00 -0.25260293614E+00  0.33855641199E+00  0.67612431749E+00  0.51100000000E-03 0.  1.
        -12    1    3    3    0    0 -0.17381747433E+02  0.19541440209E+02 -0.24580011634E+02  0.35891085261E+02  0.00000000000E+00 0.  1.
</event>
<event>
 7    1  0.7596051E-010  0.4778727E+02  0.7816164E-02  0.1312668E+00
        -11   -1    0    0    0    0  0.00000000000E+00  0.00000000000E+00  0.45593999997E+02  0.45594000000E+02  0.51100000000E-03 0. -1.
         11   -1    0    0    0    0 -0.00000000000E+00 -0.00000000000E+00 -0.45593999997E+02  0.45594000000E+02  0.51100000000E-03 0.  1.
    9900012    2    1    2    0    0 -0.94273745842E+01 -0.16822504873E+01  0.42331055501E+02  0.47787267079E+02  0.19999981918E+02 0.  0.
        -12    1    1    2    0    0  0.94273745842E+01  0.16822504873E+01 -0.42331055501E+02  0.43400732921E+02  0.00000000000E+00 0.  1.
         11    1    3    3    0    0 -0.17598525518E+01 -0.30558752152E+01  0.63595949723E+01  0.72718569023E+01  0.51100000000E-03 0. -1.
        -11    1    3    3    0    0  0.50613795634E+00  0.44984326436E+01  0.28934145991E+02  0.29286120883E+02  0.51100000000E-03 0.  1.
         12    1    3    3    0    0 -0.81736599888E+01 -0.31248079156E+01  0.70373145377E+01  0.11229289293E+02  0.00000000000E+00 0. -1.
</event>
<event>
 7    1  0.7596051E-010  0.4778728E+02  0.7816164E-02  0.1312668E+00
        -11   -1    0    0    0    0  0.00000000000E+00  0.00000000000E+00  0.45593999997E+02  0.45594000000E+02  0.51100000000E-03 0. -1.
         11   -1    0    0    0    0 -0.00000000000E+00 -0.00000000000E+00 -0.45593999997E+02  0.45594000000E+02  0.51100000000E-03 0.  1.
    9900012    2    1    2    0    0  0.38431018236E+02  0.13864721224E+02  0.14644077236E+02  0.47787278170E+02  0.20000032489E+02 0.  0.
        -12    1    1    2    0    0 -0.38431018236E+02 -0.13864721224E+02 -0.14644077236E+02  0.43400721830E+02  0.00000000000E+00 0.  1.
         11    1    3    3    0    0  0.69103173601E+01  0.79419005150E+01 -0.20379656773E+01  0.10722852893E+02  0.51100000000E-03 0. -1.
        -11    1    3    3    0    0  0.38519365188E+01  0.17264354026E+01  0.54877247354E+01  0.69233746956E+01  0.51100000000E-03 0.  1.
        -12    1    3    3    0    0  0.27668764357E+02  0.41963853067E+01  0.11194318178E+02  0.30141050581E+02  0.00000000000E+00 0.  1.
</event>
<event>
 7    1  0.7596051E-010  0.4778727E+02  0.7816164E-02  0.1312668E+00
        -11   -1    0    0    0    0  0.00000000000E+00  0.00000000000E+00  0.45593999997E+02  0.45594000000E+02  0.51100000000E-03 0. -1.
         11   -1    0    0    0    0 -0.00000000000E+00 -0.00000000000E+00 -0.45593999997E+02  0.45594000000E+02  0.51100000000E-03 0.  1.
    9900012    2    1    2    0    0  0.54026751592E+00  0.34609901730E+01 -0.43259138065E+02  0.47787269959E+02  0.19999995051E+02 0.  0.
         12    1    1    2    0    0 -0.54026751592E+00 -0.34609901730E+01  0.43259138065E+02  0.43400730041E+02  0.00000000000E+00 0. -1.
         11    1    3    3    0    0  0.49842327704E+00 -0.32145224013E+01 -0.44160056317E+00  0.32827719004E+01  0.51100000000E-03 0. -1.
        -11    1    3    3    0    0 -0.46954767769E+00 -0.23480992949E+01 -0.16622288551E+02  0.16793883478E+02  0.51100000000E-03 0.  1.
         12    1    3    3    0    0  0.51139191657E+00  0.90236118692E+01 -0.26195248951E+02  0.27710614581E+02  0.00000000000E+00 0. -1.
</event>
<event>
 7    1  0.7596051E-010  0.4778727E+02  0.7816164E-02  0.1312668E+00
        -11   -1    0    0    0    0  0.00000000000E+00  0.00000000000E+00  0.45593999997E+02  0.45594000000E+02  0.51100000000E-03 0. -1.
         11   -1    0    0    0    0 -0.00000000000E+00 -0.00000000000E+00 -0.45593999997E+02  0.45594000000E+02  0.51100000000E-03 0.  1.
    9900012    2    1    2    0    0 -0.37827004429E+02 -0.15382705564E+01  0.21222030587E+02  0.47787272787E+02  0.20000007946E+02 0.  0.
        -12    1    1    2    0    0  0.37827004429E+02  0.15382705564E+01 -0.21222030587E+02  0.43400727213E+02  0.00000000000E+00 0.  1.
         11    1    3    3    0    0 -0.11747108445E+02 -0.44247312788E+01  0.11361860593E+02  0.16931174800E+02  0.51100000000E-03 0. -1.
        -11    1    3    3    0    0 -0.11659191162E+02 -0.51255665272E+01  0.45849855049E+01  0.13536257352E+02  0.51100000000E-03 0.  1.
         12    1    3    3    0    0 -0.14420704823E+02  0.80120272496E+01  0.52751844889E+01  0.17319840635E+02  0.00000000000E+00 0. -1.
</event>
<event>
 7    1  0.7596051E-010  0.4778727E+02  0.7816164E-02  0.1312668E+00
        -11   -1    0    0    0    0  0.00000000000E+00  0.00000000000E+00  0.45593999997E+02  0.45594000000E+02  0.51100000000E-03 0. -1.
         11   -1    0    0    0    0 -0.00000000000E+00 -0.00000000000E+00 -0.45593999997E+02  0.45594000000E+02  0.51100000000E-03 0.  1.
    9900012    2    1    2    0    0  0.13794624009E+02 -0.12465737256E+02  0.39216536598E+02  0.47787274204E+02  0.20000014404E+02 0.  0.
        -12    1    1    2    0    0 -0.13794624009E+02  0.12465737256E+02 -0.39216536598E+02  0.43400725796E+02  0.00000000000E+00 0.  1.
         11    1    3    3    0    0  0.18224859784E+01 -0.49220150756E+01  0.10462628084E+01  0.53518551617E+01  0.51100000000E-03 0.  1.
        -11    1    3    3    0    0  0.59985936226E+00 -0.69789979430E+01  0.17234917332E+02  0.18603994712E+02  0.51100000000E-03 0. -1.
         12    1    3    3    0    0  0.11372278669E+02 -0.56472423784E+00  0.20935356457E+02  0.23831424330E+02  0.00000000000E+00 0. -1.
</event>
<event>
 7    1  0.7596051E-010  0.4778727E+02  0.7816164E-02  0.1312668E+00
        -11   -1    0    0    0    0  0.00000000000E+00  0.00000000000E+00  0.45593999997E+02  0.45594000000E+02  0.51100000000E-03 0. -1.
         11   -1    0    0    0    0 -0.00000000000E+00 -0.00000000000E+00 -0.45593999997E+02  0.45594000000E+02  0.51100000000E-03 0.  1.
    9900012    2    1    2    0    0 -0.13321558113E+02  0.29061845660E+02  0.29352486188E+02  0.47787271559E+02  0.20000002348E+02 0.  0.
        -12    1    1    2    0    0  0.13321558113E+02 -0.29061845660E+02 -0.29352486188E+02  0.43400728441E+02  0.00000000000E+00 0.  1.
         11    1    3    3    0    0 -0.24263799854E+01  0.11589127908E+02  0.16066499436E+02  0.19958146455E+02  0.51100000000E-03 0. -1.
        -11    1    3    3    0    0 -0.30093307112E+01  0.14629322004E+02  0.12376378688E+02  0.19397110180E+02  0.51100000000E-03 0.  1.
        -12    1    3    3    0    0 -0.78858474169E+01  0.28433957479E+01  0.90960806338E+00  0.84320149247E+01  0.00000000000E+00 0.  1.
</event>
<event>
 7    1  0.7596051E-010  0.4778727E+02  0.7816164E-02  0.1312668E+00
        -11   -1    0    0    0    0  0.00000000000E+00  0.00000000000E+00  0.45593999997E+02  0.45594000000E+02  0.51100000000E-03 0. -1.
         11   -1    0    0    0    0 -0.00000000000E+00 -0.00000000000E+00 -0.45593999997E+02  0.45594000000E+02  0.51100000000E-03 0.  1.
    9900012    2    1    2    0    0 -0.23548931503E+02 -0.32457782822E+02  0.16600110325E+02  0.47787268399E+02  0.19999987941E+02 0.  0.
        -12    1    1    2    0    0  0.23548931503E+02  0.32457782822E+02 -0.16600110325E+02  0.43400731601E+02  0.00000000000E+00 0.  1.
         11    1    3    3    0    0 -0.10190875054E+01 -0.98506175182E+01  0.38661135552E+01  0.10631088332E+02  0.51100000000E-03 0. -1.
        -11    1    3    3    0    0  0.70934635507E+00 -0.60912413800E+01  0.56803014918E+00  0.61586566971E+01  0.51100000000E-03 0.  1.
        -12    1    3    3    0    0 -0.23239190353E+02 -0.16515923924E+02  0.12165966620E+02  0.30997523371E+02  0.00000000000E+00 0.  1.
</event>
<event>
 7    1  0.7596051E-010  0.4778728E+02  0.7816164E-02  0.1312668E+00
        -11   -1    0    0    0    0  0.00000000000E+00  0.00000000000E+00  0.45593999997E+02  0.45594000000E+02  0.51100000000E-03 0. -1.
         11   -1    0    0    0    0 -0.00000000000E+00 -0.00000000000E+00 -0.45593999997E+02  0.45594000000E+02  0.51100000000E-03 0.  1.
    9900012    2    1    2    0    0 -0.24729461617E+01  0.13259866988E+02  0.41251463691E+02  0.47787276597E+02  0.20000025314E+02 0.  0.
        -12    1    1    2    0    0  0.24729461617E+01 -0.13259866988E+02 -0.41251463691E+02  0.43400723403E+02  0.00000000000E+00 0.  1.
         11    1    3    3    0    0 -0.34697213718E+01  0.91425181880E+01  0.25369841599E+02  0.27189216028E+02  0.51100000000E-03 0. -1.
        -11    1    3    3    0    0  0.45759984795E+01  0.44267724931E+01  0.15766673657E+02  0.17003648881E+02  0.51100000000E-03 0.  1.
         12    1    3    3    0    0 -0.35792232694E+01 -0.30942369299E+00  0.11494843504E+00  0.35944116872E+01  0.00000000000E+00 0. -1.
</event>
<event>
 7    1  0.7596051E-010  0.4778727E+02  0.7816164E-02  0.1312668E+00
        -11   -1    0    0    0    0  0.00000000000E+00  0.00000000000E+00  0.45593999997E+02  0.45594000000E+02  0.51100000000E-03 0. -1.
         11   -1    0    0    0    0 -0.00000000000E+00 -0.00000000000E+00 -0.45593999997E+02  0.45594000000E+02  0.51100000000E-03 0.  1.
    9900012    2    1    2    0    0  0.19052059050E+02 -0.32314433874E+02 -0.21827036975E+02  0.47787272659E+02  0.20000007360E+02 0.  0.
         12    1    1    2    0    0 -0.19052059050E+02  0.32314433874E+02  0.21827036975E+02  0.43400727341E+02  0.00000000000E+00 0. -1.
         11    1    3    3    0    0  0.12130316970E+02 -0.11254017442E+02 -0.68204299044E+01  0.17897367481E+02  0.51100000000E-03 0. -1.
        -11    1    3    3    0    0  0.80753389646E+01 -0.48162375214E+01 -0.71288934925E+01  0.11799507021E+02  0.51100000000E-03 0.  1.
         12    1    3    3    0    0 -0.11535968850E+01 -0.16244178911E+02 -0.78777135781E+01  0.18090398157E+02  0.00000000000E+00 0. -1.
</event>
<event>
 7    1  0.7596051E-010  0.4778727E+02  0.7816164E-02  0.1312668E+00
        -11   -1    0    0    0    0  0.00000000000E+00  0.00000000000E+00  0.45593999997E+02  0.45594000000E+02  0.51100000000E-03 0. -1.
         11   -1    0    0    0    0 -0.00000000000E+00 -0.00000000000E+00 -0.45593999997E+02  0.45594000000E+02  0.51100000000E-03 0.  1.
    9900012    2    1    2    0    0 -0.31683622830E+02 -0.21140408701E+02  0.20805149849E+02  0.47787273095E+02  0.20000009349E+02 0.  0.
        -12    1    1    2    0    0  0.31683622830E+02  0.21140408701E+02 -0.20805149849E+02  0.43400726905E+02  0.00000000000E+00 0.  1.
         11    1    3    3    0    0 -0.43049258119E+01 -0.22821125388E+01 -0.35280927806E+01  0.60156348638E+01  0.51100000000E-03 0. -1.
        -11    1    3    3    0    0 -0.24178974485E+01 -0.30300396624E+01  0.54862715572E+01  0.67176293652E+01  0.51100000000E-03 0.  1.
         12    1    3    3    0    0 -0.24960799569E+02 -0.15828256499E+02  0.18846971073E+02  0.35054008866E+02  0.00000000000E+00 0. -1.
</event>
<event>
 7    1  0.7596051E-010  0.4778728E+02  0.7816164E-02  0.1312668E+00
        -11   -1    0    0    0    0  0.00000000000E+00  0.00000000000E+00  0.45593999997E+02  0.45594000000E+02  0.51100000000E-03 0. -1.
         11   -1    0    0    0    0 -0.00000000000E+00 -0.00000000000E+00 -0.45593999997E+02  0.45594000000E+02  0.51100000000E-03 0.  1.
    9900012    2    1    2    0    0  0.28584776402E+01  0.44369188197E+01 -0.43078599017E+02  0.47787276086E+02  0.20000022987E+02 0.  0.
         12    1    1    2    0    0 -0.28584776402E+01 -0.44369188197E+01  0.43078599017E+02  0.43400723914E+02  0.00000000000E+00 0. -1.
         11    1    3    3    0    0  0.61756540251E+01 -0.16554948432E+01 -0.85136792504E+01  0.10647163963E+02  0.51100000000E-03 0. -1.
        -11    1    3    3    0    0  0.30889209025E+01 -0.15438600266E+01 -0.11654841041E+02  0.12155667653E+02  0.51100000000E-03 0.  1.
         12    1    3    3    0    0 -0.64060972874E+01  0.76362736895E+01 -0.22910078725E+02  0.24984444470E+02  0.00000000000E+00 0. -1.
</event>
<event>
 7    1  0.7596051E-010  0.4778727E+02  0.7816164E-02  0.1312668E+00
        -11   -1    0    0    0    0  0.00000000000E+00  0.00000000000E+00  0.45593999997E+02  0.45594000000E+02  0.51100000000E-03 0.  1.
         11   -1    0    0    0    0 -0.00000000000E+00 -0.00000000000E+00 -0.45593999997E+02  0.45594000000E+02  0.51100000000E-03 0. -1.
    9900012    2    1    2    0    0  0.41237600259E+01  0.43204356788E+02 -0.39714099573E-01  0.47787269367E+02  0.19999992354E+02 0.  0.
         12    1    1    2    0    0 -0.41237600259E+01 -0.43204356788E+02  0.39714099573E-01  0.43400730633E+02  0.00000000000E+00 0. -1.
         11    1    3    3    0    0  0.49076433938E+01  0.36324816300E+01 -0.19266303236E+01  0.64024832009E+01  0.51100000000E-03 0. -1.
        -11    1    3    3    0    0 -0.24213912813E+01  0.26345087615E+02  0.65673545478E+01  0.27259070475E+02  0.51100000000E-03 0.  1.
         12    1    3    3    0    0  0.16375079134E+01  0.13226787544E+02 -0.46804383238E+01  0.14125715691E+02  0.00000000000E+00 0. -1.
</event>
<event>
 7    1  0.7596051E-010  0.4778728E+02  0.7816164E-02  0.1312668E+00
        -11   -1    0    0    0    0  0.00000000000E+00  0.00000000000E+00  0.45593999997E+02  0.45594000000E+02  0.51100000000E-03 0. -1.
         11   -1    0    0    0    0 -0.00000000000E+00 -0.00000000000E+00 -0.45593999997E+02  0.45594000000E+02  0.51100000000E-03 0.  1.
    9900012    2    1    2    0    0  0.11222277244E+02  0.97700665100E+00 -0.41913348438E+02  0.47787276206E+02  0.20000023534E+02 0.  0.
         12    1    1    2    0    0 -0.11222277244E+02 -0.97700665100E+00  0.41913348438E+02  0.43400723794E+02  0.00000000000E+00 0. -1.
         11    1    3    3    0    0  0.24920773738E+01  0.38844822467E+01 -0.22353002592E+01  0.51279839579E+01  0.51100000000E-03 0. -1.
        -11    1    3    3    0    0 -0.60968263524E+00  0.26339593032E+01 -0.20012758536E+02  0.20194552706E+02  0.51100000000E-03 0.  1.
         12    1    3    3    0    0  0.93398825050E+01 -0.55414348990E+01 -0.19665289644E+02  0.22464739542E+02  0.00000000000E+00 0. -1.
</event>
<event>
 7    1  0.7596051E-010  0.4778727E+02  0.7816164E-02  0.1312668E+00
        -11   -1    0    0    0    0  0.00000000000E+00  0.00000000000E+00  0.45593999997E+02  0.45594000000E+02  0.51100000000E-03 0. -1.
         11   -1    0    0    0    0 -0.00000000000E+00 -0.00000000000E+00 -0.45593999997E+02  0.45594000000E+02  0.51100000000E-03 0.  1.
    9900012    2    1    2    0    0 -0.18251567635E+02 -0.37742305701E+02  0.11225952894E+02  0.47787269832E+02  0.19999994472E+02 0.  0.
        -12    1    1    2    0    0  0.18251567635E+02  0.37742305701E+02 -0.11225952894E+02  0.43400730168E+02  0.00000000000E+00 0.  1.
         11    1    3    3    0    0  0.44681838940E+00 -0.93398962959E+01  0.49102017242E+01  0.10561410451E+02  0.51100000000E-03 0. -1.
        -11    1    3    3    0    0 -0.12164272534E+01 -0.25612222112E+01  0.52993055657E+01  0.60101742253E+01  0.51100000000E-03 0.  1.
        -12    1    3    3    0    0 -0.17481958771E+02 -0.25841187194E+02  0.10164456045E+01  0.31215685155E+02  0.00000000000E+00 0.  1.
</event>
<event>
 7    1  0.7596051E-010  0.4778727E+02  0.7816164E-02  0.1312668E+00
        -11   -1    0    0    0    0  0.00000000000E+00  0.00000000000E+00  0.45593999997E+02  0.45594000000E+02  0.51100000000E-03 0. -1.
         11   -1    0    0    0    0 -0.00000000000E+00 -0.00000000000E+00 -0.45593999997E+02  0.45594000000E+02  0.51100000000E-03 0.  1.
    9900012    2    1    2    0    0 -0.34859107432E+02 -0.12801523552E+02  0.22463014597E+02  0.47787269580E+02  0.19999993321E+02 0.  0.
        -12    1    1    2    0    0  0.34859107432E+02  0.12801523552E+02 -0.22463014597E+02  0.43400730420E+02  0.00000000000E+00 0.  1.
         11    1    3    3    0    0 -0.18338169112E+02 -0.48217124029E+01  0.13783850392E+02  0.23442096509E+02  0.51100000000E-03 0. -1.
        -11    1    3    3    0    0 -0.15892426768E+02 -0.11058967561E+02  0.61612331154E+01  0.20318237765E+02  0.51100000000E-03 0.  1.
         12    1    3    3    0    0 -0.62851155241E+00  0.30791564120E+01  0.25179310897E+01  0.40269353054E+01  0.00000000000E+00 0. -1.
</event>
<event>
 7    1  0.7596051E-010  0.4778727E+02  0.7816164E-02  0.1312668E+00
        -11   -1    0    0    0    0  0.00000000000E+00  0.00000000000E+00  0.45593999997E+02  0.45594000000E+02  0.51100000000E-03 0. -1.
         11   -1    0    0    0    0 -0.00000000000E+00 -0.00000000000E+00 -0.45593999997E+02  0.45594000000E+02  0.51100000000E-03 0.  1.
    9900012    2    1    2    0    0  0.14076238839E+01  0.35725708083E+02  0.24603162737E+02  0.47787271438E+02  0.20000001794E+02 0.  0.
        -12    1    1    2    0    0 -0.14076238839E+01 -0.35725708083E+02 -0.24603162737E+02  0.43400728562E+02  0.00000000000E+00 0.  1.
         11    1    3    3    0    0  0.18713765812E+01  0.25582049588E+01  0.96694240962E+01  0.10175668309E+02  0.51100000000E-03 0. -1.
        -11    1    3    3    0    0 -0.58719435893E+00  0.20243365627E+01 -0.13148683080E+01  0.24842734678E+01  0.51100000000E-03 0.  1.
        -12    1    3    3    0    0  0.12344166170E+00  0.31143166562E+02  0.16248606949E+02  0.35127329661E+02  0.00000000000E+00 0.  1.
</event>
<event>
 7    1  0.7596051E-010  0.4778727E+02  0.7816164E-02  0.1312668E+00
        -11   -1    0    0    0    0  0.00000000000E+00  0.00000000000E+00  0.45593999997E+02  0.45594000000E+02  0.51100000000E-03 0. -1.
         11   -1    0    0    0    0 -0.00000000000E+00 -0.00000000000E+00 -0.45593999997E+02  0.45594000000E+02  0.51100000000E-03 0.  1.
    9900012    2    1    2    0    0 -0.28933429450E+01 -0.10310053687E+02 -0.42058939435E+02  0.47787273891E+02  0.20000012978E+02 0.  0.
         12    1    1    2    0    0  0.28933429450E+01  0.10310053687E+02  0.42058939435E+02  0.43400726109E+02  0.00000000000E+00 0. -1.
         11    1    3    3    0    0 -0.35570075252E+00  0.45122868778E-01 -0.23868320182E+01  0.24136127368E+01  0.51100000000E-03 0. -1.
        -11    1    3    3    0    0 -0.80157512841E+01  0.17582917648E+01 -0.20126341657E+02  0.21735075048E+02  0.51100000000E-03 0.  1.
         12    1    3    3    0    0  0.54781090916E+01 -0.12113468321E+02 -0.19545765759E+02  0.23638586106E+02  0.00000000000E+00 0. -1.
</event>
<event>
 7    1  0.7596051E-010  0.4778726E+02  0.7816164E-02  0.1312668E+00
        -11   -1    0    0    0    0  0.00000000000E+00  0.00000000000E+00  0.45593999997E+02  0.45594000000E+02  0.51100000000E-03 0. -1.
         11   -1    0    0    0    0 -0.00000000000E+00 -0.00000000000E+00 -0.45593999997E+02  0.45594000000E+02  0.51100000000E-03 0.  1.
    9900012    2    1    2    0    0 -0.21864765843E+02 -0.13655461046E+02 -0.34915386264E+02  0.47787264987E+02  0.19999972382E+02 0.  0.
         12    1    1    2    0    0  0.21864765843E+02  0.13655461046E+02  0.34915386264E+02  0.43400735013E+02  0.00000000000E+00 0. -1.
         11    1    3    3    0    0 -0.40680954994E+01  0.31003336648E+01 -0.14711470779E+02  0.15575263804E+02  0.51100000000E-03 0. -1.
        -11    1    3    3    0    0 -0.10530889565E+02 -0.71842651440E+01 -0.78168485268E+01  0.14953809610E+02  0.51100000000E-03 0.  1.
         12    1    3    3    0    0 -0.72657807785E+01 -0.95715295667E+01 -0.12387066958E+02  0.17258191573E+02  0.00000000000E+00 0. -1.
</event>
<event>
 7    1  0.1419475E-009  0.4778725E+02  0.7816164E-02  0.1312668E+00
        -11   -1    0    0    0    0  0.00000000000E+00  0.00000000000E+00  0.45593999997E+02  0.45594000000E+02  0.51100000000E-03 0. -1.
         11   -1    0    0    0    0 -0.00000000000E+00 -0.00000000000E+00 -0.45593999997E+02  0.45594000000E+02  0.51100000000E-03 0.  1.
    9900012    2    1    2    0    0 -0.25697738036E+02  0.13847384448E+02  0.32116989045E+02  0.47787253676E+02  0.19999920810E+02 0.  0.
        -12    1    1    2    0    0  0.25697738036E+02 -0.13847384448E+02 -0.32116989045E+02  0.43400746324E+02  0.00000000000E+00 0.  1.
         11    1    3    3    0    0 -0.15214419449E+02  0.45059138766E+01  0.27444265958E+02  0.31701254759E+02  0.51100000000E-03 0. -1.
        -11    1    3    3    0    0  0.57954570395E+00  0.20012332373E+01  0.99893461853E+00  0.23105580119E+01  0.51100000000E-03 0.  1.
         12    1    3    3    0    0 -0.11062864290E+02  0.73402373338E+01  0.36737884680E+01  0.13775440905E+02  0.00000000000E+00 0. -1.
</event>
<event>
 7    1  0.7596051E-010  0.4778727E+02  0.7816164E-02  0.1312668E+00
        -11   -1    0    0    0    0  0.00000000000E+00  0.00000000000E+00  0.45593999997E+02  0.45594000000E+02  0.51100000000E-03 0. -1.
         11   -1    0    0    0    0 -0.00000000000E+00 -0.00000000000E+00 -0.45593999997E+02  0.45594000000E+02  0.51100000000E-03 0.  1.
    9900012    2    1    2    0    0  0.39664005303E+02 -0.50265207380E+01  0.16885618247E+02  0.47787270386E+02  0.19999996998E+02 0.  0.
        -12    1    1    2    0    0 -0.39664005303E+02  0.50265207380E+01 -0.16885618247E+02  0.43400729614E+02  0.00000000000E+00 0.  1.
         11    1    3    3    0    0  0.10373782666E+02  0.27983260190E+01 -0.80837203037E+00  0.10774945982E+02  0.51100000000E-03 0. -1.
        -11    1    3    3    0    0  0.99279227346E+00 -0.29461935011E+01 -0.30303241387E+00  0.31237031788E+01  0.51100000000E-03 0.  1.
         12    1    3    3    0    0  0.28297430364E+02 -0.48786532559E+01  0.17997022692E+02  0.33888621225E+02  0.00000000000E+00 0. -1.
</event>
<event>
 7    1  0.7596051E-010  0.4778727E+02  0.7816164E-02  0.1312668E+00
        -11   -1    0    0    0    0  0.00000000000E+00  0.00000000000E+00  0.45593999997E+02  0.45594000000E+02  0.51100000000E-03 0. -1.
         11   -1    0    0    0    0 -0.00000000000E+00 -0.00000000000E+00 -0.45593999997E+02  0.45594000000E+02  0.51100000000E-03 0.  1.
    9900012    2    1    2    0    0  0.16005071732E+01  0.32087578454E+02 -0.29179592996E+02  0.47787274641E+02  0.20000016399E+02 0.  0.
         12    1    1    2    0    0 -0.16005071732E+01 -0.32087578454E+02  0.29179592996E+02  0.43400725359E+02  0.00000000000E+00 0. -1.
         11    1    3    3    0    0 -0.19930882684E+01  0.16969416251E+02 -0.95046184637E+01  0.19551758518E+02  0.51100000000E-03 0. -1.
        -11    1    3    3    0    0 -0.40671619363E+01  0.10186708178E+02 -0.12563176583E+02  0.16677656785E+02  0.51100000000E-03 0.  1.
         12    1    3    3    0    0  0.76607573778E+01  0.49314540246E+01 -0.71117979493E+01  0.11557859338E+02  0.00000000000E+00 0. -1.
</event>
<event>
 7    1  0.7596051E-010  0.4778727E+02  0.7816164E-02  0.1312668E+00
        -11   -1    0    0    0    0  0.00000000000E+00  0.00000000000E+00  0.45593999997E+02  0.45594000000E+02  0.51100000000E-03 0. -1.
         11   -1    0    0    0    0 -0.00000000000E+00 -0.00000000000E+00 -0.45593999997E+02  0.45594000000E+02  0.51100000000E-03 0.  1.
    9900012    2    1    2    0    0  0.59827919249E+01 -0.17503681626E+01 -0.42950732103E+02  0.47787274475E+02  0.20000015641E+02 0.  0.
         12    1    1    2    0    0 -0.59827919249E+01  0.17503681626E+01  0.42950732103E+02  0.43400725525E+02  0.00000000000E+00 0. -1.
         11    1    3    3    0    0 -0.47015021750E+00 -0.38117564496E+01 -0.85266252620E+01  0.93516772334E+01  0.51100000000E-03 0. -1.
        -11    1    3    3    0    0 -0.25548530656E+01  0.87848557310E+00 -0.25694572446E+02  0.25836216142E+02  0.51100000000E-03 0.  1.
         12    1    3    3    0    0  0.90077952081E+01  0.11829027140E+01 -0.87295343954E+01  0.12599381100E+02  0.00000000000E+00 0. -1.
</event>
<event>
 7    1  0.7596051E-010  0.4778727E+02  0.7816164E-02  0.1312668E+00
        -11   -1    0    0    0    0  0.00000000000E+00  0.00000000000E+00  0.45593999997E+02  0.45594000000E+02  0.51100000000E-03 0. -1.
         11   -1    0    0    0    0 -0.00000000000E+00 -0.00000000000E+00 -0.45593999997E+02  0.45594000000E+02  0.51100000000E-03 0.  1.
    9900012    2    1    2    0    0 -0.62657583527E+01  0.83763614384E+01  0.42121255095E+02  0.47787270865E+02  0.19999999183E+02 0.  0.
        -12    1    1    2    0    0  0.62657583527E+01 -0.83763614384E+01 -0.42121255095E+02  0.43400729135E+02  0.00000000000E+00 0.  1.
         11    1    3    3    0    0  0.27057351312E+01 -0.10356871622E+00  0.80262817144E+01  0.84707099761E+01  0.51100000000E-03 0. -1.
        -11    1    3    3    0    0 -0.50365218726E+01 -0.21164108348E+00  0.26896370006E+02  0.27364686446E+02  0.51100000000E-03 0.  1.
        -12    1    3    3    0    0 -0.39349716113E+01  0.86915712381E+01  0.71986033744E+01  0.11951874443E+02  0.00000000000E+00 0.  1.
</event>
<event>
 7    1  0.7596051E-010  0.4778727E+02  0.7816164E-02  0.1312668E+00
        -11   -1    0    0    0    0  0.00000000000E+00  0.00000000000E+00  0.45593999997E+02  0.45594000000E+02  0.51100000000E-03 0. -1.
         11   -1    0    0    0    0 -0.00000000000E+00 -0.00000000000E+00 -0.45593999997E+02  0.45594000000E+02  0.51100000000E-03 0.  1.
    9900012    2    1    2    0    0  0.87712156951E+01 -0.31584883976E+00 -0.42503991370E+02  0.47787271116E+02  0.20000000328E+02 0.  0.
         12    1    1    2    0    0 -0.87712156951E+01  0.31584883976E+00  0.42503991370E+02  0.43400728884E+02  0.00000000000E+00 0. -1.
         11    1    3    3    0    0  0.19854690136E+01 -0.27114404896E-01 -0.26468531623E+02  0.26542908449E+02  0.51100000000E-03 0. -1.
        -11    1    3    3    0    0  0.68252339341E+01 -0.26031705920E+01 -0.17175297708E+02  0.18664167996E+02  0.51100000000E-03 0.  1.
         12    1    3    3    0    0 -0.39487252610E-01  0.23144361571E+01  0.11398379602E+01  0.25801946717E+01  0.00000000000E+00 0. -1.
</event>
<event>
 7    1  0.7596051E-010  0.4778727E+02  0.7816164E-02  0.1312668E+00
        -11   -1    0    0    0    0  0.00000000000E+00  0.00000000000E+00  0.45593999997E+02  0.45594000000E+02  0.51100000000E-03 0. -1.
         11   -1    0    0    0    0 -0.00000000000E+00 -0.00000000000E+00 -0.45593999997E+02  0.45594000000E+02  0.51100000000E-03 0.  1.
    9900012    2    1    2    0    0  0.23706647995E+01 -0.69793645479E+01 -0.42770220598E+02  0.47787270155E+02  0.19999995945E+02 0.  0.
         12    1    1    2    0    0 -0.23706647995E+01  0.69793645479E+01  0.42770220598E+02  0.43400729845E+02  0.00000000000E+00 0. -1.
         11    1    3    3    0    0  0.32162701947E+01 -0.46447026599E+00 -0.72289302451E+01  0.79257529196E+01  0.51100000000E-03 0. -1.
        -11    1    3    3    0    0 -0.29413405820E+01 -0.22437201101E+01  0.29464861973E+00  0.37111430075E+01  0.51100000000E-03 0.  1.
        -12    1    3    3    0    0  0.20957351868E+01 -0.42711741718E+01 -0.35835938973E+02  0.36150374228E+02  0.00000000000E+00 0.  1.
</event>
<event>
 7    1  0.7596051E-010  0.4778728E+02  0.7816164E-02  0.1312668E+00
        -11   -1    0    0    0    0  0.00000000000E+00  0.00000000000E+00  0.45593999997E+02  0.45594000000E+02  0.51100000000E-03 0. -1.
         11   -1    0    0    0    0 -0.00000000000E+00 -0.00000000000E+00 -0.45593999997E+02  0.45594000000E+02  0.51100000000E-03 0.  1.
    9900012    2    1    2    0    0  0.39429726293E+02 -0.49013188686E+00 -0.18129495018E+02  0.47787284171E+02  0.20000059851E+02 0.  0.
         12    1    1    2    0    0 -0.39429726293E+02  0.49013188686E+00  0.18129495018E+02  0.43400715829E+02  0.00000000000E+00 0. -1.
         11    1    3    3    0    0  0.10311848749E+01 -0.12158071662E+01 -0.72714713607E+00  0.17522193157E+01  0.51100000000E-03 0. -1.
        -11    1    3    3    0    0  0.15305844765E+02  0.85463852370E+01 -0.32026546477E+01  0.17820397909E+02  0.51100000000E-03 0.  1.
        -12    1    3    3    0    0  0.23092696654E+02 -0.78207099576E+01 -0.14199693234E+02  0.28214666947E+02  0.00000000000E+00 0.  1.
</event>
<event>
 7    1  0.7596051E-010  0.4778727E+02  0.7816164E-02  0.1312668E+00
        -11   -1    0    0    0    0  0.00000000000E+00  0.00000000000E+00  0.45593999997E+02  0.45594000000E+02  0.51100000000E-03 0. -1.
         11   -1    0    0    0    0 -0.00000000000E+00 -0.00000000000E+00 -0.45593999997E+02  0.45594000000E+02  0.51100000000E-03 0.  1.
    9900012    2    1    2    0    0  0.30924679604E+02 -0.23114782935E+02 -0.19824080385E+02  0.47787272335E+02  0.20000005883E+02 0.  0.
         12    1    1    2    0    0 -0.30924679604E+02  0.23114782935E+02  0.19824080385E+02  0.43400727665E+02  0.00000000000E+00 0. -1.
         11    1    3    3    0    0  0.15638685427E+02 -0.86036153078E+01 -0.76387866527E+01  0.19414987511E+02  0.51100000000E-03 0. -1.
        -11    1    3    3    0    0  0.14087937081E+02 -0.11859607929E+02 -0.15422031213E+02  0.24019977486E+02  0.51100000000E-03 0.  1.
         12    1    3    3    0    0  0.11980570960E+01 -0.26515596984E+01  0.32367374813E+01  0.43523073377E+01  0.00000000000E+00 0. -1.
</event>
<event>
 7    1  0.1093271E-009  0.4778727E+02  0.7816164E-02  0.1312668E+00
        -11   -1    0    0    0    0  0.00000000000E+00  0.00000000000E+00  0.45593999997E+02  0.45594000000E+02  0.51100000000E-03 0. -1.
         11   -1    0    0    0    0 -0.00000000000E+00 -0.00000000000E+00 -0.45593999997E+02  0.45594000000E+02  0.51100000000E-03 0.  1.
    9900012    2    1    2    0    0  0.20870567370E+02 -0.19774953745E+02  0.32511440470E+02  0.47787272594E+02  0.20000007065E+02 0.  0.
        -12    1    1    2    0    0 -0.20870567370E+02  0.19774953745E+02 -0.32511440470E+02  0.43400727406E+02  0.00000000000E+00 0.  1.
         11    1    3    3    0    0 -0.30678716944E+00 -0.44129009568E+01  0.20885667545E+01  0.48918222138E+01  0.51100000000E-03 0. -1.
        -11    1    3    3    0    0 -0.14506163558E+00 -0.30326532160E+01 -0.78774490010E+00  0.31366495972E+01  0.51100000000E-03 0.  1.
         12    1    3    3    0    0  0.21322416175E+02 -0.12329399572E+02  0.31210618616E+02  0.39758800783E+02  0.00000000000E+00 0. -1.
</event>
<event>
 7    1  0.7596051E-010  0.4778728E+02  0.7816164E-02  0.1312668E+00
        -11   -1    0    0    0    0  0.00000000000E+00  0.00000000000E+00  0.45593999997E+02  0.45594000000E+02  0.51100000000E-03 0. -1.
         11   -1    0    0    0    0 -0.00000000000E+00 -0.00000000000E+00 -0.45593999997E+02  0.45594000000E+02  0.51100000000E-03 0.  1.
    9900012    2    1    2    0    0  0.31080416119E+02  0.37032994047E+01 -0.30065197880E+02  0.47787276317E+02  0.20000024040E+02 0.  0.
         12    1    1    2    0    0 -0.31080416119E+02 -0.37032994047E+01  0.30065197880E+02  0.43400723683E+02  0.00000000000E+00 0. -1.
         11    1    3    3    0    0  0.34458801788E+01  0.48833862593E+01 -0.45815353610E+01  0.75307382168E+01  0.51100000000E-03 0. -1.
        -11    1    3    3    0    0  0.18819652071E+02  0.50777837038E+01 -0.20705507902E+02  0.28437321413E+02  0.51100000000E-03 0.  1.
        -12    1    3    3    0    0  0.88148838697E+01 -0.62578705584E+01 -0.47781546175E+01  0.11819216688E+02  0.00000000000E+00 0.  1.
</event>
<event>
 7    1  0.7596051E-010  0.4778727E+02  0.7816164E-02  0.1312668E+00
        -11   -1    0    0    0    0  0.00000000000E+00  0.00000000000E+00  0.45593999997E+02  0.45594000000E+02  0.51100000000E-03 0. -1.
         11   -1    0    0    0    0 -0.00000000000E+00 -0.00000000000E+00 -0.45593999997E+02  0.45594000000E+02  0.51100000000E-03 0.  1.
    9900012    2    1    2    0    0  0.97635382368E+01 -0.18216823148E+02 -0.38163384379E+02  0.47787271530E+02  0.20000002213E+02 0.  0.
         12    1    1    2    0    0 -0.97635382368E+01  0.18216823148E+02  0.38163384379E+02  0.43400728470E+02  0.00000000000E+00 0. -1.
         11    1    3    3    0    0 -0.22513713617E+01 -0.12964419774E+01 -0.97217097404E+01  0.10062856222E+02  0.51100000000E-03 0. -1.
        -11    1    3    3    0    0  0.82035861147E+01 -0.18802250718E+02 -0.22995729280E+02  0.30816018928E+02  0.51100000000E-03 0.  1.
        -12    1    3    3    0    0  0.38113234838E+01  0.18818695472E+01 -0.54459453583E+01  0.69083963795E+01  0.00000000000E+00 0.  1.
</event>
<event>
 7    1  0.7596051E-010  0.4778727E+02  0.7816164E-02  0.1312668E+00
        -11   -1    0    0    0    0  0.00000000000E+00  0.00000000000E+00  0.45593999997E+02  0.45594000000E+02  0.51100000000E-03 0. -1.
         11   -1    0    0    0    0 -0.00000000000E+00 -0.00000000000E+00 -0.45593999997E+02  0.45594000000E+02  0.51100000000E-03 0.  1.
    9900012    2    1    2    0    0 -0.15279766228E+02  0.32499532091E+02 -0.24370737828E+02  0.47787266084E+02  0.19999977384E+02 0.  0.
         12    1    1    2    0    0  0.15279766228E+02 -0.32499532091E+02  0.24370737828E+02  0.43400733916E+02  0.00000000000E+00 0. -1.
         11    1    3    3    0    0 -0.13099187828E+01  0.43756984797E+01 -0.16784252711E+01  0.48661829039E+01  0.51100000000E-03 0.  1.
        -11    1    3    3    0    0  0.39417580264E+01  0.10857813318E+02 -0.69796437858E+01  0.13496110329E+02  0.51100000000E-03 0. -1.
         12    1    3    3    0    0 -0.17911605472E+02  0.17266020294E+02 -0.15712668771E+02  0.29424972851E+02  0.00000000000E+00 0. -1.
</event>
<event>
 7    1  0.7596051E-010  0.4778728E+02  0.7816164E-02  0.1312668E+00
        -11   -1    0    0    0    0  0.00000000000E+00  0.00000000000E+00  0.45593999997E+02  0.45594000000E+02  0.51100000000E-03 0. -1.
         11   -1    0    0    0    0 -0.00000000000E+00 -0.00000000000E+00 -0.45593999997E+02  0.45594000000E+02  0.51100000000E-03 0.  1.
    9900012    2    1    2    0    0 -0.40844094841E+02 -0.85053031889E+01 -0.11960021397E+02  0.47787281371E+02  0.20000047083E+02 0.  0.
         12    1    1    2    0    0  0.40844094841E+02  0.85053031889E+01  0.11960021397E+02  0.43400718629E+02  0.00000000000E+00 0. -1.
         11    1    3    3    0    0 -0.19179416546E+01  0.15646367293E+01 -0.27520409488E+01  0.37013940523E+01  0.51100000000E-03 0. -1.
        -11    1    3    3    0    0 -0.60982227416E+01  0.33364400444E+01  0.13634751703E+01  0.70837290728E+01  0.51100000000E-03 0.  1.
         12    1    3    3    0    0 -0.32827930445E+02 -0.13406379963E+02 -0.10571455618E+02  0.37002158246E+02  0.00000000000E+00 0. -1.
</event>
<event>
 7    1  0.7596051E-010  0.4778727E+02  0.7816164E-02  0.1312668E+00
        -11   -1    0    0    0    0  0.00000000000E+00  0.00000000000E+00  0.45593999997E+02  0.45594000000E+02  0.51100000000E-03 0. -1.
         11   -1    0    0    0    0 -0.00000000000E+00 -0.00000000000E+00 -0.45593999997E+02  0.45594000000E+02  0.51100000000E-03 0.  1.
    9900012    2    1    2    0    0 -0.98478668551E+01 -0.25600479087E+01  0.42191102867E+02  0.47787268577E+02  0.19999988750E+02 0.  0.
        -12    1    1    2    0    0  0.98478668551E+01  0.25600479087E+01 -0.42191102867E+02  0.43400731423E+02  0.00000000000E+00 0.  1.
         11    1    3    3    0    0  0.31735859542E+01 -0.57281745334E+00  0.88091876322E+01  0.93809143821E+01  0.51100000000E-03 0. -1.
        -11    1    3    3    0    0  0.23055226432E+01  0.17143188987E+01  0.82676458857E+01  0.87526163344E+01  0.51100000000E-03 0.  1.
        -12    1    3    3    0    0 -0.15326975453E+02 -0.37015493540E+01  0.25114269349E+02  0.29653737861E+02  0.00000000000E+00 0.  1.
</event>
<event>
 7    1  0.7596051E-010  0.4778727E+02  0.7816164E-02  0.1312668E+00
        -11   -1    0    0    0    0  0.00000000000E+00  0.00000000000E+00  0.45593999997E+02  0.45594000000E+02  0.51100000000E-03 0. -1.
         11   -1    0    0    0    0 -0.00000000000E+00 -0.00000000000E+00 -0.45593999997E+02  0.45594000000E+02  0.51100000000E-03 0.  1.
    9900012    2    1    2    0    0  0.31096262636E+00  0.26196557236E+02 -0.34601550165E+02  0.47787267488E+02  0.19999983786E+02 0.  0.
         12    1    1    2    0    0 -0.31096262636E+00 -0.26196557236E+02  0.34601550165E+02  0.43400732512E+02  0.00000000000E+00 0. -1.
         11    1    3    3    0    0  0.10736096445E+01  0.28827918626E+01  0.22589234168E+00  0.30845022618E+01  0.51100000000E-03 0. -1.
        -11    1    3    3    0    0  0.26046878266E+01  0.14803786604E+02 -0.95224590077E+01  0.17793642749E+02  0.51100000000E-03 0.  1.
        -12    1    3    3    0    0 -0.33673348447E+01  0.85099787695E+01 -0.25304983499E+02  0.26909122477E+02  0.00000000000E+00 0.  1.
</event>
<event>
 7    1  0.7596051E-010  0.4778727E+02  0.7816164E-02  0.1312668E+00
        -11   -1    0    0    0    0  0.00000000000E+00  0.00000000000E+00  0.45593999997E+02  0.45594000000E+02  0.51100000000E-03 0.  1.
         11   -1    0    0    0    0 -0.00000000000E+00 -0.00000000000E+00 -0.45593999997E+02  0.45594000000E+02  0.51100000000E-03 0. -1.
    9900012    2    1    2    0    0 -0.11087120053E+02  0.37700643487E+02  0.18421741979E+02  0.47787270422E+02  0.19999997160E+02 0.  0.
        -12    1    1    2    0    0  0.11087120053E+02 -0.37700643487E+02 -0.18421741979E+02  0.43400729578E+02  0.00000000000E+00 0.  1.
         11    1    3    3    0    0 -0.27924616406E+01  0.63860785418E+01 -0.37253215626E+01  0.79030286702E+01  0.51100000000E-03 0. -1.
        -11    1    3    3    0    0 -0.60942150933E+01  0.10167458050E+02  0.68382183997E+01  0.13684951295E+02  0.51100000000E-03 0.  1.
         12    1    3    3    0    0 -0.22004433195E+01  0.21147106895E+02  0.15308845142E+02  0.26199290457E+02  0.00000000000E+00 0. -1.
</event>
<event>
 7    1  0.7596051E-010  0.4778728E+02  0.7816164E-02  0.1312668E+00
        -11   -1    0    0    0    0  0.00000000000E+00  0.00000000000E+00  0.45593999997E+02  0.45594000000E+02  0.51100000000E-03 0. -1.
         11   -1    0    0    0    0 -0.00000000000E+00 -0.00000000000E+00 -0.45593999997E+02  0.45594000000E+02  0.51100000000E-03 0.  1.
    9900012    2    1    2    0    0  0.11832961331E+02 -0.18906277113E+02 -0.37231123926E+02  0.47787275618E+02  0.20000020852E+02 0.  0.
         12    1    1    2    0    0 -0.11832961331E+02  0.18906277113E+02  0.37231123926E+02  0.43400724382E+02  0.00000000000E+00 0. -1.
         11    1    3    3    0    0  0.19849162708E+01 -0.96281795210E+01 -0.56922989103E+01  0.11359753546E+02  0.51100000000E-03 0. -1.
        -11    1    3    3    0    0  0.79081175616E+01 -0.10675619615E+02 -0.16423908291E+02  0.21124676124E+02  0.51100000000E-03 0.  1.
        -12    1    3    3    0    0  0.19399274984E+01  0.13975220231E+01 -0.15114916724E+02  0.15302845947E+02  0.00000000000E+00 0.  1.
</event>
<event>
 7    1  0.7596051E-010  0.4778728E+02  0.7816164E-02  0.1312668E+00
        -11   -1    0    0    0    0  0.00000000000E+00  0.00000000000E+00  0.45593999997E+02  0.45594000000E+02  0.51100000000E-03 0. -1.
         11   -1    0    0    0    0 -0.00000000000E+00 -0.00000000000E+00 -0.45593999997E+02  0.45594000000E+02  0.51100000000E-03 0.  1.
    9900012    2    1    2    0    0 -0.15622305169E+02  0.26637655293E+02  0.30495931201E+02  0.47787275143E+02  0.20000018685E+02 0.  0.
        -12    1    1    2    0    0  0.15622305169E+02 -0.26637655293E+02 -0.30495931201E+02  0.43400724857E+02  0.00000000000E+00 0.  1.
         11    1    3    3    0    0 -0.15538502130E+02  0.24857646699E+02  0.18911074468E+02  0.34885188629E+02  0.51100000000E-03 0. -1.
        -11    1    3    3    0    0  0.14806163761E+01  0.20478076508E+01  0.21009735608E+01  0.32863096617E+01  0.51100000000E-03 0.  1.
        -12    1    3    3    0    0 -0.15644194147E+01 -0.26779905652E+00  0.94838831723E+01  0.96157768519E+01  0.00000000000E+00 0.  1.
</event>
<event>
 7    1  0.7596051E-010  0.4778725E+02  0.7816164E-02  0.1312668E+00
        -11   -1    0    0    0    0  0.00000000000E+00  0.00000000000E+00  0.45593999997E+02  0.45594000000E+02  0.51100000000E-03 0. -1.
         11   -1    0    0    0    0 -0.00000000000E+00 -0.00000000000E+00 -0.45593999997E+02  0.45594000000E+02  0.51100000000E-03 0.  1.
    9900012    2    1    2    0    0  0.21589811509E+02  0.33426654964E+02 -0.17325234565E+02  0.47787251437E+02  0.19999910602E+02 0.  0.
         12    1    1    2    0    0 -0.21589811509E+02 -0.33426654964E+02  0.17325234565E+02  0.43400748563E+02  0.00000000000E+00 0. -1.
         11    1    3    3    0    0 -0.74229139668E-01  0.75517588985E+01  0.40917783063E+00  0.75632003268E+01  0.51100000000E-03 0. -1.
        -11    1    3    3    0    0  0.15372499431E+02  0.19585350828E+02 -0.62011556221E+01  0.25658410651E+02  0.51100000000E-03 0.  1.
         12    1    3    3    0    0  0.62915412170E+01  0.62895452383E+01 -0.11533256774E+02  0.14565640460E+02  0.00000000000E+00 0. -1.
</event>
<event>
 7    1  0.7596051E-010  0.4778728E+02  0.7816164E-02  0.1312668E+00
        -11   -1    0    0    0    0  0.00000000000E+00  0.00000000000E+00  0.45593999997E+02  0.45594000000E+02  0.51100000000E-03 0.  1.
         11   -1    0    0    0    0 -0.00000000000E+00 -0.00000000000E+00 -0.45593999997E+02  0.45594000000E+02  0.51100000000E-03 0. -1.
    9900012    2    1    2    0    0  0.35984023181E+02 -0.19671108287E+02  0.14206344290E+02  0.47787278306E+02  0.20000033107E+02 0.  0.
        -12    1    1    2    0    0 -0.35984023181E+02  0.19671108287E+02 -0.14206344290E+02  0.43400721694E+02  0.00000000000E+00 0.  1.
         11    1    3    3    0    0  0.14129834321E+02 -0.40469337947E+01  0.74366987947E+00  0.14716756988E+02  0.51100000000E-03 0. -1.
        -11    1    3    3    0    0  0.22475570447E+02 -0.11287924581E+02  0.13779978107E+02  0.28678499005E+02  0.51100000000E-03 0.  1.
        -12    1    3    3    0    0 -0.62138158797E+00 -0.43362499106E+01 -0.31730369570E+00  0.43920223133E+01  0.00000000000E+00 0.  1.
</event>
<event>
 7    1  0.7596051E-010  0.4778727E+02  0.7816164E-02  0.1312668E+00
        -11   -1    0    0    0    0  0.00000000000E+00  0.00000000000E+00  0.45593999997E+02  0.45594000000E+02  0.51100000000E-03 0. -1.
         11   -1    0    0    0    0 -0.00000000000E+00 -0.00000000000E+00 -0.45593999997E+02  0.45594000000E+02  0.51100000000E-03 0.  1.
    9900012    2    1    2    0    0 -0.18795349984E+01 -0.33446234595E+02 -0.27594201950E+02  0.47787271416E+02  0.20000001694E+02 0.  0.
         12    1    1    2    0    0  0.18795349984E+01  0.33446234595E+02  0.27594201950E+02  0.43400728584E+02  0.00000000000E+00 0. -1.
         11    1    3    3    0    0 -0.50499629917E+01 -0.73051821267E+01 -0.14307979590E+02  0.16840014618E+02  0.51100000000E-03 0. -1.
        -11    1    3    3    0    0 -0.25381838322E+01 -0.35721472081E+01 -0.38313406654E+01  0.58208061639E+01  0.51100000000E-03 0.  1.
        -12    1    3    3    0    0  0.57086118255E+01 -0.22568905260E+02 -0.94548816939E+01  0.25126450634E+02  0.00000000000E+00 0.  1.
</event>
<event>
 7    1  0.7596051E-010  0.4778727E+02  0.7816164E-02  0.1312668E+00
        -11   -1    0    0    0    0  0.00000000000E+00  0.00000000000E+00  0.45593999997E+02  0.45594000000E+02  0.51100000000E-03 0. -1.
         11   -1    0    0    0    0 -0.00000000000E+00 -0.00000000000E+00 -0.45593999997E+02  0.45594000000E+02  0.51100000000E-03 0.  1.
    9900012    2    1    2    0    0  0.27026734332E+02  0.59429076316E+01 -0.33434424490E+02  0.47787271196E+02  0.20000000690E+02 0.  0.
         12    1    1    2    0    0 -0.27026734332E+02 -0.59429076316E+01  0.33434424490E+02  0.43400728804E+02  0.00000000000E+00 0. -1.
         11    1    3    3    0    0  0.10818387870E+02  0.18311348471E+01 -0.96382301955E+01  0.14604316228E+02  0.51100000000E-03 0. -1.
        -11    1    3    3    0    0  0.29435803428E+01 -0.56019641839E+01 -0.93889516206E+01  0.11322503290E+02  0.51100000000E-03 0.  1.
        -12    1    3    3    0    0  0.13264766119E+02  0.97137369685E+01 -0.14407242674E+02  0.21860451678E+02  0.00000000000E+00 0.  1.
</event>
<event>
 7    1  0.7596051E-010  0.4778727E+02  0.7816164E-02  0.1312668E+00
        -11   -1    0    0    0    0  0.00000000000E+00  0.00000000000E+00  0.45593999997E+02  0.45594000000E+02  0.51100000000E-03 0.  1.
         11   -1    0    0    0    0 -0.00000000000E+00 -0.00000000000E+00 -0.45593999997E+02  0.45594000000E+02  0.51100000000E-03 0. -1.
    9900012    2    1    2    0    0 -0.12068226947E+02  0.34908562560E+02  0.22789766209E+02  0.47787270911E+02  0.19999999391E+02 0.  0.
        -12    1    1    2    0    0  0.12068226947E+02 -0.34908562560E+02 -0.22789766209E+02  0.43400729089E+02  0.00000000000E+00 0.  1.
         11    1    3    3    0    0  0.43536086450E+01  0.79549729217E+01  0.68141612041E+01  0.11343204820E+02  0.51100000000E-03 0. -1.
        -11    1    3    3    0    0 -0.32744946984E+01  0.10432272004E+02  0.19782292376E+01  0.11111615809E+02  0.51100000000E-03 0.  1.
        -12    1    3    3    0    0 -0.13147340893E+02  0.16521317633E+02  0.13997375767E+02  0.25332450282E+02  0.00000000000E+00 0.  1.
</event>
<event>
 7    1  0.7596051E-010  0.4778728E+02  0.7816164E-02  0.1312668E+00
        -11   -1    0    0    0    0  0.00000000000E+00  0.00000000000E+00  0.45593999997E+02  0.45594000000E+02  0.51100000000E-03 0. -1.
         11   -1    0    0    0    0 -0.00000000000E+00 -0.00000000000E+00 -0.45593999997E+02  0.45594000000E+02  0.51100000000E-03 0.  1.
    9900012    2    1    2    0    0  0.32299136039E+02 -0.70436832709E+01  0.28120726555E+02  0.47787275065E+02  0.20000018333E+02 0.  0.
        -12    1    1    2    0    0 -0.32299136039E+02  0.70436832709E+01 -0.28120726555E+02  0.43400724935E+02  0.00000000000E+00 0.  1.
         11    1    3    3    0    0  0.14141242460E+02  0.53490011327E+01  0.11848452602E+02  0.19208653799E+02  0.51100000000E-03 0. -1.
        -11    1    3    3    0    0  0.32649311568E+01  0.94598194639E+00  0.33531499698E+01  0.47747536358E+01  0.51100000000E-03 0.  1.
        -12    1    3    3    0    0  0.14892962422E+02 -0.13338666350E+02  0.12919123983E+02  0.23803867631E+02  0.00000000000E+00 0.  1.
</event>
<event>
 7    1  0.7596051E-010  0.4778730E+02  0.7816164E-02  0.1312668E+00
        -11   -1    0    0    0    0  0.00000000000E+00  0.00000000000E+00  0.45593999997E+02  0.45594000000E+02  0.51100000000E-03 0. -1.
         11   -1    0    0    0    0 -0.00000000000E+00 -0.00000000000E+00 -0.45593999997E+02  0.45594000000E+02  0.51100000000E-03 0.  1.
    9900012    2    1    2    0    0 -0.13581608111E+02 -0.22580321519E+02 -0.34486083278E+02  0.47787297948E+02  0.20000122662E+02 0.  0.
         12    1    1    2    0    0  0.13581608111E+02  0.22580321519E+02  0.34486083278E+02  0.43400702052E+02  0.00000000000E+00 0. -1.
         11    1    3    3    0    0  0.11166488364E+01 -0.44599505325E+01 -0.10228413343E+01  0.47100178378E+01  0.51100000000E-03 0. -1.
        -11    1    3    3    0    0 -0.17279394619E+02 -0.16814858251E+02 -0.28478515136E+02  0.37314109409E+02  0.51100000000E-03 0.  1.
         12    1    3    3    0    0  0.25811376710E+01 -0.13055127360E+01 -0.49847268072E+01  0.57631707005E+01  0.00000000000E+00 0. -1.
</event>
<event>
 7    1  0.7596051E-010  0.4778727E+02  0.7816164E-02  0.1312668E+00
        -11   -1    0    0    0    0  0.00000000000E+00  0.00000000000E+00  0.45593999997E+02  0.45594000000E+02  0.51100000000E-03 0. -1.
         11   -1    0    0    0    0 -0.00000000000E+00 -0.00000000000E+00 -0.45593999997E+02  0.45594000000E+02  0.51100000000E-03 0.  1.
    9900012    2    1    2    0    0  0.72741677717E+01  0.22841567073E+02 -0.36179724315E+02  0.47787272418E+02  0.20000006265E+02 0.  0.
         12    1    1    2    0    0 -0.72741677717E+01 -0.22841567073E+02  0.36179724315E+02  0.43400727582E+02  0.00000000000E+00 0. -1.
         11    1    3    3    0    0  0.89202086698E+00  0.80356222871E+00 -0.79926992085E+01  0.80823668799E+01  0.51100000000E-03 0. -1.
        -11    1    3    3    0    0  0.87236891237E+01  0.10563292423E+02 -0.67384551166E+01  0.15267372936E+02  0.51100000000E-03 0.  1.
        -12    1    3    3    0    0 -0.23415422190E+01  0.11474712422E+02 -0.21448569989E+02  0.24437532603E+02  0.00000000000E+00 0.  1.
</event>
<event>
 7    1  0.7596051E-010  0.4778726E+02  0.7816164E-02  0.1312668E+00
        -11   -1    0    0    0    0  0.00000000000E+00  0.00000000000E+00  0.45593999997E+02  0.45594000000E+02  0.51100000000E-03 0. -1.
         11   -1    0    0    0    0 -0.00000000000E+00 -0.00000000000E+00 -0.45593999997E+02  0.45594000000E+02  0.51100000000E-03 0.  1.
    9900012    2    1    2    0    0 -0.10621195163E+02 -0.23426566076E+02 -0.34957266754E+02  0.47787259410E+02  0.19999946955E+02 0.  0.
         12    1    1    2    0    0  0.10621195163E+02  0.23426566076E+02  0.34957266754E+02  0.43400740590E+02  0.00000000000E+00 0. -1.
         11    1    3    3    0    0 -0.83786415963E+01 -0.10574189168E+02 -0.69060581966E+01  0.15156145672E+02  0.51100000000E-03 0. -1.
        -11    1    3    3    0    0  0.14316431808E+01 -0.12578765102E+02 -0.18721019309E+02  0.22599811900E+02  0.51100000000E-03 0.  1.
        -12    1    3    3    0    0 -0.36741967477E+01 -0.27361180704E+00 -0.93301892485E+01  0.10031301838E+02  0.00000000000E+00 0.  1.
</event>
<event>
 7    1  0.7596051E-010  0.4778727E+02  0.7816164E-02  0.1312668E+00
        -11   -1    0    0    0    0  0.00000000000E+00  0.00000000000E+00  0.45593999997E+02  0.45594000000E+02  0.51100000000E-03 0. -1.
         11   -1    0    0    0    0 -0.00000000000E+00 -0.00000000000E+00 -0.45593999997E+02  0.45594000000E+02  0.51100000000E-03 0.  1.
    9900012    2    1    2    0    0 -0.17308750528E+02 -0.21508259611E+02  0.33487687913E+02  0.47787270535E+02  0.19999997677E+02 0.  0.
        -12    1    1    2    0    0  0.17308750528E+02  0.21508259611E+02 -0.33487687913E+02  0.43400729465E+02  0.00000000000E+00 0.  1.
         11    1    3    3    0    0 -0.37651642132E+01 -0.22128865723E+00  0.76401805724E+01  0.85204336546E+01  0.51100000000E-03 0.  1.
        -11    1    3    3    0    0 -0.78472611727E-01 -0.55832935752E+01  0.14794060912E+02  0.15812765844E+02  0.51100000000E-03 0. -1.
         12    1    3    3    0    0 -0.13465113703E+02 -0.15703677379E+02  0.11053446429E+02  0.23454071037E+02  0.00000000000E+00 0. -1.
</event>
<event>
 7    1  0.7596051E-010  0.4778727E+02  0.7816164E-02  0.1312668E+00
        -11   -1    0    0    0    0  0.00000000000E+00  0.00000000000E+00  0.45593999997E+02  0.45594000000E+02  0.51100000000E-03 0. -1.
         11   -1    0    0    0    0 -0.00000000000E+00 -0.00000000000E+00 -0.45593999997E+02  0.45594000000E+02  0.51100000000E-03 0.  1.
    9900012    2    1    2    0    0 -0.80848938293E+01 -0.29744491819E+02  0.30553610451E+02  0.47787269438E+02  0.19999992674E+02 0.  0.
        -12    1    1    2    0    0  0.80848938293E+01  0.29744491819E+02 -0.30553610451E+02  0.43400730562E+02  0.00000000000E+00 0.  1.
         11    1    3    3    0    0 -0.89656139779E+01 -0.80236726913E+01  0.20168427729E+02  0.23484612723E+02  0.51100000000E-03 0. -1.
        -11    1    3    3    0    0 -0.79864746572E+00 -0.23061698611E+01  0.68567781651E+00  0.25350367910E+01  0.51100000000E-03 0.  1.
        -12    1    3    3    0    0  0.16793676143E+01 -0.19414649266E+02  0.96995049053E+01  0.21767619923E+02  0.00000000000E+00 0.  1.
</event>
<event>
 7    1  0.7596051E-010  0.4778726E+02  0.7816164E-02  0.1312668E+00
        -11   -1    0    0    0    0  0.00000000000E+00  0.00000000000E+00  0.45593999997E+02  0.45594000000E+02  0.51100000000E-03 0. -1.
         11   -1    0    0    0    0 -0.00000000000E+00 -0.00000000000E+00 -0.45593999997E+02  0.45594000000E+02  0.51100000000E-03 0.  1.
    9900012    2    1    2    0    0  0.33647690202E+02  0.67963277145E+01  0.26556862994E+02  0.47787261545E+02  0.19999956690E+02 0.  0.
        -12    1    1    2    0    0 -0.33647690202E+02 -0.67963277145E+01 -0.26556862994E+02  0.43400738455E+02  0.00000000000E+00 0.  1.
         11    1    3    3    0    0  0.19553579403E+02  0.98305454529E+01  0.20804571656E+02  0.30196229788E+02  0.51100000000E-03 0.  1.
        -11    1    3    3    0    0  0.71601975065E+01  0.21936214518E+01  0.47054448496E+01  0.88442984402E+01  0.51100000000E-03 0. -1.
        -12    1    3    3    0    0  0.69339132924E+01 -0.52278391901E+01  0.10468464883E+01  0.87467333168E+01  0.00000000000E+00 0.  1.
</event>
<event>
 7    1  0.7596051E-010  0.4778727E+02  0.7816164E-02  0.1312668E+00
        -11   -1    0    0    0    0  0.00000000000E+00  0.00000000000E+00  0.45593999997E+02  0.45594000000E+02  0.51100000000E-03 0. -1.
         11   -1    0    0    0    0 -0.00000000000E+00 -0.00000000000E+00 -0.45593999997E+02  0.45594000000E+02  0.51100000000E-03 0.  1.
    9900012    2    1    2    0    0 -0.11495013560E+02 -0.33849998290E+02 -0.24610275208E+02  0.47787269974E+02  0.19999995121E+02 0.  0.
         12    1    1    2    0    0  0.11495013560E+02  0.33849998290E+02  0.24610275208E+02  0.43400730026E+02  0.00000000000E+00 0. -1.
         11    1    3    3    0    0 -0.40037236860E+01 -0.22839828951E+02 -0.12589262619E+02  0.26385168626E+02  0.51100000000E-03 0. -1.
        -11    1    3    3    0    0 -0.39275099336E+01 -0.94734436923E+01 -0.13750125710E+02  0.17153350313E+02  0.51100000000E-03 0.  1.
         12    1    3    3    0    0 -0.35637799403E+01 -0.15367256469E+01  0.17291131214E+01  0.42487510357E+01  0.00000000000E+00 0. -1.
</event>
<event>
 7    1  0.7596051E-010  0.4778727E+02  0.7816164E-02  0.1312668E+00
        -11   -1    0    0    0    0  0.00000000000E+00  0.00000000000E+00  0.45593999997E+02  0.45594000000E+02  0.51100000000E-03 0. -1.
         11   -1    0    0    0    0 -0.00000000000E+00 -0.00000000000E+00 -0.45593999997E+02  0.45594000000E+02  0.51100000000E-03 0.  1.
    9900012    2    1    2    0    0  0.10455619459E+02  0.77377670955E+01 -0.41405675752E+02  0.47787274172E+02  0.20000014260E+02 0.  0.
         12    1    1    2    0    0 -0.10455619459E+02 -0.77377670955E+01  0.41405675752E+02  0.43400725828E+02  0.00000000000E+00 0. -1.
         11    1    3    3    0    0 -0.43104140974E-01  0.15296660189E+01  0.98767164093E+00  0.18213268866E+01  0.51100000000E-03 0. -1.
        -11    1    3    3    0    0 -0.81817545030E+00  0.63814448181E+01 -0.14458502047E+02  0.15825312974E+02  0.51100000000E-03 0.  1.
        -12    1    3    3    0    0  0.11316899050E+02 -0.17334374149E+00 -0.27934845347E+02  0.30140634312E+02  0.00000000000E+00 0.  1.
</event>
<event>
 7    1  0.7596051E-010  0.4778727E+02  0.7816164E-02  0.1312668E+00
        -11   -1    0    0    0    0  0.00000000000E+00  0.00000000000E+00  0.45593999997E+02  0.45594000000E+02  0.51100000000E-03 0.  1.
         11   -1    0    0    0    0 -0.00000000000E+00 -0.00000000000E+00 -0.45593999997E+02  0.45594000000E+02  0.51100000000E-03 0. -1.
    9900012    2    1    2    0    0  0.12651373628E+01  0.37477827077E+02 -0.21850283813E+02  0.47787274226E+02  0.20000014508E+02 0.  0.
         12    1    1    2    0    0 -0.12651373628E+01 -0.37477827077E+02  0.21850283813E+02  0.43400725774E+02  0.00000000000E+00 0. -1.
         11    1    3    3    0    0  0.15000977110E+01  0.37493681302E+01  0.60127211689E+00  0.40828400578E+01  0.51100000000E-03 0. -1.
        -11    1    3    3    0    0  0.43111579802E+01  0.29668514541E+02 -0.13511103971E+02  0.32883989554E+02  0.51100000000E-03 0.  1.
         12    1    3    3    0    0 -0.45461183284E+01  0.40599444061E+01 -0.89404519588E+01  0.10820444615E+02  0.00000000000E+00 0. -1.
</event>
<event>
 7    1  0.7596051E-010  0.4778727E+02  0.7816164E-02  0.1312668E+00
        -11   -1    0    0    0    0  0.00000000000E+00  0.00000000000E+00  0.45593999997E+02  0.45594000000E+02  0.51100000000E-03 0. -1.
         11   -1    0    0    0    0 -0.00000000000E+00 -0.00000000000E+00 -0.45593999997E+02  0.45594000000E+02  0.51100000000E-03 0.  1.
    9900012    2    1    2    0    0 -0.19347654248E+02  0.38788585786E+02 -0.21766211184E+01  0.47787265079E+02  0.19999972802E+02 0.  0.
         12    1    1    2    0    0  0.19347654248E+02 -0.38788585786E+02  0.21766211184E+01  0.43400734921E+02  0.00000000000E+00 0. -1.
         11    1    3    3    0    0 -0.63692221079E+01  0.51431437195E+01 -0.47703412956E+01  0.94749709191E+01  0.51100000000E-03 0. -1.
        -11    1    3    3    0    0 -0.11566270112E+02  0.21331554030E+02 -0.34727467515E+01  0.24512726733E+02  0.51100000000E-03 0.  1.
        -12    1    3    3    0    0 -0.14121620283E+01  0.12313888037E+02  0.60664669287E+01  0.13799567427E+02  0.00000000000E+00 0.  1.
</event>
<event>
 7    1  0.7596051E-010  0.4778721E+02  0.7816164E-02  0.1312668E+00
        -11   -1    0    0    0    0  0.00000000000E+00  0.00000000000E+00  0.45593999997E+02  0.45594000000E+02  0.51100000000E-03 0. -1.
         11   -1    0    0    0    0 -0.00000000000E+00 -0.00000000000E+00 -0.45593999997E+02  0.45594000000E+02  0.51100000000E-03 0.  1.
    9900012    2    1    2    0    0  0.10776637238E+02 -0.27403402852E+02 -0.31883319489E+02  0.47787211302E+02  0.19999727607E+02 0.  0.
         12    1    1    2    0    0 -0.10776637238E+02  0.27403402852E+02  0.31883319489E+02  0.43400788698E+02  0.00000000000E+00 0. -1.
         11    1    3    3    0    0 -0.26857708210E+00 -0.76622029721E+00  0.12516687914E+01  0.14919457823E+01  0.51100000000E-03 0. -1.
        -11    1    3    3    0    0  0.31163436318E+00 -0.15400513655E+02 -0.97904715301E+01  0.18251747035E+02  0.51100000000E-03 0.  1.
        -12    1    3    3    0    0  0.10733579957E+02 -0.11236668900E+02 -0.23344516750E+02  0.28043518484E+02  0.00000000000E+00 0.  1.
</event>
<event>
 7    1  0.7596051E-010  0.4778728E+02  0.7816164E-02  0.1312668E+00
        -11   -1    0    0    0    0  0.00000000000E+00  0.00000000000E+00  0.45593999997E+02  0.45594000000E+02  0.51100000000E-03 0.  1.
         11   -1    0    0    0    0 -0.00000000000E+00 -0.00000000000E+00 -0.45593999997E+02  0.45594000000E+02  0.51100000000E-03 0. -1.
    9900012    2    1    2    0    0  0.42036417198E+02 -0.68596324441E+01 -0.83371318603E+01  0.47787277705E+02  0.20000030367E+02 0.  0.
        -12    1    1    2    0    0 -0.42036417198E+02  0.68596324441E+01  0.83371318603E+01  0.43400722295E+02  0.00000000000E+00 0.  1.
         11    1    3    3    0    0  0.22994716352E+02  0.42201015802E+01 -0.15703341785E+01  0.23431435875E+02  0.51100000000E-03 0.  1.
        -11    1    3    3    0    0  0.72397727328E+01 -0.23208980545E+01 -0.59176775642E+01  0.96343025185E+01  0.51100000000E-03 0. -1.
        -12    1    3    3    0    0  0.11801928112E+02 -0.87588359698E+01 -0.84912011761E+00  0.14721539311E+02  0.00000000000E+00 0.  1.
</event>
<event>
 7    1  0.7596051E-010  0.4778727E+02  0.7816164E-02  0.1312668E+00
        -11   -1    0    0    0    0  0.00000000000E+00  0.00000000000E+00  0.45593999997E+02  0.45594000000E+02  0.51100000000E-03 0. -1.
         11   -1    0    0    0    0 -0.00000000000E+00 -0.00000000000E+00 -0.45593999997E+02  0.45594000000E+02  0.51100000000E-03 0.  1.
    9900012    2    1    2    0    0 -0.51259463044E+01 -0.32745203950E+02  0.28019625355E+02  0.47787272906E+02  0.20000008489E+02 0.  0.
        -12    1    1    2    0    0  0.51259463044E+01  0.32745203950E+02 -0.28019625355E+02  0.43400727094E+02  0.00000000000E+00 0.  1.
         11    1    3    3    0    0  0.10631224208E+01 -0.11324012445E+02  0.90598067442E+01  0.14541099877E+02  0.51100000000E-03 0.  1.
        -11    1    3    3    0    0 -0.81737617972E+00 -0.51890886128E+01 -0.24919534807E+01  0.58141703502E+01  0.51100000000E-03 0. -1.
        -12    1    3    3    0    0 -0.53716925454E+01 -0.16232102892E+02  0.21451772092E+02  0.27432002679E+02  0.00000000000E+00 0.  1.
</event>
<event>
 7    1  0.7596051E-010  0.4778727E+02  0.7816164E-02  0.1312668E+00
        -11   -1    0    0    0    0  0.00000000000E+00  0.00000000000E+00  0.45593999997E+02  0.45594000000E+02  0.51100000000E-03 0.  1.
         11   -1    0    0    0    0 -0.00000000000E+00 -0.00000000000E+00 -0.45593999997E+02  0.45594000000E+02  0.51100000000E-03 0. -1.
    9900012    2    1    2    0    0 -0.66845224199E+01  0.42726445925E+02 -0.36593969490E+01  0.47787271811E+02  0.20000003493E+02 0.  0.
         12    1    1    2    0    0  0.66845224199E+01 -0.42726445925E+02  0.36593969490E+01  0.43400728189E+02  0.00000000000E+00 0. -1.
         11    1    3    3    0    0 -0.11723097827E+01 -0.10851714173E+01  0.21001603505E+01  0.26386703072E+01  0.51100000000E-03 0. -1.
        -11    1    3    3    0    0 -0.39373724608E+01  0.16193989956E+02  0.91978079175E+00  0.16691141650E+02  0.51100000000E-03 0.  1.
        -12    1    3    3    0    0 -0.15748401764E+01  0.27617627386E+02 -0.66793380913E+01  0.28457459854E+02  0.00000000000E+00 0.  1.
</event>
<event>
 7    1  0.7596051E-010  0.4778727E+02  0.7816164E-02  0.1312668E+00
        -11   -1    0    0    0    0  0.00000000000E+00  0.00000000000E+00  0.45593999997E+02  0.45594000000E+02  0.51100000000E-03 0. -1.
         11   -1    0    0    0    0 -0.00000000000E+00 -0.00000000000E+00 -0.45593999997E+02  0.45594000000E+02  0.51100000000E-03 0.  1.
    9900012    2    1    2    0    0 -0.34879362086E+02  0.14052491725E+01 -0.25789118458E+02  0.47787271255E+02  0.20000000959E+02 0.  0.
         12    1    1    2    0    0  0.34879362086E+02 -0.14052491725E+01  0.25789118458E+02  0.43400728745E+02  0.00000000000E+00 0. -1.
         11    1    3    3    0    0 -0.30868217621E+02 -0.35730110962E+01 -0.17744841795E+02  0.35783972362E+02  0.51100000000E-03 0. -1.
        -11    1    3    3    0    0 -0.47940100164E+00 -0.35774847480E+00  0.85428604169E+00  0.10428874310E+01  0.51100000000E-03 0.  1.
        -12    1    3    3    0    0 -0.35317434630E+01  0.53360087435E+01 -0.88985627049E+01  0.10960411462E+02  0.00000000000E+00 0.  1.
</event>
<event>
 7    1  0.7596051E-010  0.4778727E+02  0.7816164E-02  0.1312668E+00
        -11   -1    0    0    0    0  0.00000000000E+00  0.00000000000E+00  0.45593999997E+02  0.45594000000E+02  0.51100000000E-03 0. -1.
         11   -1    0    0    0    0 -0.00000000000E+00 -0.00000000000E+00 -0.45593999997E+02  0.45594000000E+02  0.51100000000E-03 0.  1.
    9900012    2    1    2    0    0  0.18952649715E+02  0.29312621697E+02 -0.25791287188E+02  0.47787271702E+02  0.20000003000E+02 0.  0.
         12    1    1    2    0    0 -0.18952649715E+02 -0.29312621697E+02  0.25791287188E+02  0.43400728298E+02  0.00000000000E+00 0. -1.
         11    1    3    3    0    0  0.38067217965E+01  0.38520846793E+00 -0.35745658413E+01  0.52361281129E+01  0.51100000000E-03 0. -1.
        -11    1    3    3    0    0  0.18491977767E+02  0.25491257016E+02 -0.19444456526E+02  0.37011407915E+02  0.51100000000E-03 0.  1.
        -12    1    3    3    0    0 -0.33460498486E+01  0.34361562122E+01 -0.27722648209E+01  0.55397356743E+01  0.00000000000E+00 0.  1.
</event>
<event>
 7    1  0.7596051E-010  0.4778727E+02  0.7816164E-02  0.1312668E+00
        -11   -1    0    0    0    0  0.00000000000E+00  0.00000000000E+00  0.45593999997E+02  0.45594000000E+02  0.51100000000E-03 0.  1.
         11   -1    0    0    0    0 -0.00000000000E+00 -0.00000000000E+00 -0.45593999997E+02  0.45594000000E+02  0.51100000000E-03 0. -1.
    9900012    2    1    2    0    0  0.32956232888E+02 -0.20512492700E+02 -0.19409989806E+02  0.47787270200E+02  0.19999996150E+02 0.  0.
        -12    1    1    2    0    0 -0.32956232888E+02  0.20512492700E+02  0.19409989806E+02  0.43400729800E+02  0.00000000000E+00 0.  1.
         11    1    3    3    0    0  0.13976352121E+02 -0.85584899008E+01 -0.12314858261E+02  0.20499802493E+02  0.51100000000E-03 0.  1.
        -11    1    3    3    0    0  0.19692930216E+02 -0.11803809527E+02 -0.94456151837E+01  0.24826620114E+02  0.51100000000E-03 0. -1.
        -12    1    3    3    0    0 -0.71304944910E+00 -0.15019327184E+00  0.23504836393E+01  0.24608475927E+01  0.00000000000E+00 0.  1.
</event>
<event>
 7    1  0.7596051E-010  0.4778727E+02  0.7816164E-02  0.1312668E+00
        -11   -1    0    0    0    0  0.00000000000E+00  0.00000000000E+00  0.45593999997E+02  0.45594000000E+02  0.51100000000E-03 0. -1.
         11   -1    0    0    0    0 -0.00000000000E+00 -0.00000000000E+00 -0.45593999997E+02  0.45594000000E+02  0.51100000000E-03 0.  1.
    9900012    2    1    2    0    0 -0.23766632166E+01  0.93165249024E+01 -0.42322302654E+02  0.47787268828E+02  0.19999989895E+02 0.  0.
         12    1    1    2    0    0  0.23766632166E+01 -0.93165249024E+01  0.42322302654E+02  0.43400731172E+02  0.00000000000E+00 0. -1.
         11    1    3    3    0    0  0.27243789612E+01 -0.17608437780E+01 -0.23603745080E+02  0.23825607938E+02  0.51100000000E-03 0. -1.
        -11    1    3    3    0    0  0.58054548718E+00 -0.76812827372E+00  0.14537225130E+00  0.97374917722E+00  0.51100000000E-03 0.  1.
        -12    1    3    3    0    0 -0.56815876649E+01  0.11845496954E+02 -0.18863929825E+02  0.22987911713E+02  0.00000000000E+00 0.  1.
</event>
<event>
 7    1  0.7596051E-010  0.4778727E+02  0.7816164E-02  0.1312668E+00
        -11   -1    0    0    0    0  0.00000000000E+00  0.00000000000E+00  0.45593999997E+02  0.45594000000E+02  0.51100000000E-03 0. -1.
         11   -1    0    0    0    0 -0.00000000000E+00 -0.00000000000E+00 -0.45593999997E+02  0.45594000000E+02  0.51100000000E-03 0.  1.
    9900012    2    1    2    0    0 -0.38801073988E+02 -0.19112033413E+02  0.35819369116E+01  0.47787269179E+02  0.19999991493E+02 0.  0.
        -12    1    1    2    0    0  0.38801073988E+02  0.19112033413E+02 -0.35819369116E+01  0.43400730821E+02  0.00000000000E+00 0.  1.
         11    1    3    3    0    0 -0.16183643841E+02 -0.15093951773E+02  0.22752863165E-01  0.22130029960E+02  0.51100000000E-03 0. -1.
        -11    1    3    3    0    0 -0.37897211571E+01  0.19392691517E+01 -0.25792357159E+01  0.49774700834E+01  0.51100000000E-03 0.  1.
         12    1    3    3    0    0 -0.18827708990E+02 -0.59573507912E+01  0.61384197643E+01  0.20679769135E+02  0.00000000000E+00 0. -1.
</event>
