<event>
 7    1  0.2497395E-009  0.4778728E+02  0.7816164E-02  0.1312668E+00
        -11   -1    0    0    0    0  0.00000000000E+00  0.00000000000E+00  0.45593999997E+02  0.45594000000E+02  0.51100000000E-03 0. -1.
         11   -1    0    0    0    0 -0.00000000000E+00 -0.00000000000E+00 -0.45593999997E+02  0.45594000000E+02  0.51100000000E-03 0.  1.
    9900012    2    1    2    0    0 -0.35444334281E+02  0.39427579438E+01  0.24734119516E+02  0.47787276031E+02  0.20000022734E+02 0.  0.
        -12    1    1    2    0    0  0.35444334281E+02 -0.39427579438E+01 -0.24734119516E+02  0.43400723969E+02  0.00000000000E+00 0.  1.
         11    1    3    3    0    0 -0.87234919041E+01 -0.16029990700E+01  0.40792743044E+01  0.97626531297E+01  0.51100000000E-03 0. -1.
        -11    1    3    3    0    0 -0.17481785176E+02  0.19433948344E+01  0.30971667738E+01  0.17860068273E+02  0.51100000000E-03 0.  1.
        -12    1    3    3    0    0 -0.92390572010E+01  0.36023621794E+01  0.17557678438E+02  0.20164554628E+02  0.00000000000E+00 0.  1.
</event>
<event>
 7    1  0.2497395E-009  0.4778727E+02  0.7816164E-02  0.1312668E+00
        -11   -1    0    0    0    0  0.00000000000E+00  0.00000000000E+00  0.45593999997E+02  0.45594000000E+02  0.51100000000E-03 0.  1.
         11   -1    0    0    0    0 -0.00000000000E+00 -0.00000000000E+00 -0.45593999997E+02  0.45594000000E+02  0.51100000000E-03 0. -1.
    9900012    2    1    2    0    0 -0.10891059323E+02 -0.74387038280E+00 -0.42005411137E+02  0.47787273265E+02  0.20000010123E+02 0.  0.
        -12    1    1    2    0    0  0.10891059323E+02  0.74387038280E+00  0.42005411137E+02  0.43400726735E+02  0.00000000000E+00 0.  1.
         11    1    3    3    0    0 -0.95236248850E+01  0.14659978519E+01 -0.10710516184E+02  0.14407072494E+02  0.51100000000E-03 0. -1.
        -11    1    3    3    0    0  0.54340980381E+00  0.42902449447E+01 -0.17289358021E+02  0.17821991947E+02  0.51100000000E-03 0.  1.
        -12    1    3    3    0    0 -0.19108442419E+01 -0.65001131794E+01 -0.14005536932E+02  0.15558208824E+02  0.00000000000E+00 0.  1.
</event>
<event>
 7    1  0.2497395E-009  0.4778727E+02  0.7816164E-02  0.1312668E+00
        -11   -1    0    0    0    0  0.00000000000E+00  0.00000000000E+00  0.45593999997E+02  0.45594000000E+02  0.51100000000E-03 0. -1.
         11   -1    0    0    0    0 -0.00000000000E+00 -0.00000000000E+00 -0.45593999997E+02  0.45594000000E+02  0.51100000000E-03 0.  1.
    9900012    2    1    2    0    0 -0.11139292136E+02  0.13811517859E+02  0.39607845224E+02  0.47787271226E+02  0.20000000827E+02 0.  0.
        -12    1    1    2    0    0  0.11139292136E+02 -0.13811517859E+02 -0.39607845224E+02  0.43400728774E+02  0.00000000000E+00 0.  1.
         11    1    3    3    0    0 -0.13188571396E+02  0.11068673020E+02  0.31691528098E+02  0.36066700588E+02  0.51100000000E-03 0. -1.
        -11    1    3    3    0    0  0.32411318902E+01 -0.16846061189E+01  0.53143580478E+01  0.64486615221E+01  0.51100000000E-03 0.  1.
        -12    1    3    3    0    0 -0.11918526307E+01  0.44274509581E+01  0.26019590781E+01  0.52719091156E+01  0.00000000000E+00 0.  1.
</event>
<event>
 7    1  0.2497395E-009  0.4778727E+02  0.7816164E-02  0.1312668E+00
        -11   -1    0    0    0    0  0.00000000000E+00  0.00000000000E+00  0.45593999997E+02  0.45594000000E+02  0.51100000000E-03 0. -1.
         11   -1    0    0    0    0 -0.00000000000E+00 -0.00000000000E+00 -0.45593999997E+02  0.45594000000E+02  0.51100000000E-03 0.  1.
    9900012    2    1    2    0    0 -0.36804026160E+02  0.22323679070E+02  0.55443937314E+01  0.47787270851E+02  0.19999999117E+02 0.  0.
        -12    1    1    2    0    0  0.36804026160E+02 -0.22323679070E+02 -0.55443937314E+01  0.43400729149E+02  0.00000000000E+00 0.  1.
         11    1    3    3    0    0 -0.16079998004E+02  0.54895512304E+01 -0.28387183071E+01  0.17226718504E+02  0.51100000000E-03 0. -1.
        -11    1    3    3    0    0 -0.19803577689E+02  0.13156229493E+02  0.10748230422E+02  0.26092001097E+02  0.51100000000E-03 0.  1.
        -12    1    3    3    0    0 -0.92045046729E+00  0.36778983462E+01 -0.23651183834E+01  0.44685512501E+01  0.00000000000E+00 0.  1.
</event>
<event>
 7    1  0.2497395E-009  0.4778731E+02  0.7816164E-02  0.1312668E+00
        -11   -1    0    0    0    0  0.00000000000E+00  0.00000000000E+00  0.45593999997E+02  0.45594000000E+02  0.51100000000E-03 0.  1.
         11   -1    0    0    0    0 -0.00000000000E+00 -0.00000000000E+00 -0.45593999997E+02  0.45594000000E+02  0.51100000000E-03 0. -1.
    9900012    2    1    2    0    0  0.22412711801E+02 -0.36986580108E+02  0.36446141147E+01  0.47787309102E+02  0.20000173519E+02 0.  0.
        -12    1    1    2    0    0 -0.22412711801E+02  0.36986580108E+02 -0.36446141147E+01  0.43400690898E+02  0.00000000000E+00 0.  1.
         11    1    3    3    0    0  0.69050494893E+01 -0.63928710335E+01 -0.32487151828E+01  0.99550318483E+01  0.51100000000E-03 0. -1.
        -11    1    3    3    0    0 -0.24949705365E+01 -0.29914858903E+01  0.23944107633E+01  0.45724248463E+01  0.51100000000E-03 0.  1.
        -12    1    3    3    0    0  0.18002632848E+02 -0.27602223185E+02  0.44989185342E+01  0.33259852407E+02  0.00000000000E+00 0.  1.
</event>
<event>
 7    1  0.2497395E-009  0.4778727E+02  0.7816164E-02  0.1312668E+00
        -11   -1    0    0    0    0  0.00000000000E+00  0.00000000000E+00  0.45593999997E+02  0.45594000000E+02  0.51100000000E-03 0.  1.
         11   -1    0    0    0    0 -0.00000000000E+00 -0.00000000000E+00 -0.45593999997E+02  0.45594000000E+02  0.51100000000E-03 0. -1.
    9900012    2    1    2    0    0 -0.28053592861E+02  0.11929062228E+02 -0.30892018033E+02  0.47787269866E+02  0.19999994627E+02 0.  0.
        -12    1    1    2    0    0  0.28053592861E+02 -0.11929062228E+02  0.30892018033E+02  0.43400730134E+02  0.00000000000E+00 0.  1.
         11    1    3    3    0    0 -0.19540066611E+02  0.76489957129E+01 -0.10337746195E+02  0.23392099846E+02  0.51100000000E-03 0. -1.
        -11    1    3    3    0    0 -0.66316955179E+01  0.65524393726E+01 -0.18741866128E+02  0.20932543883E+02  0.51100000000E-03 0.  1.
        -12    1    3    3    0    0 -0.18818307322E+01 -0.22723728574E+01 -0.18124057094E+01  0.34626261368E+01  0.00000000000E+00 0.  1.
</event>
<event>
 7    1  0.2497395E-009  0.4778724E+02  0.7816164E-02  0.1312668E+00
        -11   -1    0    0    0    0  0.00000000000E+00  0.00000000000E+00  0.45593999997E+02  0.45594000000E+02  0.51100000000E-03 0.  1.
         11   -1    0    0    0    0 -0.00000000000E+00 -0.00000000000E+00 -0.45593999997E+02  0.45594000000E+02  0.51100000000E-03 0. -1.
    9900012    2    1    2    0    0  0.31393340268E+01  0.29447088467E+02 -0.31727584868E+02  0.47787238729E+02  0.19999852660E+02 0.  0.
        -12    1    1    2    0    0 -0.31393340268E+01 -0.29447088467E+02  0.31727584868E+02  0.43400761271E+02  0.00000000000E+00 0.  1.
         11    1    3    3    0    0 -0.23430558341E+01  0.22830586835E+02 -0.18195525671E+02  0.29288270017E+02  0.51100000000E-03 0. -1.
        -11    1    3    3    0    0  0.62897548324E+01  0.38792247855E+01 -0.13777862455E+02  0.15634541723E+02  0.51100000000E-03 0.  1.
        -12    1    3    3    0    0 -0.80736497151E+00  0.27372768464E+01  0.24580325845E+00  0.28644269886E+01  0.00000000000E+00 0.  1.
</event>
<event>
 7    1  0.2497395E-009  0.4778728E+02  0.7816164E-02  0.1312668E+00
        -11   -1    0    0    0    0  0.00000000000E+00  0.00000000000E+00  0.45593999997E+02  0.45594000000E+02  0.51100000000E-03 0.  1.
         11   -1    0    0    0    0 -0.00000000000E+00 -0.00000000000E+00 -0.45593999997E+02  0.45594000000E+02  0.51100000000E-03 0. -1.
    9900012    2    1    2    0    0  0.92895574099E+01 -0.73521206023E+00 -0.42388514071E+02  0.47787279513E+02  0.20000038612E+02 0.  0.
        -12    1    1    2    0    0 -0.92895574099E+01  0.73521206023E+00  0.42388514071E+02  0.43400720487E+02  0.00000000000E+00 0.  1.
         11    1    3    3    0    0  0.60689984593E+01  0.54237411056E+01 -0.68076017219E+01  0.10610992006E+02  0.51100000000E-03 0. -1.
        -11    1    3    3    0    0 -0.24421130336E+01 -0.15130732384E+01 -0.53704933145E+01  0.60906079660E+01  0.51100000000E-03 0.  1.
         12    1    3    3    0    0  0.56626719842E+01 -0.46458799275E+01 -0.30210419035E+02  0.31085679541E+02  0.00000000000E+00 0. -1.
</event>
<event>
 7    1  0.2497395E-009  0.4778726E+02  0.7816164E-02  0.1312668E+00
        -11   -1    0    0    0    0  0.00000000000E+00  0.00000000000E+00  0.45593999997E+02  0.45594000000E+02  0.51100000000E-03 0.  1.
         11   -1    0    0    0    0 -0.00000000000E+00 -0.00000000000E+00 -0.45593999997E+02  0.45594000000E+02  0.51100000000E-03 0. -1.
    9900012    2    1    2    0    0 -0.15121762514E+02 -0.34709544518E+01 -0.40532813002E+02  0.47787260880E+02  0.19999953655E+02 0.  0.
        -12    1    1    2    0    0  0.15121762514E+02  0.34709544518E+01  0.40532813002E+02  0.43400739120E+02  0.00000000000E+00 0.  1.
         11    1    3    3    0    0 -0.44686845616E+01 -0.96025232656E-01 -0.99561888618E+01  0.10913480630E+02  0.51100000000E-03 0. -1.
        -11    1    3    3    0    0 -0.78621353633E+01  0.40531930858E+01 -0.26531328941E+02  0.27966997735E+02  0.51100000000E-03 0.  1.
        -12    1    3    3    0    0 -0.27909425895E+01 -0.74281223049E+01 -0.40452951988E+01  0.89067825145E+01  0.00000000000E+00 0.  1.
</event>
<event>
 7    1  0.2497395E-009  0.4778727E+02  0.7816164E-02  0.1312668E+00
        -11   -1    0    0    0    0  0.00000000000E+00  0.00000000000E+00  0.45593999997E+02  0.45594000000E+02  0.51100000000E-03 0.  1.
         11   -1    0    0    0    0 -0.00000000000E+00 -0.00000000000E+00 -0.45593999997E+02  0.45594000000E+02  0.51100000000E-03 0. -1.
    9900012    2    1    2    0    0 -0.37212953003E+02 -0.18983309054E+02 -0.11766639133E+02  0.47787266246E+02  0.19999978123E+02 0.  0.
        -12    1    1    2    0    0  0.37212953003E+02  0.18983309054E+02  0.11766639133E+02  0.43400733754E+02  0.00000000000E+00 0.  1.
         11    1    3    3    0    0 -0.24421395995E+02 -0.15050636226E+02 -0.10419603683E+02  0.30520392762E+02  0.51100000000E-03 0. -1.
        -11    1    3    3    0    0 -0.23876443652E+01  0.98243809665E-01  0.41804522654E+01  0.48152548079E+01  0.51100000000E-03 0.  1.
        -12    1    3    3    0    0 -0.10403912643E+02 -0.40309166376E+01 -0.55274877155E+01  0.12451618677E+02  0.00000000000E+00 0.  1.
</event>
<event>
 7    1  0.2497395E-009  0.4778727E+02  0.7816164E-02  0.1312668E+00
        -11   -1    0    0    0    0  0.00000000000E+00  0.00000000000E+00  0.45593999997E+02  0.45594000000E+02  0.51100000000E-03 0. -1.
         11   -1    0    0    0    0 -0.00000000000E+00 -0.00000000000E+00 -0.45593999997E+02  0.45594000000E+02  0.51100000000E-03 0.  1.
    9900012    2    1    2    0    0 -0.17698346977E+02  0.38379794531E+02  0.98682855357E+01  0.47787272203E+02  0.20000005281E+02 0.  0.
        -12    1    1    2    0    0  0.17698346977E+02 -0.38379794531E+02 -0.98682855357E+01  0.43400727797E+02  0.00000000000E+00 0.  1.
         11    1    3    3    0    0 -0.40800030770E+00  0.15527174872E+01  0.40307983446E+00  0.16552551043E+01  0.51100000000E-03 0. -1.
        -11    1    3    3    0    0  0.74872758187E+00 -0.20657654946E+01 -0.12154332444E+00  0.22006256182E+01  0.51100000000E-03 0.  1.
        -12    1    3    3    0    0 -0.18039074251E+02  0.38892842538E+02  0.95867490257E+01  0.43931391480E+02  0.00000000000E+00 0.  1.
</event>
<event>
 7    1  0.2497395E-009  0.4778727E+02  0.7816164E-02  0.1312668E+00
        -11   -1    0    0    0    0  0.00000000000E+00  0.00000000000E+00  0.45593999997E+02  0.45594000000E+02  0.51100000000E-03 0.  1.
         11   -1    0    0    0    0 -0.00000000000E+00 -0.00000000000E+00 -0.45593999997E+02  0.45594000000E+02  0.51100000000E-03 0. -1.
    9900012    2    1    2    0    0 -0.52304056384E+01 -0.42238197154E+02  0.84971338520E+01  0.47787265840E+02  0.19999976270E+02 0.  0.
        -12    1    1    2    0    0  0.52304056384E+01  0.42238197154E+02 -0.84971338520E+01  0.43400734160E+02  0.00000000000E+00 0.  1.
         11    1    3    3    0    0 -0.55726333037E+01 -0.37785166651E+02  0.12913856072E+02  0.40317995234E+02  0.51100000000E-03 0. -1.
        -11    1    3    3    0    0  0.20737725265E+01 -0.13870778897E+01 -0.16492593187E+01  0.29907480879E+01  0.51100000000E-03 0.  1.
         12    1    3    3    0    0 -0.17315448613E+01 -0.30659526129E+01 -0.27674629012E+01  0.44785225176E+01  0.00000000000E+00 0. -1.
</event>
<event>
 7    1  0.2497395E-009  0.4778727E+02  0.7816164E-02  0.1312668E+00
        -11   -1    0    0    0    0  0.00000000000E+00  0.00000000000E+00  0.45593999997E+02  0.45594000000E+02  0.51100000000E-03 0.  1.
         11   -1    0    0    0    0 -0.00000000000E+00 -0.00000000000E+00 -0.45593999997E+02  0.45594000000E+02  0.51100000000E-03 0. -1.
    9900012    2    1    2    0    0 -0.22068967362E+02  0.29956162779E+02 -0.22343065964E+02  0.47787267223E+02  0.19999982578E+02 0.  0.
        -12    1    1    2    0    0  0.22068967362E+02 -0.29956162779E+02  0.22343065964E+02  0.43400732777E+02  0.00000000000E+00 0.  1.
         11    1    3    3    0    0 -0.41230694297E+01  0.32874585215E+01 -0.10109123738E+02  0.11401818629E+02  0.51100000000E-03 0. -1.
        -11    1    3    3    0    0 -0.16691946304E+02  0.16414881196E+02 -0.54813205856E+01  0.24044006981E+02  0.51100000000E-03 0.  1.
        -12    1    3    3    0    0 -0.12539516287E+01  0.10253823061E+02 -0.67526216410E+01  0.12341441613E+02  0.00000000000E+00 0.  1.
</event>
<event>
 7    1  0.2497395E-009  0.4778727E+02  0.7816164E-02  0.1312668E+00
        -11   -1    0    0    0    0  0.00000000000E+00  0.00000000000E+00  0.45593999997E+02  0.45594000000E+02  0.51100000000E-03 0. -1.
         11   -1    0    0    0    0 -0.00000000000E+00 -0.00000000000E+00 -0.45593999997E+02  0.45594000000E+02  0.51100000000E-03 0.  1.
    9900012    2    1    2    0    0 -0.28593951677E+02 -0.32261287077E+02 -0.50218127706E+01  0.47787270515E+02  0.19999997584E+02 0.  0.
        -12    1    1    2    0    0  0.28593951677E+02  0.32261287077E+02  0.50218127706E+01  0.43400729485E+02  0.00000000000E+00 0.  1.
         11    1    3    3    0    0 -0.12749329712E+02 -0.22243229517E+02 -0.23822735995E+01  0.25748434811E+02  0.51100000000E-03 0. -1.
        -11    1    3    3    0    0 -0.36106989408E+01  0.21132765383E+01 -0.23687668533E+01  0.48077168422E+01  0.51100000000E-03 0.  1.
        -12    1    3    3    0    0 -0.12233923024E+02 -0.12131334098E+02 -0.27077231783E+00  0.17231118861E+02  0.00000000000E+00 0.  1.
</event>
<event>
 7    1  0.2497395E-009  0.4778727E+02  0.7816164E-02  0.1312668E+00
        -11   -1    0    0    0    0  0.00000000000E+00  0.00000000000E+00  0.45593999997E+02  0.45594000000E+02  0.51100000000E-03 0. -1.
         11   -1    0    0    0    0 -0.00000000000E+00 -0.00000000000E+00 -0.45593999997E+02  0.45594000000E+02  0.51100000000E-03 0.  1.
    9900012    2    1    2    0    0 -0.26753923733E+02 -0.19619620239E+02  0.27980731515E+02  0.47787271094E+02  0.20000000226E+02 0.  0.
        -12    1    1    2    0    0  0.26753923733E+02  0.19619620239E+02 -0.27980731515E+02  0.43400728906E+02  0.00000000000E+00 0.  1.
         11    1    3    3    0    0 -0.71826263984E+01 -0.34581640330E+01  0.13628026268E+02  0.15788353957E+02  0.51100000000E-03 0. -1.
        -11    1    3    3    0    0 -0.99820580879E+01 -0.12655811486E+02  0.24280669403E+01  0.16300507886E+02  0.51100000000E-03 0.  1.
        -12    1    3    3    0    0 -0.95892392469E+01 -0.35056447203E+01  0.11924638307E+02  0.15698409251E+02  0.00000000000E+00 0.  1.
</event>
<event>
 7    1  0.2497395E-009  0.4778727E+02  0.7816164E-02  0.1312668E+00
        -11   -1    0    0    0    0  0.00000000000E+00  0.00000000000E+00  0.45593999997E+02  0.45594000000E+02  0.51100000000E-03 0.  1.
         11   -1    0    0    0    0 -0.00000000000E+00 -0.00000000000E+00 -0.45593999997E+02  0.45594000000E+02  0.51100000000E-03 0. -1.
    9900012    2    1    2    0    0 -0.41814465557E+01 -0.36578352131E+01 -0.43043688301E+02  0.47787270095E+02  0.19999995671E+02 0.  0.
        -12    1    1    2    0    0  0.41814465557E+01  0.36578352131E+01  0.43043688301E+02  0.43400729905E+02  0.00000000000E+00 0.  1.
         11    1    3    3    0    0 -0.24420567443E+00 -0.54387287242E+01 -0.12668465355E+02  0.13788742556E+02  0.51100000000E-03 0. -1.
        -11    1    3    3    0    0 -0.44407634184E+00  0.14840533079E+01  0.13653735265E+01  0.20649123822E+01  0.51100000000E-03 0.  1.
        -12    1    3    3    0    0 -0.34931645394E+01  0.29684020322E+00 -0.31740596472E+02  0.31933615157E+02  0.00000000000E+00 0.  1.
</event>
<event>
 7    1  0.2497395E-009  0.4778727E+02  0.7816164E-02  0.1312668E+00
        -11   -1    0    0    0    0  0.00000000000E+00  0.00000000000E+00  0.45593999997E+02  0.45594000000E+02  0.51100000000E-03 0.  1.
         11   -1    0    0    0    0 -0.00000000000E+00 -0.00000000000E+00 -0.45593999997E+02  0.45594000000E+02  0.51100000000E-03 0. -1.
    9900012    2    1    2    0    0 -0.12458622034E+02 -0.33982151107E+02  0.23950355606E+02  0.47787269702E+02  0.19999993877E+02 0.  0.
        -12    1    1    2    0    0  0.12458622034E+02  0.33982151107E+02 -0.23950355606E+02  0.43400730298E+02  0.00000000000E+00 0.  1.
         11    1    3    3    0    0  0.64063496761E-01 -0.48635239009E+00 -0.46581492273E-02  0.49057592525E+00  0.51100000000E-03 0. -1.
        -11    1    3    3    0    0 -0.65751368717E+01 -0.27165971537E+02  0.79041493279E+01  0.29046480188E+02  0.51100000000E-03 0.  1.
        -12    1    3    3    0    0 -0.59475486587E+01 -0.63298271791E+01  0.16050864427E+02  0.18250213588E+02  0.00000000000E+00 0.  1.
</event>
<event>
 7    1  0.2497395E-009  0.4778728E+02  0.7816164E-02  0.1312668E+00
        -11   -1    0    0    0    0  0.00000000000E+00  0.00000000000E+00  0.45593999997E+02  0.45594000000E+02  0.51100000000E-03 0. -1.
         11   -1    0    0    0    0 -0.00000000000E+00 -0.00000000000E+00 -0.45593999997E+02  0.45594000000E+02  0.51100000000E-03 0.  1.
    9900012    2    1    2    0    0  0.36001468320E+02  0.10190258287E+02  0.21992626107E+02  0.47787277791E+02  0.20000030759E+02 0.  0.
        -12    1    1    2    0    0 -0.36001468320E+02 -0.10190258287E+02 -0.21992626107E+02  0.43400722209E+02  0.00000000000E+00 0.  1.
         11    1    3    3    0    0  0.24224452504E+02  0.37459532333E+01  0.18427067070E+02  0.30666155054E+02  0.51100000000E-03 0. -1.
        -11    1    3    3    0    0  0.79010950605E+01  0.83775589626E+01  0.73611108366E-02  0.11515678520E+02  0.51100000000E-03 0.  1.
        -12    1    3    3    0    0  0.38759207559E+01 -0.19332539087E+01  0.35581979262E+01  0.56054442164E+01  0.00000000000E+00 0.  1.
</event>
<event>
 7    1  0.2497395E-009  0.4778727E+02  0.7816164E-02  0.1312668E+00
        -11   -1    0    0    0    0  0.00000000000E+00  0.00000000000E+00  0.45593999997E+02  0.45594000000E+02  0.51100000000E-03 0.  1.
         11   -1    0    0    0    0 -0.00000000000E+00 -0.00000000000E+00 -0.45593999997E+02  0.45594000000E+02  0.51100000000E-03 0. -1.
    9900012    2    1    2    0    0  0.58094304693E+01 -0.10197006096E+01 -0.42998067554E+02  0.47787273219E+02  0.20000009916E+02 0.  0.
        -12    1    1    2    0    0 -0.58094304693E+01  0.10197006096E+01  0.42998067554E+02  0.43400726781E+02  0.00000000000E+00 0.  1.
         11    1    3    3    0    0 -0.13081102679E+01  0.58381062438E+01 -0.18457659473E+02  0.19403088168E+02  0.51100000000E-03 0. -1.
        -11    1    3    3    0    0  0.94544551183E+01 -0.66166117171E+01 -0.17501002790E+02  0.20963095456E+02  0.51100000000E-03 0.  1.
        -12    1    3    3    0    0 -0.23369143811E+01 -0.24119513636E+00 -0.70394052916E+01  0.74210895951E+01  0.00000000000E+00 0.  1.
</event>
<event>
 7    1  0.2497395E-009  0.4778727E+02  0.7816164E-02  0.1312668E+00
        -11   -1    0    0    0    0  0.00000000000E+00  0.00000000000E+00  0.45593999997E+02  0.45594000000E+02  0.51100000000E-03 0.  1.
         11   -1    0    0    0    0 -0.00000000000E+00 -0.00000000000E+00 -0.45593999997E+02  0.45594000000E+02  0.51100000000E-03 0. -1.
    9900012    2    1    2    0    0  0.14604034944E+02  0.12926593065E+02 -0.38771750694E+02  0.47787270780E+02  0.19999998795E+02 0.  0.
        -12    1    1    2    0    0 -0.14604034944E+02 -0.12926593065E+02  0.38771750694E+02  0.43400729220E+02  0.00000000000E+00 0.  1.
         11    1    3    3    0    0 -0.13799899946E+01  0.99376116018E+01 -0.18317076469E+02  0.20884821938E+02  0.51100000000E-03 0. -1.
        -11    1    3    3    0    0  0.96971000791E+01 -0.74389785694E+00 -0.14565603169E+02  0.17514106598E+02  0.51100000000E-03 0.  1.
         12    1    3    3    0    0  0.62869248595E+01  0.37328793198E+01 -0.58890710560E+01  0.93883422449E+01  0.00000000000E+00 0. -1.
</event>
<event>
 7    1  0.2497395E-009  0.4778727E+02  0.7816164E-02  0.1312668E+00
        -11   -1    0    0    0    0  0.00000000000E+00  0.00000000000E+00  0.45593999997E+02  0.45594000000E+02  0.51100000000E-03 0.  1.
         11   -1    0    0    0    0 -0.00000000000E+00 -0.00000000000E+00 -0.45593999997E+02  0.45594000000E+02  0.51100000000E-03 0. -1.
    9900012    2    1    2    0    0 -0.25462583761E+02  0.15294965983E+02 -0.31644017151E+02  0.47787274457E+02  0.20000015558E+02 0.  0.
        -12    1    1    2    0    0  0.25462583761E+02 -0.15294965983E+02  0.31644017151E+02  0.43400725543E+02  0.00000000000E+00 0.  1.
         11    1    3    3    0    0 -0.19256029185E+01 -0.31574688814E+01 -0.10435322389E+02  0.11071292154E+02  0.51100000000E-03 0. -1.
        -11    1    3    3    0    0 -0.12101286039E+02  0.10497382436E+02 -0.10664908687E+02  0.19245166650E+02  0.51100000000E-03 0.  1.
         12    1    3    3    0    0 -0.11435694804E+02  0.79550524287E+01 -0.10543786075E+02  0.17470815653E+02  0.00000000000E+00 0. -1.
</event>
<event>
 7    1  0.2497395E-009  0.4778727E+02  0.7816164E-02  0.1312668E+00
        -11   -1    0    0    0    0  0.00000000000E+00  0.00000000000E+00  0.45593999997E+02  0.45594000000E+02  0.51100000000E-03 0. -1.
         11   -1    0    0    0    0 -0.00000000000E+00 -0.00000000000E+00 -0.45593999997E+02  0.45594000000E+02  0.51100000000E-03 0.  1.
    9900012    2    1    2    0    0 -0.16226350799E+02  0.22079666608E+02  0.33657353381E+02  0.47787267582E+02  0.19999984215E+02 0.  0.
        -12    1    1    2    0    0  0.16226350799E+02 -0.22079666608E+02 -0.33657353381E+02  0.43400732418E+02  0.00000000000E+00 0.  1.
         11    1    3    3    0    0 -0.13477969315E+02  0.40791698795E+01  0.14477370076E+02  0.20196275111E+02  0.51100000000E-03 0. -1.
        -11    1    3    3    0    0 -0.16307442325E+01  0.19503299963E+01 -0.18412852372E-01  0.25423322247E+01  0.51100000000E-03 0.  1.
         12    1    3    3    0    0 -0.11176372511E+01  0.16050166732E+02  0.19198396157E+02  0.25048660247E+02  0.00000000000E+00 0. -1.
</event>
<event>
 7    1  0.2497395E-009  0.4778727E+02  0.7816164E-02  0.1312668E+00
        -11   -1    0    0    0    0  0.00000000000E+00  0.00000000000E+00  0.45593999997E+02  0.45594000000E+02  0.51100000000E-03 0.  1.
         11   -1    0    0    0    0 -0.00000000000E+00 -0.00000000000E+00 -0.45593999997E+02  0.45594000000E+02  0.51100000000E-03 0. -1.
    9900012    2    1    2    0    0 -0.36525278308E+02 -0.23003630747E+02 -0.45122558205E+01  0.47787269182E+02  0.19999991507E+02 0.  0.
        -12    1    1    2    0    0  0.36525278308E+02  0.23003630747E+02  0.45122558205E+01  0.43400730818E+02  0.00000000000E+00 0.  1.
         11    1    3    3    0    0 -0.50284396672E+01 -0.28012771790E+01 -0.31382039987E+01  0.65559655215E+01  0.51100000000E-03 0. -1.
        -11    1    3    3    0    0 -0.27332870704E+02 -0.11314860425E+02 -0.63064095985E+01  0.30247027782E+02  0.51100000000E-03 0.  1.
        -12    1    3    3    0    0 -0.41639679364E+01 -0.88874931424E+01  0.49323577767E+01  0.10984275878E+02  0.00000000000E+00 0.  1.
</event>
<event>
 7    1  0.2497395E-009  0.4778725E+02  0.7816164E-02  0.1312668E+00
        -11   -1    0    0    0    0  0.00000000000E+00  0.00000000000E+00  0.45593999997E+02  0.45594000000E+02  0.51100000000E-03 0.  1.
         11   -1    0    0    0    0 -0.00000000000E+00 -0.00000000000E+00 -0.45593999997E+02  0.45594000000E+02  0.51100000000E-03 0. -1.
    9900012    2    1    2    0    0  0.38005006272E+02 -0.15779472225E+02 -0.13793204096E+02  0.47787254331E+02  0.19999923796E+02 0.  0.
        -12    1    1    2    0    0 -0.38005006272E+02  0.15779472225E+02  0.13793204096E+02  0.43400745669E+02  0.00000000000E+00 0.  1.
         11    1    3    3    0    0  0.17475681996E+02 -0.79979950060E+01 -0.53489388831E+00  0.19226375037E+02  0.51100000000E-03 0. -1.
        -11    1    3    3    0    0  0.13379370468E+02 -0.31155913922E+01 -0.14452994256E+02  0.19939997670E+02  0.51100000000E-03 0.  1.
        -12    1    3    3    0    0  0.71499538076E+01 -0.46658858265E+01  0.11946840481E+01  0.86208816238E+01  0.00000000000E+00 0.  1.
</event>
<event>
 7    1  0.2497395E-009  0.4778727E+02  0.7816164E-02  0.1312668E+00
        -11   -1    0    0    0    0  0.00000000000E+00  0.00000000000E+00  0.45593999997E+02  0.45594000000E+02  0.51100000000E-03 0.  1.
         11   -1    0    0    0    0 -0.00000000000E+00 -0.00000000000E+00 -0.45593999997E+02  0.45594000000E+02  0.51100000000E-03 0. -1.
    9900012    2    1    2    0    0  0.14426047756E+02 -0.22722176736E+02 -0.34047243831E+02  0.47787274407E+02  0.20000015333E+02 0.  0.
        -12    1    1    2    0    0 -0.14426047756E+02  0.22722176736E+02  0.34047243831E+02  0.43400725593E+02  0.00000000000E+00 0.  1.
         11    1    3    3    0    0  0.55264007750E+01 -0.73491581561E+01 -0.13656434633E+02  0.16463579145E+02  0.51100000000E-03 0. -1.
        -11    1    3    3    0    0  0.48191121730E+01 -0.13301120429E+02 -0.45895308363E+01  0.14873044085E+02  0.51100000000E-03 0.  1.
        -12    1    3    3    0    0  0.40805348077E+01 -0.20718981508E+01 -0.15801278362E+02  0.16450651177E+02  0.00000000000E+00 0.  1.
</event>
<event>
 7    1  0.2497395E-009  0.4778727E+02  0.7816164E-02  0.1312668E+00
        -11   -1    0    0    0    0  0.00000000000E+00  0.00000000000E+00  0.45593999997E+02  0.45594000000E+02  0.51100000000E-03 0. -1.
         11   -1    0    0    0    0 -0.00000000000E+00 -0.00000000000E+00 -0.45593999997E+02  0.45594000000E+02  0.51100000000E-03 0.  1.
    9900012    2    1    2    0    0 -0.11467374385E+02 -0.38168495301E+02  0.17183953948E+02  0.47787274405E+02  0.20000015324E+02 0.  0.
        -12    1    1    2    0    0  0.11467374385E+02  0.38168495301E+02 -0.17183953948E+02  0.43400725595E+02  0.00000000000E+00 0.  1.
         11    1    3    3    0    0 -0.84679424992E+01 -0.88261623453E+01  0.10511281173E+01  0.12276484126E+02  0.51100000000E-03 0. -1.
        -11    1    3    3    0    0 -0.16801047183E+01 -0.26899828820E+02  0.17774597255E+02  0.32285598186E+02  0.51100000000E-03 0.  1.
        -12    1    3    3    0    0 -0.13193271677E+01 -0.24425041356E+01 -0.16417714240E+01  0.32251920930E+01  0.00000000000E+00 0.  1.
</event>
<event>
 7    1  0.2497395E-009  0.4778727E+02  0.7816164E-02  0.1312668E+00
        -11   -1    0    0    0    0  0.00000000000E+00  0.00000000000E+00  0.45593999997E+02  0.45594000000E+02  0.51100000000E-03 0.  1.
         11   -1    0    0    0    0 -0.00000000000E+00 -0.00000000000E+00 -0.45593999997E+02  0.45594000000E+02  0.51100000000E-03 0. -1.
    9900012    2    1    2    0    0  0.12918716496E+02 -0.15717753115E+02 -0.38336434515E+02  0.47787271778E+02  0.20000003346E+02 0.  0.
        -12    1    1    2    0    0 -0.12918716496E+02  0.15717753115E+02  0.38336434515E+02  0.43400728222E+02  0.00000000000E+00 0.  1.
         11    1    3    3    0    0  0.42075064206E+01 -0.75093401394E+01 -0.29632722063E+02  0.30857600632E+02  0.51100000000E-03 0. -1.
        -11    1    3    3    0    0  0.83520704531E+00 -0.49876833226E+01 -0.45313352104E+00  0.50773896822E+01  0.51100000000E-03 0.  1.
         12    1    3    3    0    0  0.78760030297E+01 -0.32207296533E+01 -0.82505789304E+01  0.11852281464E+02  0.00000000000E+00 0. -1.
</event>
<event>
 7    1  0.2497395E-009  0.4778727E+02  0.7816164E-02  0.1312668E+00
        -11   -1    0    0    0    0  0.00000000000E+00  0.00000000000E+00  0.45593999997E+02  0.45594000000E+02  0.51100000000E-03 0.  1.
         11   -1    0    0    0    0 -0.00000000000E+00 -0.00000000000E+00 -0.45593999997E+02  0.45594000000E+02  0.51100000000E-03 0. -1.
    9900012    2    1    2    0    0  0.23717324500E+02 -0.55768932410E+01 -0.35916708993E+02  0.47787271843E+02  0.20000003643E+02 0.  0.
        -12    1    1    2    0    0 -0.23717324500E+02  0.55768932410E+01  0.35916708993E+02  0.43400728157E+02  0.00000000000E+00 0.  1.
         11    1    3    3    0    0  0.19949865558E+02 -0.54820165990E+01 -0.20139278443E+02  0.28872827680E+02  0.51100000000E-03 0. -1.
        -11    1    3    3    0    0  0.32125959459E+01  0.30075953669E+01 -0.15049563906E+02  0.15679788794E+02  0.51100000000E-03 0.  1.
         12    1    3    3    0    0  0.55486299612E+00 -0.31024720089E+01 -0.72786664439E+00  0.32346553700E+01  0.00000000000E+00 0. -1.
</event>
<event>
 7    1  0.2497395E-009  0.4778727E+02  0.7816164E-02  0.1312668E+00
        -11   -1    0    0    0    0  0.00000000000E+00  0.00000000000E+00  0.45593999997E+02  0.45594000000E+02  0.51100000000E-03 0.  1.
         11   -1    0    0    0    0 -0.00000000000E+00 -0.00000000000E+00 -0.45593999997E+02  0.45594000000E+02  0.51100000000E-03 0. -1.
    9900012    2    1    2    0    0  0.16912942026E+02  0.44130185138E+01 -0.39725324333E+02  0.47787265747E+02  0.19999975845E+02 0.  0.
        -12    1    1    2    0    0 -0.16912942026E+02 -0.44130185138E+01  0.39725324333E+02  0.43400734253E+02  0.00000000000E+00 0.  1.
         11    1    3    3    0    0  0.16295395596E+02  0.60939205978E+01 -0.20752012179E+02  0.27079914985E+02  0.51100000000E-03 0. -1.
        -11    1    3    3    0    0 -0.12119293139E+01 -0.13333005974E+01 -0.18744777379E+02  0.18831174748E+02  0.51100000000E-03 0.  1.
         12    1    3    3    0    0  0.18294757437E+01 -0.34760148659E+00 -0.22853477550E+00  0.18761760136E+01  0.00000000000E+00 0. -1.
</event>
<event>
 7    1  0.2497395E-009  0.4778728E+02  0.7816164E-02  0.1312668E+00
        -11   -1    0    0    0    0  0.00000000000E+00  0.00000000000E+00  0.45593999997E+02  0.45594000000E+02  0.51100000000E-03 0.  1.
         11   -1    0    0    0    0 -0.00000000000E+00 -0.00000000000E+00 -0.45593999997E+02  0.45594000000E+02  0.51100000000E-03 0. -1.
    9900012    2    1    2    0    0 -0.16214480141E+02 -0.16214499739E+02 -0.36848385435E+02  0.47787275614E+02  0.20000020834E+02 0.  0.
        -12    1    1    2    0    0  0.16214480141E+02  0.16214499739E+02  0.36848385435E+02  0.43400724386E+02  0.00000000000E+00 0.  1.
         11    1    3    3    0    0 -0.10663783255E+02 -0.23895445252E+00 -0.18376827885E+02  0.21248086406E+02  0.51100000000E-03 0. -1.
        -11    1    3    3    0    0 -0.78797352898E+01 -0.13672118601E+02 -0.15292102073E+02  0.21974199447E+02  0.51100000000E-03 0.  1.
        -12    1    3    3    0    0  0.23290384036E+01 -0.23034266861E+01 -0.31794554779E+01  0.45649897611E+01  0.00000000000E+00 0.  1.
</event>
<event>
 7    1  0.2497395E-009  0.4778727E+02  0.7816164E-02  0.1312668E+00
        -11   -1    0    0    0    0  0.00000000000E+00  0.00000000000E+00  0.45593999997E+02  0.45594000000E+02  0.51100000000E-03 0.  1.
         11   -1    0    0    0    0 -0.00000000000E+00 -0.00000000000E+00 -0.45593999997E+02  0.45594000000E+02  0.51100000000E-03 0. -1.
    9900012    2    1    2    0    0 -0.25208591998E+02  0.19891710524E+02 -0.29197085471E+02  0.47787273531E+02  0.20000011336E+02 0.  0.
        -12    1    1    2    0    0  0.25208591998E+02 -0.19891710524E+02  0.29197085471E+02  0.43400726469E+02  0.00000000000E+00 0.  1.
         11    1    3    3    0    0 -0.25920865158E+01 -0.19725993673E+01  0.11976175522E+01  0.34704969142E+01  0.51100000000E-03 0. -1.
        -11    1    3    3    0    0 -0.10419584525E+02  0.14063680935E+02 -0.19459994538E+02  0.26173388218E+02  0.51100000000E-03 0.  1.
         12    1    3    3    0    0 -0.12196920956E+02  0.78006289561E+01 -0.10934708485E+02  0.18143388399E+02  0.00000000000E+00 0. -1.
</event>
<event>
 7    1  0.2497395E-009  0.4778727E+02  0.7816164E-02  0.1312668E+00
        -11   -1    0    0    0    0  0.00000000000E+00  0.00000000000E+00  0.45593999997E+02  0.45594000000E+02  0.51100000000E-03 0.  1.
         11   -1    0    0    0    0 -0.00000000000E+00 -0.00000000000E+00 -0.45593999997E+02  0.45594000000E+02  0.51100000000E-03 0. -1.
    9900012    2    1    2    0    0  0.24787409992E+02 -0.70205804136E+01 -0.34927339239E+02  0.47787271091E+02  0.20000000214E+02 0.  0.
        -12    1    1    2    0    0 -0.24787409992E+02  0.70205804136E+01  0.34927339239E+02  0.43400728909E+02  0.00000000000E+00 0.  1.
         11    1    3    3    0    0  0.40435982613E+01 -0.38943230452E+00 -0.53435382713E+01  0.67123577033E+01  0.51100000000E-03 0. -1.
        -11    1    3    3    0    0  0.23484524281E+02 -0.30916586958E+01 -0.22343298411E+02  0.32562312853E+02  0.51100000000E-03 0.  1.
        -12    1    3    3    0    0 -0.27407125504E+01 -0.35394894132E+01 -0.72405025573E+01  0.85126005352E+01  0.00000000000E+00 0.  1.
</event>
<event>
 7    1  0.2497395E-009  0.4778727E+02  0.7816164E-02  0.1312668E+00
        -11   -1    0    0    0    0  0.00000000000E+00  0.00000000000E+00  0.45593999997E+02  0.45594000000E+02  0.51100000000E-03 0. -1.
         11   -1    0    0    0    0 -0.00000000000E+00 -0.00000000000E+00 -0.45593999997E+02  0.45594000000E+02  0.51100000000E-03 0.  1.
    9900012    2    1    2    0    0  0.24707802383E+01 -0.39506490380E+02  0.17797635255E+02  0.47787270077E+02  0.19999995591E+02 0.  0.
        -12    1    1    2    0    0 -0.24707802383E+01  0.39506490380E+02 -0.17797635255E+02  0.43400729923E+02  0.00000000000E+00 0.  1.
         11    1    3    3    0    0  0.10748901811E+02 -0.22388722666E+02  0.10199839738E+02  0.26848287165E+02  0.51100000000E-03 0. -1.
        -11    1    3    3    0    0 -0.62555421414E+01 -0.79271911260E+01  0.37409388781E+01  0.10768787795E+02  0.51100000000E-03 0.  1.
         12    1    3    3    0    0 -0.20225794317E+01 -0.91905765882E+01  0.38568566383E+01  0.10170195117E+02  0.00000000000E+00 0. -1.
</event>
<event>
 7    1  0.2497395E-009  0.4778727E+02  0.7816164E-02  0.1312668E+00
        -11   -1    0    0    0    0  0.00000000000E+00  0.00000000000E+00  0.45593999997E+02  0.45594000000E+02  0.51100000000E-03 0. -1.
         11   -1    0    0    0    0 -0.00000000000E+00 -0.00000000000E+00 -0.45593999997E+02  0.45594000000E+02  0.51100000000E-03 0.  1.
    9900012    2    1    2    0    0  0.65908154137E+01 -0.22051935386E+02  0.36795336895E+02  0.47787268217E+02  0.19999987107E+02 0.  0.
        -12    1    1    2    0    0 -0.65908154137E+01  0.22051935386E+02 -0.36795336895E+02  0.43400731783E+02  0.00000000000E+00 0.  1.
         11    1    3    3    0    0  0.48805082072E+01 -0.84932861461E+00  0.13036206502E+01  0.51225136913E+01  0.51100000000E-03 0. -1.
        -11    1    3    3    0    0  0.25141299020E+01 -0.43798956974E+00  0.19668498316E+01  0.32219842564E+01  0.51100000000E-03 0.  1.
         12    1    3    3    0    0 -0.80382269556E+00 -0.20764617202E+02  0.33524866413E+02  0.39442770269E+02  0.00000000000E+00 0. -1.
</event>
<event>
 7    1  0.2497395E-009  0.4778727E+02  0.7816164E-02  0.1312668E+00
        -11   -1    0    0    0    0  0.00000000000E+00  0.00000000000E+00  0.45593999997E+02  0.45594000000E+02  0.51100000000E-03 0. -1.
         11   -1    0    0    0    0 -0.00000000000E+00 -0.00000000000E+00 -0.45593999997E+02  0.45594000000E+02  0.51100000000E-03 0.  1.
    9900012    2    1    2    0    0  0.46206304202E+01 -0.16000825555E+02  0.40078003886E+02  0.47787273746E+02  0.20000012316E+02 0.  0.
        -12    1    1    2    0    0 -0.46206304202E+01  0.16000825555E+02 -0.40078003886E+02  0.43400726254E+02  0.00000000000E+00 0.  1.
         11    1    3    3    0    0 -0.51150499666E+01 -0.24664969408E+01  0.96988672879E+01  0.11239011089E+02  0.51100000000E-03 0. -1.
        -11    1    3    3    0    0 -0.11299489816E+01 -0.64695643055E+01  0.58023019753E+01  0.87634899143E+01  0.51100000000E-03 0.  1.
         12    1    3    3    0    0  0.10865629368E+02 -0.70647643092E+01  0.24576834622E+02  0.27784772743E+02  0.00000000000E+00 0. -1.
</event>
<event>
 7    1  0.2497395E-009  0.4778727E+02  0.7816164E-02  0.1312668E+00
        -11   -1    0    0    0    0  0.00000000000E+00  0.00000000000E+00  0.45593999997E+02  0.45594000000E+02  0.51100000000E-03 0. -1.
         11   -1    0    0    0    0 -0.00000000000E+00 -0.00000000000E+00 -0.45593999997E+02  0.45594000000E+02  0.51100000000E-03 0.  1.
    9900012    2    1    2    0    0 -0.33588599210E+02  0.21592836067E+01  0.27400125299E+02  0.47787269949E+02  0.19999995004E+02 0.  0.
        -12    1    1    2    0    0  0.33588599210E+02 -0.21592836067E+01 -0.27400125299E+02  0.43400730051E+02  0.00000000000E+00 0.  1.
         11    1    3    3    0    0 -0.15454953299E+02 -0.20157974709E+01  0.10927882300E+02  0.19035168314E+02  0.51100000000E-03 0. -1.
        -11    1    3    3    0    0 -0.65694931400E+01  0.74235127043E+01  0.23036841743E+01  0.10177118552E+02  0.51100000000E-03 0.  1.
        -12    1    3    3    0    0 -0.11564152771E+02 -0.32484316267E+01  0.14168558824E+02  0.18574983082E+02  0.00000000000E+00 0.  1.
</event>
<event>
 7    1  0.2497395E-009  0.4778724E+02  0.7816164E-02  0.1312668E+00
        -11   -1    0    0    0    0  0.00000000000E+00  0.00000000000E+00  0.45593999997E+02  0.45594000000E+02  0.51100000000E-03 0.  1.
         11   -1    0    0    0    0 -0.00000000000E+00 -0.00000000000E+00 -0.45593999997E+02  0.45594000000E+02  0.51100000000E-03 0. -1.
    9900012    2    1    2    0    0 -0.36649629479E+02 -0.39093701148E+01 -0.22916097271E+02  0.47787239295E+02  0.19999855240E+02 0.  0.
        -12    1    1    2    0    0  0.36649629479E+02  0.39093701148E+01  0.22916097271E+02  0.43400760705E+02  0.00000000000E+00 0.  1.
         11    1    3    3    0    0 -0.14254937188E+02  0.55045421750E+01 -0.16659875030E+02  0.22606517978E+02  0.51100000000E-03 0. -1.
        -11    1    3    3    0    0 -0.15911025595E+02 -0.61941464364E+01 -0.53051444836E+01  0.17879394392E+02  0.51100000000E-03 0.  1.
         12    1    3    3    0    0 -0.64836666954E+01 -0.32197658535E+01 -0.95107775770E+00  0.73013269253E+01  0.00000000000E+00 0. -1.
</event>
<event>
 7    1  0.2497395E-009  0.4778728E+02  0.7816164E-02  0.1312668E+00
        -11   -1    0    0    0    0  0.00000000000E+00  0.00000000000E+00  0.45593999997E+02  0.45594000000E+02  0.51100000000E-03 0.  1.
         11   -1    0    0    0    0 -0.00000000000E+00 -0.00000000000E+00 -0.45593999997E+02  0.45594000000E+02  0.51100000000E-03 0. -1.
    9900012    2    1    2    0    0  0.14746318026E+02 -0.17548059085E+02 -0.36854233003E+02  0.47787276928E+02  0.20000026824E+02 0.  0.
        -12    1    1    2    0    0 -0.14746318026E+02  0.17548059085E+02  0.36854233003E+02  0.43400723072E+02  0.00000000000E+00 0.  1.
         11    1    3    3    0    0  0.31715191524E-01 -0.59748972277E+01 -0.11782769735E+02  0.13211134153E+02  0.51100000000E-03 0. -1.
        -11    1    3    3    0    0  0.39730022985E+01 -0.54811638236E+01 -0.15955606195E+00  0.67715110960E+01  0.51100000000E-03 0.  1.
        -12    1    3    3    0    0  0.10741600536E+02 -0.60919980338E+01 -0.24911907206E+02  0.27804631678E+02  0.00000000000E+00 0.  1.
</event>
<event>
 7    1  0.2497395E-009  0.4778727E+02  0.7816164E-02  0.1312668E+00
        -11   -1    0    0    0    0  0.00000000000E+00  0.00000000000E+00  0.45593999997E+02  0.45594000000E+02  0.51100000000E-03 0.  1.
         11   -1    0    0    0    0 -0.00000000000E+00 -0.00000000000E+00 -0.45593999997E+02  0.45594000000E+02  0.51100000000E-03 0. -1.
    9900012    2    1    2    0    0  0.29951754940E+02  0.26188501084E+02  0.17340063203E+02  0.47787274143E+02  0.20000014127E+02 0.  0.
        -12    1    1    2    0    0 -0.29951754940E+02 -0.26188501084E+02 -0.17340063203E+02  0.43400725857E+02  0.00000000000E+00 0.  1.
         11    1    3    3    0    0  0.54104131870E+01  0.97439955313E+01 -0.19367228710E+01  0.11312334662E+02  0.51100000000E-03 0. -1.
        -11    1    3    3    0    0  0.10523559136E+02  0.28877921993E+01  0.10305005040E+02  0.15009256138E+02  0.51100000000E-03 0.  1.
         12    1    3    3    0    0  0.14017782617E+02  0.13556713354E+02  0.89717810338E+01  0.21465683343E+02  0.00000000000E+00 0. -1.
</event>
<event>
 7    1  0.2497395E-009  0.4778727E+02  0.7816164E-02  0.1312668E+00
        -11   -1    0    0    0    0  0.00000000000E+00  0.00000000000E+00  0.45593999997E+02  0.45594000000E+02  0.51100000000E-03 0.  1.
         11   -1    0    0    0    0 -0.00000000000E+00 -0.00000000000E+00 -0.45593999997E+02  0.45594000000E+02  0.51100000000E-03 0. -1.
    9900012    2    1    2    0    0 -0.16530388615E+01 -0.27617849674E+02 -0.33438680278E+02  0.47787268476E+02  0.19999988291E+02 0.  0.
        -12    1    1    2    0    0  0.16530388615E+01  0.27617849674E+02  0.33438680278E+02  0.43400731524E+02  0.00000000000E+00 0.  1.
         11    1    3    3    0    0 -0.82183679206E+01 -0.70850877149E+01 -0.15410620258E+02  0.18847473470E+02  0.51100000000E-03 0. -1.
        -11    1    3    3    0    0  0.65829196295E+01 -0.14207990779E+02 -0.15770694926E+02  0.22224235680E+02  0.51100000000E-03 0.  1.
        -12    1    3    3    0    0 -0.17590570453E-01 -0.63247711798E+01 -0.22573650935E+01  0.67155593267E+01  0.00000000000E+00 0.  1.
</event>
<event>
 7    1  0.2497395E-009  0.4778727E+02  0.7816164E-02  0.1312668E+00
        -11   -1    0    0    0    0  0.00000000000E+00  0.00000000000E+00  0.45593999997E+02  0.45594000000E+02  0.51100000000E-03 0.  1.
         11   -1    0    0    0    0 -0.00000000000E+00 -0.00000000000E+00 -0.45593999997E+02  0.45594000000E+02  0.51100000000E-03 0. -1.
    9900012    2    1    2    0    0 -0.34865640372E+02 -0.75658739969E+01 -0.24713728234E+02  0.47787266238E+02  0.19999978085E+02 0.  0.
        -12    1    1    2    0    0  0.34865640372E+02  0.75658739969E+01  0.24713728234E+02  0.43400733762E+02  0.00000000000E+00 0.  1.
         11    1    3    3    0    0 -0.34287493774E+02 -0.47953635495E+01 -0.16668852744E+02  0.38424970955E+02  0.51100000000E-03 0. -1.
        -11    1    3    3    0    0 -0.25795064484E+00 -0.35554156315E+01 -0.76232035183E+01  0.84155065796E+01  0.51100000000E-03 0.  1.
        -12    1    3    3    0    0 -0.32019595309E+00  0.78490518419E+00 -0.42167197180E+00  0.94678870311E+00  0.00000000000E+00 0.  1.
</event>
<event>
 7    1  0.2497395E-009  0.4778727E+02  0.7816164E-02  0.1312668E+00
        -11   -1    0    0    0    0  0.00000000000E+00  0.00000000000E+00  0.45593999997E+02  0.45594000000E+02  0.51100000000E-03 0.  1.
         11   -1    0    0    0    0 -0.00000000000E+00 -0.00000000000E+00 -0.45593999997E+02  0.45594000000E+02  0.51100000000E-03 0. -1.
    9900012    2    1    2    0    0 -0.10352005145E+02 -0.33585337973E+02 -0.25465354683E+02  0.47787271591E+02  0.20000002494E+02 0.  0.
        -12    1    1    2    0    0  0.10352005145E+02  0.33585337973E+02  0.25465354683E+02  0.43400728409E+02  0.00000000000E+00 0.  1.
         11    1    3    3    0    0 -0.11315009923E+02 -0.12607033900E+02 -0.15483997786E+02  0.22950401761E+02  0.51100000000E-03 0. -1.
        -11    1    3    3    0    0  0.28132286953E+01 -0.58997431963E+01  0.21662178332E+00  0.65397362892E+01  0.51100000000E-03 0.  1.
         12    1    3    3    0    0 -0.18502239176E+01 -0.15078560876E+02 -0.10197978680E+02  0.18297133541E+02  0.00000000000E+00 0. -1.
</event>
<event>
 7    1  0.2497395E-009  0.4778725E+02  0.7816164E-02  0.1312668E+00
        -11   -1    0    0    0    0  0.00000000000E+00  0.00000000000E+00  0.45593999997E+02  0.45594000000E+02  0.51100000000E-03 0.  1.
         11   -1    0    0    0    0 -0.00000000000E+00 -0.00000000000E+00 -0.45593999997E+02  0.45594000000E+02  0.51100000000E-03 0. -1.
    9900012    2    1    2    0    0  0.20295746937E+02 -0.19049371455E+02 -0.33299082406E+02  0.47787253628E+02  0.19999920591E+02 0.  0.
        -12    1    1    2    0    0 -0.20295746937E+02  0.19049371455E+02  0.33299082406E+02  0.43400746372E+02  0.00000000000E+00 0.  1.
         11    1    3    3    0    0  0.70389256039E+01 -0.39192671308E+01 -0.90009247875E+01  0.12079891382E+02  0.51100000000E-03 0. -1.
        -11    1    3    3    0    0  0.99825346212E+01 -0.17515874791E+01 -0.34223570000E+01  0.10697269925E+02  0.51100000000E-03 0.  1.
        -12    1    3    3    0    0  0.32742867122E+01 -0.13378516845E+02 -0.20875800618E+02  0.25010092321E+02  0.00000000000E+00 0.  1.
</event>
<event>
 7    1  0.2497395E-009  0.4778727E+02  0.7816164E-02  0.1312668E+00
        -11   -1    0    0    0    0  0.00000000000E+00  0.00000000000E+00  0.45593999997E+02  0.45594000000E+02  0.51100000000E-03 0.  1.
         11   -1    0    0    0    0 -0.00000000000E+00 -0.00000000000E+00 -0.45593999997E+02  0.45594000000E+02  0.51100000000E-03 0. -1.
    9900012    2    1    2    0    0 -0.72175457625E+01 -0.25293410607E+02 -0.34522072594E+02  0.47787273241E+02  0.20000010017E+02 0.  0.
        -12    1    1    2    0    0  0.72175457625E+01  0.25293410607E+02  0.34522072594E+02  0.43400726759E+02  0.00000000000E+00 0.  1.
         11    1    3    3    0    0 -0.44448224111E+01 -0.19161896144E+02 -0.23517484683E+02  0.30659530267E+02  0.51100000000E-03 0. -1.
        -11    1    3    3    0    0  0.38618719529E+01  0.51084346159E-01 -0.46975932844E+01  0.60814511030E+01  0.51100000000E-03 0.  1.
        -12    1    3    3    0    0 -0.66345953043E+01 -0.61825988094E+01 -0.63069946266E+01  0.11046291872E+02  0.00000000000E+00 0.  1.
</event>
<event>
 7    1  0.2497395E-009  0.4778727E+02  0.7816164E-02  0.1312668E+00
        -11   -1    0    0    0    0  0.00000000000E+00  0.00000000000E+00  0.45593999997E+02  0.45594000000E+02  0.51100000000E-03 0. -1.
         11   -1    0    0    0    0 -0.00000000000E+00 -0.00000000000E+00 -0.45593999997E+02  0.45594000000E+02  0.51100000000E-03 0.  1.
    9900012    2    1    2    0    0  0.19964401945E+02  0.12020531125E+02  0.36613557077E+02  0.47787273331E+02  0.20000010423E+02 0.  0.
        -12    1    1    2    0    0 -0.19964401945E+02 -0.12020531125E+02 -0.36613557077E+02  0.43400726669E+02  0.00000000000E+00 0.  1.
         11    1    3    3    0    0  0.84678281246E+01  0.65443281564E+01  0.11997312314E+02  0.16076935255E+02  0.51100000000E-03 0. -1.
        -11    1    3    3    0    0 -0.33700938232E+00  0.73018383544E+01  0.54753333414E+01  0.91328907876E+01  0.51100000000E-03 0.  1.
        -12    1    3    3    0    0  0.11833583203E+02 -0.18256353856E+01  0.19140911421E+02  0.22577447288E+02  0.00000000000E+00 0.  1.
</event>
<event>
 7    1  0.2497395E-009  0.4778727E+02  0.7816164E-02  0.1312668E+00
        -11   -1    0    0    0    0  0.00000000000E+00  0.00000000000E+00  0.45593999997E+02  0.45594000000E+02  0.51100000000E-03 0.  1.
         11   -1    0    0    0    0 -0.00000000000E+00 -0.00000000000E+00 -0.45593999997E+02  0.45594000000E+02  0.51100000000E-03 0. -1.
    9900012    2    1    2    0    0 -0.22541155484E+02  0.36571618386E+02 -0.61673706760E+01  0.47787269327E+02  0.19999992168E+02 0.  0.
        -12    1    1    2    0    0  0.22541155484E+02 -0.36571618386E+02  0.61673706760E+01  0.43400730673E+02  0.00000000000E+00 0.  1.
         11    1    3    3    0    0 -0.41230323779E+01  0.10703495956E+02 -0.38647402687E+01  0.12103736583E+02  0.51100000000E-03 0. -1.
        -11    1    3    3    0    0 -0.10409918665E+02  0.94165347782E+01 -0.84465941418E+01  0.16382383425E+02  0.51100000000E-03 0.  1.
        -12    1    3    3    0    0 -0.80082044416E+01  0.16451587652E+02  0.61439637344E+01  0.19301149318E+02  0.00000000000E+00 0.  1.
</event>
<event>
 7    1  0.2497395E-009  0.4778727E+02  0.7816164E-02  0.1312668E+00
        -11   -1    0    0    0    0  0.00000000000E+00  0.00000000000E+00  0.45593999997E+02  0.45594000000E+02  0.51100000000E-03 0.  1.
         11   -1    0    0    0    0 -0.00000000000E+00 -0.00000000000E+00 -0.45593999997E+02  0.45594000000E+02  0.51100000000E-03 0. -1.
    9900012    2    1    2    0    0  0.31704646481E+02  0.59015337826E+01 -0.29044974347E+02  0.47787271385E+02  0.20000001553E+02 0.  0.
        -12    1    1    2    0    0 -0.31704646481E+02 -0.59015337826E+01  0.29044974347E+02  0.43400728615E+02  0.00000000000E+00 0.  1.
         11    1    3    3    0    0  0.23055231192E+02 -0.10569659452E+00 -0.11694050159E+02  0.25851608585E+02  0.51100000000E-03 0. -1.
        -11    1    3    3    0    0  0.46289862342E+01  0.77426545596E+01 -0.11096369443E+02  0.14300546432E+02  0.51100000000E-03 0.  1.
         12    1    3    3    0    0  0.40204290556E+01 -0.17354241825E+01 -0.62545547454E+01  0.76351163677E+01  0.00000000000E+00 0. -1.
</event>
<event>
 7    1  0.2497395E-009  0.4778728E+02  0.7816164E-02  0.1312668E+00
        -11   -1    0    0    0    0  0.00000000000E+00  0.00000000000E+00  0.45593999997E+02  0.45594000000E+02  0.51100000000E-03 0.  1.
         11   -1    0    0    0    0 -0.00000000000E+00 -0.00000000000E+00 -0.45593999997E+02  0.45594000000E+02  0.51100000000E-03 0. -1.
    9900012    2    1    2    0    0  0.30064325535E+02  0.16941138385E+02 -0.26320278130E+02  0.47787275577E+02  0.20000020665E+02 0.  0.
        -12    1    1    2    0    0 -0.30064325535E+02 -0.16941138385E+02  0.26320278130E+02  0.43400724423E+02  0.00000000000E+00 0.  1.
         11    1    3    3    0    0  0.24372876122E+01 -0.28389300092E+01 -0.57055854341E+01  0.68230198526E+01  0.51100000000E-03 0. -1.
        -11    1    3    3    0    0  0.15709064538E+02  0.13695380724E+02 -0.72869036821E+01  0.22077978335E+02  0.51100000000E-03 0.  1.
         12    1    3    3    0    0  0.11917973385E+02  0.60846876705E+01 -0.13327789013E+02  0.18886277389E+02  0.00000000000E+00 0. -1.
</event>
<event>
 7    1  0.2497395E-009  0.4778727E+02  0.7816164E-02  0.1312668E+00
        -11   -1    0    0    0    0  0.00000000000E+00  0.00000000000E+00  0.45593999997E+02  0.45594000000E+02  0.51100000000E-03 0.  1.
         11   -1    0    0    0    0 -0.00000000000E+00 -0.00000000000E+00 -0.45593999997E+02  0.45594000000E+02  0.51100000000E-03 0. -1.
    9900012    2    1    2    0    0 -0.37471605892E+02 -0.13454099850E+02  0.17276835785E+02  0.47787272983E+02  0.20000008837E+02 0.  0.
        -12    1    1    2    0    0  0.37471605892E+02  0.13454099850E+02 -0.17276835785E+02  0.43400727017E+02  0.00000000000E+00 0.  1.
         11    1    3    3    0    0 -0.26306658441E+02 -0.15223747516E+02  0.18608709452E+02  0.35638277659E+02  0.51100000000E-03 0. -1.
        -11    1    3    3    0    0 -0.24468100146E+01 -0.55137017517E+00 -0.18433665709E+01  0.31126980087E+01  0.51100000000E-03 0.  1.
         12    1    3    3    0    0 -0.87181374365E+01  0.23210178404E+01  0.51149290314E+00  0.90362973151E+01  0.00000000000E+00 0. -1.
</event>
<event>
 7    1  0.2497395E-009  0.4778727E+02  0.7816164E-02  0.1312668E+00
        -11   -1    0    0    0    0  0.00000000000E+00  0.00000000000E+00  0.45593999997E+02  0.45594000000E+02  0.51100000000E-03 0.  1.
         11   -1    0    0    0    0 -0.00000000000E+00 -0.00000000000E+00 -0.45593999997E+02  0.45594000000E+02  0.51100000000E-03 0. -1.
    9900012    2    1    2    0    0 -0.38810836011E+02  0.85005833462E+01 -0.17466601417E+02  0.47787273345E+02  0.20000010491E+02 0.  0.
        -12    1    1    2    0    0  0.38810836011E+02 -0.85005833462E+01  0.17466601417E+02  0.43400726655E+02  0.00000000000E+00 0.  1.
         11    1    3    3    0    0 -0.36439097644E+02  0.65822346878E+01 -0.15087681690E+02  0.39984644423E+02  0.51100000000E-03 0. -1.
        -11    1    3    3    0    0  0.17532007971E+01  0.19390930630E+01 -0.25797861552E+01  0.36727498975E+01  0.51100000000E-03 0.  1.
        -12    1    3    3    0    0 -0.41249391637E+01 -0.20744404593E-01  0.20086642830E+00  0.41298790244E+01  0.00000000000E+00 0.  1.
</event>
<event>
 7    1  0.2497395E-009  0.4778726E+02  0.7816164E-02  0.1312668E+00
        -11   -1    0    0    0    0  0.00000000000E+00  0.00000000000E+00  0.45593999997E+02  0.45594000000E+02  0.51100000000E-03 0.  1.
         11   -1    0    0    0    0 -0.00000000000E+00 -0.00000000000E+00 -0.45593999997E+02  0.45594000000E+02  0.51100000000E-03 0. -1.
    9900012    2    1    2    0    0  0.10061459395E+02 -0.11942830440E+02 -0.40493949750E+02  0.47787261176E+02  0.19999955008E+02 0.  0.
        -12    1    1    2    0    0 -0.10061459395E+02  0.11942830440E+02  0.40493949750E+02  0.43400738824E+02  0.00000000000E+00 0.  1.
         11    1    3    3    0    0 -0.15297954005E+01 -0.36495433011E+01 -0.12311680518E+02  0.12932011356E+02  0.51100000000E-03 0. -1.
        -11    1    3    3    0    0  0.74790749776E+01 -0.11033891026E+01 -0.26466699860E+01  0.80099246131E+01  0.51100000000E-03 0.  1.
        -12    1    3    3    0    0  0.41121798176E+01 -0.71898980360E+01 -0.25535599247E+02  0.26845325208E+02  0.00000000000E+00 0.  1.
</event>
<event>
 7    1  0.2497395E-009  0.4778727E+02  0.7816164E-02  0.1312668E+00
        -11   -1    0    0    0    0  0.00000000000E+00  0.00000000000E+00  0.45593999997E+02  0.45594000000E+02  0.51100000000E-03 0.  1.
         11   -1    0    0    0    0 -0.00000000000E+00 -0.00000000000E+00 -0.45593999997E+02  0.45594000000E+02  0.51100000000E-03 0. -1.
    9900012    2    1    2    0    0 -0.21435313090E+02  0.76165761450E+01 -0.36961309505E+02  0.47787270977E+02  0.19999999693E+02 0.  0.
        -12    1    1    2    0    0  0.21435313090E+02 -0.76165761450E+01  0.36961309505E+02  0.43400729023E+02  0.00000000000E+00 0.  1.
         11    1    3    3    0    0 -0.89557910048E+01  0.65891553425E+00 -0.16022207019E+02  0.18367130429E+02  0.51100000000E-03 0. -1.
        -11    1    3    3    0    0  0.29749744838E+00  0.67832923625E+01 -0.30683578467E+01  0.74509314950E+01  0.51100000000E-03 0.  1.
        -12    1    3    3    0    0 -0.12777019533E+02  0.17436824822E+00 -0.17870744639E+02  0.21969209053E+02  0.00000000000E+00 0.  1.
</event>
<event>
 7    1  0.2497395E-009  0.4778727E+02  0.7816164E-02  0.1312668E+00
        -11   -1    0    0    0    0  0.00000000000E+00  0.00000000000E+00  0.45593999997E+02  0.45594000000E+02  0.51100000000E-03 0.  1.
         11   -1    0    0    0    0 -0.00000000000E+00 -0.00000000000E+00 -0.45593999997E+02  0.45594000000E+02  0.51100000000E-03 0. -1.
    9900012    2    1    2    0    0 -0.15949025840E+01  0.41559023745E+02 -0.12406728819E+02  0.47787273176E+02  0.20000009717E+02 0.  0.
        -12    1    1    2    0    0  0.15949025840E+01 -0.41559023745E+02  0.12406728819E+02  0.43400726824E+02  0.00000000000E+00 0.  1.
         11    1    3    3    0    0  0.49621331192E+01  0.25563852857E+02 -0.14744617956E+02  0.29925525842E+02  0.51100000000E-03 0. -1.
        -11    1    3    3    0    0 -0.38472160520E+01  0.74302475997E+01  0.29135825738E+01  0.88599443801E+01  0.51100000000E-03 0.  1.
         12    1    3    3    0    0 -0.27098196512E+01  0.85649232881E+01 -0.57569343664E+00  0.90018029531E+01  0.00000000000E+00 0. -1.
</event>
<event>
 7    1  0.2912484E-009  0.4778725E+02  0.7816164E-02  0.1312668E+00
        -11   -1    0    0    0    0  0.00000000000E+00  0.00000000000E+00  0.45593999997E+02  0.45594000000E+02  0.51100000000E-03 0. -1.
         11   -1    0    0    0    0 -0.00000000000E+00 -0.00000000000E+00 -0.45593999997E+02  0.45594000000E+02  0.51100000000E-03 0.  1.
    9900012    2    1    2    0    0  0.21085268218E+02 -0.25287262396E+02  0.28277033269E+02  0.47787253626E+02  0.19999920582E+02 0.  0.
        -12    1    1    2    0    0 -0.21085268218E+02  0.25287262396E+02 -0.28277033269E+02  0.43400746374E+02  0.00000000000E+00 0.  1.
         11    1    3    3    0    0  0.33129204919E+01 -0.60459622484E+01  0.16273326302E+02  0.17673433478E+02  0.51100000000E-03 0. -1.
        -11    1    3    3    0    0  0.59415830880E+01 -0.42609304608E+01 -0.44429503996E+00  0.73249802953E+01  0.51100000000E-03 0.  1.
         12    1    3    3    0    0  0.11830764638E+02 -0.14980369687E+02  0.12448002007E+02  0.22788839853E+02  0.00000000000E+00 0. -1.
</event>
<event>
 7    1  0.2497395E-009  0.4778728E+02  0.7816164E-02  0.1312668E+00
        -11   -1    0    0    0    0  0.00000000000E+00  0.00000000000E+00  0.45593999997E+02  0.45594000000E+02  0.51100000000E-03 0.  1.
         11   -1    0    0    0    0 -0.00000000000E+00 -0.00000000000E+00 -0.45593999997E+02  0.45594000000E+02  0.51100000000E-03 0. -1.
    9900012    2    1    2    0    0  0.93185959063E+00  0.43364663604E+02 -0.15032332473E+01  0.47787284315E+02  0.20000060504E+02 0.  0.
        -12    1    1    2    0    0 -0.93185959063E+00 -0.43364663604E+02  0.15032332473E+01  0.43400715685E+02  0.00000000000E+00 0.  1.
         11    1    3    3    0    0 -0.63147413059E+01  0.77735114969E+01 -0.53984677533E+00  0.10029699575E+02  0.51100000000E-03 0.  1.
        -11    1    3    3    0    0  0.49458043859E+01  0.28815712923E+02 -0.48157500812E+01  0.29631026668E+02  0.51100000000E-03 0. -1.
         12    1    3    3    0    0  0.23007965106E+01  0.67754391838E+01  0.38523636092E+01  0.81265580718E+01  0.00000000000E+00 0. -1.
</event>
<event>
 7    1  0.2497395E-009  0.4778725E+02  0.7816164E-02  0.1312668E+00
        -11   -1    0    0    0    0  0.00000000000E+00  0.00000000000E+00  0.45593999997E+02  0.45594000000E+02  0.51100000000E-03 0.  1.
         11   -1    0    0    0    0 -0.00000000000E+00 -0.00000000000E+00 -0.45593999997E+02  0.45594000000E+02  0.51100000000E-03 0. -1.
    9900012    2    1    2    0    0  0.34835879281E+02  0.17339298213E+02 -0.19220693333E+02  0.47787253463E+02  0.19999919837E+02 0.  0.
        -12    1    1    2    0    0 -0.34835879281E+02 -0.17339298213E+02  0.19220693333E+02  0.43400746537E+02  0.00000000000E+00 0.  1.
         11    1    3    3    0    0 -0.28140790226E+00  0.10053383207E+01 -0.59531320135E+01  0.60439785389E+01  0.51100000000E-03 0. -1.
        -11    1    3    3    0    0  0.11026923840E+02  0.73797868574E+01 -0.11179936740E+01  0.13315562833E+02  0.51100000000E-03 0.  1.
         12    1    3    3    0    0  0.24090363343E+02  0.89541730353E+01 -0.12149567645E+02  0.28427712091E+02  0.00000000000E+00 0. -1.
</event>
<event>
 7    1  0.2497395E-009  0.4778727E+02  0.7816164E-02  0.1312668E+00
        -11   -1    0    0    0    0  0.00000000000E+00  0.00000000000E+00  0.45593999997E+02  0.45594000000E+02  0.51100000000E-03 0. -1.
         11   -1    0    0    0    0 -0.00000000000E+00 -0.00000000000E+00 -0.45593999997E+02  0.45594000000E+02  0.51100000000E-03 0.  1.
    9900012    2    1    2    0    0 -0.40062132473E+02 -0.89350630140E+01  0.14100130599E+02  0.47787268528E+02  0.19999988528E+02 0.  0.
        -12    1    1    2    0    0  0.40062132473E+02  0.89350630140E+01 -0.14100130599E+02  0.43400731472E+02  0.00000000000E+00 0.  1.
         11    1    3    3    0    0 -0.61294896976E-01 -0.23742912766E+01 -0.75058391500E+00  0.24908618197E+01  0.51100000000E-03 0. -1.
        -11    1    3    3    0    0 -0.38128898891E+02 -0.42219401160E+01  0.16630790830E+02  0.41811731761E+02  0.51100000000E-03 0.  1.
        -12    1    3    3    0    0 -0.18719386852E+01 -0.23388316214E+01 -0.17800763166E+01  0.34846749472E+01  0.00000000000E+00 0.  1.
</event>
<event>
 7    1  0.2497395E-009  0.4778727E+02  0.7816164E-02  0.1312668E+00
        -11   -1    0    0    0    0  0.00000000000E+00  0.00000000000E+00  0.45593999997E+02  0.45594000000E+02  0.51100000000E-03 0.  1.
         11   -1    0    0    0    0 -0.00000000000E+00 -0.00000000000E+00 -0.45593999997E+02  0.45594000000E+02  0.51100000000E-03 0. -1.
    9900012    2    1    2    0    0  0.21501253861E+01  0.33752741906E+01 -0.43215825098E+02  0.47787273578E+02  0.20000011552E+02 0.  0.
        -12    1    1    2    0    0 -0.21501253861E+01 -0.33752741906E+01  0.43215825098E+02  0.43400726422E+02  0.00000000000E+00 0.  1.
         11    1    3    3    0    0  0.28998879889E+01  0.43645387170E+00 -0.26810444076E+02  0.26970349537E+02  0.51100000000E-03 0. -1.
        -11    1    3    3    0    0 -0.13419961090E+00  0.20670273867E+01  0.17002761016E+01  0.26798415691E+01  0.51100000000E-03 0.  1.
        -12    1    3    3    0    0 -0.61556299188E+00  0.87179293218E+00 -0.18105657124E+02  0.18137082472E+02  0.00000000000E+00 0.  1.
</event>
<event>
 7    1  0.2497395E-009  0.4778727E+02  0.7816164E-02  0.1312668E+00
        -11   -1    0    0    0    0  0.00000000000E+00  0.00000000000E+00  0.45593999997E+02  0.45594000000E+02  0.51100000000E-03 0. -1.
         11   -1    0    0    0    0 -0.00000000000E+00 -0.00000000000E+00 -0.45593999997E+02  0.45594000000E+02  0.51100000000E-03 0.  1.
    9900012    2    1    2    0    0  0.73896594700E+01  0.41937380889E+02 -0.83828426909E+01  0.47787273803E+02  0.20000012576E+02 0.  0.
        -12    1    1    2    0    0 -0.73896594700E+01 -0.41937380889E+02  0.83828426909E+01  0.43400726197E+02  0.00000000000E+00 0.  1.
         11    1    3    3    0    0  0.86998603496E+01  0.21480436312E+02  0.38987543395E+01  0.23500999977E+02  0.51100000000E-03 0. -1.
        -11    1    3    3    0    0 -0.43760805654E+00  0.97801175914E+01 -0.83760328358E+01  0.12884103665E+02  0.51100000000E-03 0.  1.
         12    1    3    3    0    0 -0.87259282303E+00  0.10676826985E+02 -0.39055641946E+01  0.11402170161E+02  0.00000000000E+00 0. -1.
</event>
<event>
 7    1  0.2497395E-009  0.4778727E+02  0.7816164E-02  0.1312668E+00
        -11   -1    0    0    0    0  0.00000000000E+00  0.00000000000E+00  0.45593999997E+02  0.45594000000E+02  0.51100000000E-03 0.  1.
         11   -1    0    0    0    0 -0.00000000000E+00 -0.00000000000E+00 -0.45593999997E+02  0.45594000000E+02  0.51100000000E-03 0. -1.
    9900012    2    1    2    0    0 -0.34098276219E+02 -0.24826587612E+02 -0.10226027772E+02  0.47787268007E+02  0.19999986150E+02 0.  0.
        -12    1    1    2    0    0  0.34098276219E+02  0.24826587612E+02  0.10226027772E+02  0.43400731993E+02  0.00000000000E+00 0.  1.
         11    1    3    3    0    0 -0.19230458752E+02 -0.14353858296E+02 -0.14486600647E+02  0.28030436856E+02  0.51100000000E-03 0.  1.
        -11    1    3    3    0    0 -0.13226345424E+02 -0.80222978640E+01  0.12143215650E+01  0.15516702402E+02  0.51100000000E-03 0. -1.
         12    1    3    3    0    0 -0.16414720423E+01 -0.24504314519E+01  0.30462513091E+01  0.42401287485E+01  0.00000000000E+00 0. -1.
</event>
<event>
 7    1  0.2497395E-009  0.4778727E+02  0.7816164E-02  0.1312668E+00
        -11   -1    0    0    0    0  0.00000000000E+00  0.00000000000E+00  0.45593999997E+02  0.45594000000E+02  0.51100000000E-03 0.  1.
         11   -1    0    0    0    0 -0.00000000000E+00 -0.00000000000E+00 -0.45593999997E+02  0.45594000000E+02  0.51100000000E-03 0. -1.
    9900012    2    1    2    0    0  0.20810449138E+02 -0.62761345171E+01 -0.37565390735E+02  0.47787271448E+02  0.20000001839E+02 0.  0.
        -12    1    1    2    0    0 -0.20810449138E+02  0.62761345171E+01  0.37565390735E+02  0.43400728552E+02  0.00000000000E+00 0.  1.
         11    1    3    3    0    0  0.16527627278E+02 -0.94474325795E+01 -0.25405069400E+02  0.31746401328E+02  0.51100000000E-03 0. -1.
        -11    1    3    3    0    0  0.51341129717E+01  0.39532672021E+00 -0.20848390106E+01  0.55553535606E+01  0.51100000000E-03 0.  1.
         12    1    3    3    0    0 -0.85129111179E+00  0.27759713421E+01 -0.10075482324E+02  0.10485516559E+02  0.00000000000E+00 0. -1.
</event>
<event>
 7    1  0.2497395E-009  0.4778726E+02  0.7816164E-02  0.1312668E+00
        -11   -1    0    0    0    0  0.00000000000E+00  0.00000000000E+00  0.45593999997E+02  0.45594000000E+02  0.51100000000E-03 0. -1.
         11   -1    0    0    0    0 -0.00000000000E+00 -0.00000000000E+00 -0.45593999997E+02  0.45594000000E+02  0.51100000000E-03 0.  1.
    9900012    2    1    2    0    0  0.19246696658E+02 -0.34910212913E+02  0.17160001275E+02  0.47787263351E+02  0.19999964925E+02 0.  0.
        -12    1    1    2    0    0 -0.19246696658E+02  0.34910212913E+02 -0.17160001275E+02  0.43400736649E+02  0.00000000000E+00 0.  1.
         11    1    3    3    0    0  0.14146467543E+02 -0.15762929878E+02  0.15896740417E+01  0.21239575469E+02  0.51100000000E-03 0. -1.
        -11    1    3    3    0    0  0.28621065378E+01 -0.94557210796E+01  0.26247039708E+01  0.10222102825E+02  0.51100000000E-03 0.  1.
         12    1    3    3    0    0  0.22381225770E+01 -0.96915619549E+01  0.12945623263E+02  0.16325585057E+02  0.00000000000E+00 0. -1.
</event>
<event>
 7    1  0.2497395E-009  0.4778727E+02  0.7816164E-02  0.1312668E+00
        -11   -1    0    0    0    0  0.00000000000E+00  0.00000000000E+00  0.45593999997E+02  0.45594000000E+02  0.51100000000E-03 0.  1.
         11   -1    0    0    0    0 -0.00000000000E+00 -0.00000000000E+00 -0.45593999997E+02  0.45594000000E+02  0.51100000000E-03 0. -1.
    9900012    2    1    2    0    0  0.30634932696E+00  0.33880195820E+02 -0.27123084501E+02  0.47787271532E+02  0.20000002225E+02 0.  0.
        -12    1    1    2    0    0 -0.30634932696E+00 -0.33880195820E+02  0.27123084501E+02  0.43400728468E+02  0.00000000000E+00 0.  1.
         11    1    3    3    0    0 -0.18765843389E+01  0.52307187300E+01 -0.13797117760E+02  0.14874220852E+02  0.51100000000E-03 0. -1.
        -11    1    3    3    0    0 -0.18558706401E+01  0.16897857520E+02 -0.11063244937E+02  0.20282436574E+02  0.51100000000E-03 0.  1.
         12    1    3    3    0    0  0.40388043059E+01  0.11751619570E+02 -0.22627218040E+01  0.12630614106E+02  0.00000000000E+00 0. -1.
</event>
<event>
 7    1  0.2497395E-009  0.4778727E+02  0.7816164E-02  0.1312668E+00
        -11   -1    0    0    0    0  0.00000000000E+00  0.00000000000E+00  0.45593999997E+02  0.45594000000E+02  0.51100000000E-03 0.  1.
         11   -1    0    0    0    0 -0.00000000000E+00 -0.00000000000E+00 -0.45593999997E+02  0.45594000000E+02  0.51100000000E-03 0. -1.
    9900012    2    1    2    0    0  0.62022838561E+01  0.41763204457E+02 -0.10049372255E+02  0.47787268966E+02  0.19999990522E+02 0.  0.
        -12    1    1    2    0    0 -0.62022838561E+01 -0.41763204457E+02  0.10049372255E+02  0.43400731034E+02  0.00000000000E+00 0.  1.
         11    1    3    3    0    0  0.10435326116E+02  0.39434202048E+02 -0.10382116583E+02  0.42092049930E+02  0.51100000000E-03 0. -1.
        -11    1    3    3    0    0 -0.13296308413E+01 -0.41651539017E+00  0.90068058323E+00  0.16591048847E+01  0.51100000000E-03 0.  1.
         12    1    3    3    0    0 -0.29034114182E+01  0.27455177999E+01 -0.56793625539E+00  0.40361141514E+01  0.00000000000E+00 0. -1.
</event>
<event>
 7    1  0.2497395E-009  0.4778727E+02  0.7816164E-02  0.1312668E+00
        -11   -1    0    0    0    0  0.00000000000E+00  0.00000000000E+00  0.45593999997E+02  0.45594000000E+02  0.51100000000E-03 0.  1.
         11   -1    0    0    0    0 -0.00000000000E+00 -0.00000000000E+00 -0.45593999997E+02  0.45594000000E+02  0.51100000000E-03 0. -1.
    9900012    2    1    2    0    0  0.17968835264E+02 -0.69681055201E+01 -0.38886883597E+02  0.47787271306E+02  0.20000001191E+02 0.  0.
        -12    1    1    2    0    0 -0.17968835264E+02  0.69681055201E+01  0.38886883597E+02  0.43400728694E+02  0.00000000000E+00 0.  1.
         11    1    3    3    0    0  0.15606261680E+02 -0.10879720796E+02 -0.37749085073E+02  0.42271942850E+02  0.51100000000E-03 0. -1.
        -11    1    3    3    0    0  0.78849589083E+00  0.32853655618E+01  0.15820707157E+00  0.33823634315E+01  0.51100000000E-03 0.  1.
         12    1    3    3    0    0  0.15740776930E+01  0.62624971381E+00 -0.12960055958E+01  0.21329650236E+01  0.00000000000E+00 0. -1.
</event>
<event>
 7    1  0.2497395E-009  0.4778727E+02  0.7816164E-02  0.1312668E+00
        -11   -1    0    0    0    0  0.00000000000E+00  0.00000000000E+00  0.45593999997E+02  0.45594000000E+02  0.51100000000E-03 0. -1.
         11   -1    0    0    0    0 -0.00000000000E+00 -0.00000000000E+00 -0.45593999997E+02  0.45594000000E+02  0.51100000000E-03 0.  1.
    9900012    2    1    2    0    0  0.30542955285E+02 -0.30833916634E+02 -0.14386246930E+00  0.47787271562E+02  0.20000002359E+02 0.  0.
        -12    1    1    2    0    0 -0.30542955285E+02  0.30833916634E+02  0.14386246930E+00  0.43400728438E+02  0.00000000000E+00 0.  1.
         11    1    3    3    0    0  0.24108912021E+02 -0.15750547214E+02  0.40914308297E+01  0.29087096501E+02  0.51100000000E-03 0.  1.
        -11    1    3    3    0    0 -0.63787491398E+00 -0.75789258400E+01 -0.34709846639E+01  0.83603071769E+01  0.51100000000E-03 0. -1.
         12    1    3    3    0    0  0.70719181782E+01 -0.75044435797E+01 -0.76430863505E+00  0.10339867884E+02  0.00000000000E+00 0. -1.
</event>
<event>
 7    1  0.2497395E-009  0.4778727E+02  0.7816164E-02  0.1312668E+00
        -11   -1    0    0    0    0  0.00000000000E+00  0.00000000000E+00  0.45593999997E+02  0.45594000000E+02  0.51100000000E-03 0.  1.
         11   -1    0    0    0    0 -0.00000000000E+00 -0.00000000000E+00 -0.45593999997E+02  0.45594000000E+02  0.51100000000E-03 0. -1.
    9900012    2    1    2    0    0 -0.50369657013E+01 -0.40242406683E+02 -0.15453185367E+02  0.47787271238E+02  0.20000000882E+02 0.  0.
        -12    1    1    2    0    0  0.50369657013E+01  0.40242406683E+02  0.15453185367E+02  0.43400728762E+02  0.00000000000E+00 0.  1.
         11    1    3    3    0    0 -0.10639427595E+01 -0.97378667779E+01 -0.11988536774E+02  0.15481700095E+02  0.51100000000E-03 0. -1.
        -11    1    3    3    0    0 -0.33885867825E+01 -0.28347034146E+02 -0.44969305445E+00  0.28552392008E+02  0.51100000000E-03 0.  1.
        -12    1    3    3    0    0 -0.58443615928E+00 -0.21575057590E+01 -0.30149555378E+01  0.37531791350E+01  0.00000000000E+00 0.  1.
</event>
<event>
 7    1  0.2497395E-009  0.4778727E+02  0.7816164E-02  0.1312668E+00
        -11   -1    0    0    0    0  0.00000000000E+00  0.00000000000E+00  0.45593999997E+02  0.45594000000E+02  0.51100000000E-03 0.  1.
         11   -1    0    0    0    0 -0.00000000000E+00 -0.00000000000E+00 -0.45593999997E+02  0.45594000000E+02  0.51100000000E-03 0. -1.
    9900012    2    1    2    0    0 -0.22539706965E+02 -0.34295564709E+02 -0.14120879864E+02  0.47787269627E+02  0.19999993537E+02 0.  0.
        -12    1    1    2    0    0  0.22539706965E+02  0.34295564709E+02  0.14120879864E+02  0.43400730373E+02  0.00000000000E+00 0.  1.
         11    1    3    3    0    0 -0.13568154706E+02 -0.11127381090E+02 -0.92937408835E+01  0.19856662658E+02  0.51100000000E-03 0. -1.
        -11    1    3    3    0    0 -0.54841020370E+01 -0.23313180773E+02 -0.48710718794E+01  0.24439867316E+02  0.51100000000E-03 0.  1.
         12    1    3    3    0    0 -0.34874502223E+01  0.14499715373E+00  0.43932898892E-01  0.34907396533E+01  0.00000000000E+00 0. -1.
</event>
<event>
 7    1  0.2497395E-009  0.4778728E+02  0.7816164E-02  0.1312668E+00
        -11   -1    0    0    0    0  0.00000000000E+00  0.00000000000E+00  0.45593999997E+02  0.45594000000E+02  0.51100000000E-03 0. -1.
         11   -1    0    0    0    0 -0.00000000000E+00 -0.00000000000E+00 -0.45593999997E+02  0.45594000000E+02  0.51100000000E-03 0.  1.
    9900012    2    1    2    0    0 -0.17762753498E+02 -0.28748170077E+02  0.27233245106E+02  0.47787281877E+02  0.20000049388E+02 0.  0.
        -12    1    1    2    0    0  0.17762753498E+02  0.28748170077E+02 -0.27233245106E+02  0.43400718123E+02  0.00000000000E+00 0.  1.
         11    1    3    3    0    0 -0.16115529581E+02 -0.95879191291E+01  0.88516408012E+01  0.20736201003E+02  0.51100000000E-03 0. -1.
        -11    1    3    3    0    0  0.15200581537E+01 -0.48360425125E+01  0.35419069145E+01  0.61840915926E+01  0.51100000000E-03 0.  1.
         12    1    3    3    0    0 -0.31672820708E+01 -0.14324208435E+02  0.14839697391E+02  0.20866989281E+02  0.00000000000E+00 0. -1.
</event>
<event>
 7    1  0.2497395E-009  0.4778727E+02  0.7816164E-02  0.1312668E+00
        -11   -1    0    0    0    0  0.00000000000E+00  0.00000000000E+00  0.45593999997E+02  0.45594000000E+02  0.51100000000E-03 0.  1.
         11   -1    0    0    0    0 -0.00000000000E+00 -0.00000000000E+00 -0.45593999997E+02  0.45594000000E+02  0.51100000000E-03 0. -1.
    9900012    2    1    2    0    0  0.38407923461E+02  0.86681112843E+01 -0.18257006714E+02  0.47787273831E+02  0.20000012706E+02 0.  0.
        -12    1    1    2    0    0 -0.38407923461E+02 -0.86681112843E+01  0.18257006714E+02  0.43400726169E+02  0.00000000000E+00 0.  1.
         11    1    3    3    0    0  0.20623636903E+01  0.29320589685E+01  0.22802206772E+01  0.42484962497E+01  0.51100000000E-03 0. -1.
        -11    1    3    3    0    0  0.17860133207E+02  0.45832889329E+00 -0.15532573248E+02  0.23673936206E+02  0.51100000000E-03 0.  1.
         12    1    3    3    0    0  0.18485426564E+02  0.52777234225E+01 -0.50046541434E+01  0.19864841375E+02  0.00000000000E+00 0. -1.
</event>
<event>
 7    1  0.2497395E-009  0.4778727E+02  0.7816164E-02  0.1312668E+00
        -11   -1    0    0    0    0  0.00000000000E+00  0.00000000000E+00  0.45593999997E+02  0.45594000000E+02  0.51100000000E-03 0.  1.
         11   -1    0    0    0    0 -0.00000000000E+00 -0.00000000000E+00 -0.45593999997E+02  0.45594000000E+02  0.51100000000E-03 0. -1.
    9900012    2    1    2    0    0 -0.32288884304E+02 -0.20098601611E+02 -0.20906876541E+02  0.47787270478E+02  0.19999997418E+02 0.  0.
        -12    1    1    2    0    0  0.32288884304E+02  0.20098601611E+02  0.20906876541E+02  0.43400729522E+02  0.00000000000E+00 0.  1.
         11    1    3    3    0    0 -0.22359979673E+02 -0.17845737760E+02 -0.21622418041E+02  0.35860396113E+02  0.51100000000E-03 0. -1.
        -11    1    3    3    0    0 -0.85114435135E+01 -0.88579548423E+00  0.28530612449E+01  0.90204912866E+01  0.51100000000E-03 0.  1.
        -12    1    3    3    0    0 -0.14174611182E+01 -0.13670683665E+01 -0.21375197451E+01  0.29063830789E+01  0.00000000000E+00 0.  1.
</event>
<event>
 7    1  0.2497395E-009  0.4778727E+02  0.7816164E-02  0.1312668E+00
        -11   -1    0    0    0    0  0.00000000000E+00  0.00000000000E+00  0.45593999997E+02  0.45594000000E+02  0.51100000000E-03 0. -1.
         11   -1    0    0    0    0 -0.00000000000E+00 -0.00000000000E+00 -0.45593999997E+02  0.45594000000E+02  0.51100000000E-03 0.  1.
    9900012    2    1    2    0    0  0.35523141185E+01 -0.38828759754E+02  0.19061271556E+02  0.47787267368E+02  0.19999983238E+02 0.  0.
        -12    1    1    2    0    0 -0.35523141185E+01  0.38828759754E+02 -0.19061271556E+02  0.43400732632E+02  0.00000000000E+00 0.  1.
         11    1    3    3    0    0  0.66234362876E+01 -0.14431514235E+02  0.15271321143E+02  0.22030700422E+02  0.51100000000E-03 0. -1.
        -11    1    3    3    0    0 -0.36048874387E+01 -0.22838226224E+02  0.18261536831E+01  0.23192986613E+02  0.51100000000E-03 0.  1.
        -12    1    3    3    0    0  0.53376526963E+00 -0.15590192954E+01  0.19637967295E+01  0.25635803326E+01  0.00000000000E+00 0.  1.
</event>
<event>
 7    1  0.2497395E-009  0.4778727E+02  0.7816164E-02  0.1312668E+00
        -11   -1    0    0    0    0  0.00000000000E+00  0.00000000000E+00  0.45593999997E+02  0.45594000000E+02  0.51100000000E-03 0.  1.
         11   -1    0    0    0    0 -0.00000000000E+00 -0.00000000000E+00 -0.45593999997E+02  0.45594000000E+02  0.51100000000E-03 0. -1.
    9900012    2    1    2    0    0  0.19514548757E+02  0.64792492476E+01 -0.38220738401E+02  0.47787272726E+02  0.20000007668E+02 0.  0.
        -12    1    1    2    0    0 -0.19514548757E+02 -0.64792492476E+01  0.38220738401E+02  0.43400727274E+02  0.00000000000E+00 0.  1.
         11    1    3    3    0    0  0.33225957320E+01 -0.67609947318E+00  0.96226371893E+00  0.35245857376E+01  0.51100000000E-03 0. -1.
        -11    1    3    3    0    0  0.38344636960E+01  0.26913720689E+01 -0.25265387192E+01  0.53225927526E+01  0.51100000000E-03 0.  1.
         12    1    3    3    0    0  0.12357489328E+02  0.44639766519E+01 -0.36656463401E+02  0.38940094236E+02  0.00000000000E+00 0. -1.
</event>
<event>
 7    1  0.2497395E-009  0.4778727E+02  0.7816164E-02  0.1312668E+00
        -11   -1    0    0    0    0  0.00000000000E+00  0.00000000000E+00  0.45593999997E+02  0.45594000000E+02  0.51100000000E-03 0.  1.
         11   -1    0    0    0    0 -0.00000000000E+00 -0.00000000000E+00 -0.45593999997E+02  0.45594000000E+02  0.51100000000E-03 0. -1.
    9900012    2    1    2    0    0  0.43182996568E+02  0.38101863934E+01 -0.20819687704E+01  0.47787270664E+02  0.19999998267E+02 0.  0.
        -12    1    1    2    0    0 -0.43182996568E+02 -0.38101863934E+01  0.20819687704E+01  0.43400729336E+02  0.00000000000E+00 0.  1.
         11    1    3    3    0    0  0.10174630526E+02 -0.63596161688E+01  0.20988610492E+00  0.12000494848E+02  0.51100000000E-03 0. -1.
        -11    1    3    3    0    0  0.46862062156E+01  0.47642488189E+01 -0.19120979658E+01  0.69508786779E+01  0.51100000000E-03 0.  1.
         12    1    3    3    0    0  0.28322159826E+02  0.54055537433E+01 -0.37975690951E+00  0.28835897139E+02  0.00000000000E+00 0. -1.
</event>
<event>
 7    1  0.2497395E-009  0.4778727E+02  0.7816164E-02  0.1312668E+00
        -11   -1    0    0    0    0  0.00000000000E+00  0.00000000000E+00  0.45593999997E+02  0.45594000000E+02  0.51100000000E-03 0. -1.
         11   -1    0    0    0    0 -0.00000000000E+00 -0.00000000000E+00 -0.45593999997E+02  0.45594000000E+02  0.51100000000E-03 0.  1.
    9900012    2    1    2    0    0 -0.41668302809E+02  0.91385763422E+01  0.79913807333E+01  0.47787271865E+02  0.20000003743E+02 0.  0.
        -12    1    1    2    0    0  0.41668302809E+02 -0.91385763422E+01 -0.79913807333E+01  0.43400728135E+02  0.00000000000E+00 0.  1.
         11    1    3    3    0    0 -0.32382089914E+02  0.42751109329E+01  0.20806423716E+01  0.32729274261E+02  0.51100000000E-03 0. -1.
        -11    1    3    3    0    0 -0.44856186252E+01  0.29265823425E+01 -0.19039769724E+01  0.56842578434E+01  0.51100000000E-03 0.  1.
         12    1    3    3    0    0 -0.48005942703E+01  0.19368830668E+01  0.78147153341E+01  0.93737397614E+01  0.00000000000E+00 0. -1.
</event>
<event>
 7    1  0.2497395E-009  0.4778727E+02  0.7816164E-02  0.1312668E+00
        -11   -1    0    0    0    0  0.00000000000E+00  0.00000000000E+00  0.45593999997E+02  0.45594000000E+02  0.51100000000E-03 0.  1.
         11   -1    0    0    0    0 -0.00000000000E+00 -0.00000000000E+00 -0.45593999997E+02  0.45594000000E+02  0.51100000000E-03 0. -1.
    9900012    2    1    2    0    0  0.18142977238E+01  0.22956892796E+02 -0.36787401683E+02  0.47787268144E+02  0.19999986774E+02 0.  0.
        -12    1    1    2    0    0 -0.18142977238E+01 -0.22956892796E+02  0.36787401683E+02  0.43400731856E+02  0.00000000000E+00 0.  1.
         11    1    3    3    0    0  0.22001131794E+01  0.17567988854E+02 -0.13059730520E+02  0.22000711168E+02  0.51100000000E-03 0. -1.
        -11    1    3    3    0    0 -0.21806632319E+01 -0.16924627039E+01 -0.56374591600E+01  0.62769951551E+01  0.51100000000E-03 0.  1.
         12    1    3    3    0    0  0.17948477763E+01  0.70813666454E+01 -0.18090212003E+02  0.19509561821E+02  0.00000000000E+00 0. -1.
</event>
<event>
 7    1  0.2497395E-009  0.4778726E+02  0.7816164E-02  0.1312668E+00
        -11   -1    0    0    0    0  0.00000000000E+00  0.00000000000E+00  0.45593999997E+02  0.45594000000E+02  0.51100000000E-03 0.  1.
         11   -1    0    0    0    0 -0.00000000000E+00 -0.00000000000E+00 -0.45593999997E+02  0.45594000000E+02  0.51100000000E-03 0. -1.
    9900012    2    1    2    0    0 -0.13972654999E+02  0.10437929369E+02 -0.39742149448E+02  0.47787263831E+02  0.19999967113E+02 0.  0.
        -12    1    1    2    0    0  0.13972654999E+02 -0.10437929369E+02  0.39742149448E+02  0.43400736169E+02  0.00000000000E+00 0.  1.
         11    1    3    3    0    0 -0.10275557877E+01  0.10594082598E+02 -0.20124735546E+02  0.22766102830E+02  0.51100000000E-03 0. -1.
        -11    1    3    3    0    0 -0.11915313315E+02  0.98692686568E+00 -0.20118527536E+02  0.23403073868E+02  0.51100000000E-03 0.  1.
         12    1    3    3    0    0 -0.10297858965E+01 -0.11430800952E+01  0.50111363386E+00  0.16180871332E+01  0.00000000000E+00 0. -1.
</event>
<event>
 7    1  0.2497395E-009  0.4778727E+02  0.7816164E-02  0.1312668E+00
        -11   -1    0    0    0    0  0.00000000000E+00  0.00000000000E+00  0.45593999997E+02  0.45594000000E+02  0.51100000000E-03 0.  1.
         11   -1    0    0    0    0 -0.00000000000E+00 -0.00000000000E+00 -0.45593999997E+02  0.45594000000E+02  0.51100000000E-03 0. -1.
    9900012    2    1    2    0    0 -0.41624983450E+02 -0.10325456547E+02  0.66610005850E+01  0.47787271562E+02  0.20000002361E+02 0.  0.
        -12    1    1    2    0    0  0.41624983450E+02  0.10325456547E+02 -0.66610005850E+01  0.43400728438E+02  0.00000000000E+00 0.  1.
         11    1    3    3    0    0 -0.16293767430E+02 -0.77202978837E+00 -0.32453887284E+01  0.16631759838E+02  0.51100000000E-03 0. -1.
        -11    1    3    3    0    0 -0.37280772256E+01 -0.46266919015E+01  0.63809106332E+01  0.87189941232E+01  0.51100000000E-03 0.  1.
        -12    1    3    3    0    0 -0.21603138795E+02 -0.49267348572E+01  0.35254786803E+01  0.22436517601E+02  0.00000000000E+00 0.  1.
</event>
<event>
 7    1  0.2497395E-009  0.4778727E+02  0.7816164E-02  0.1312668E+00
        -11   -1    0    0    0    0  0.00000000000E+00  0.00000000000E+00  0.45593999997E+02  0.45594000000E+02  0.51100000000E-03 0.  1.
         11   -1    0    0    0    0 -0.00000000000E+00 -0.00000000000E+00 -0.45593999997E+02  0.45594000000E+02  0.51100000000E-03 0. -1.
    9900012    2    1    2    0    0 -0.33419442237E+02  0.63745944678E+01 -0.26946771840E+02  0.47787273201E+02  0.20000009834E+02 0.  0.
        -12    1    1    2    0    0  0.33419442237E+02 -0.63745944678E+01  0.26946771840E+02  0.43400726799E+02  0.00000000000E+00 0.  1.
         11    1    3    3    0    0 -0.30811271145E+02  0.59735627751E+01 -0.28659523270E+02  0.42501601806E+02  0.51100000000E-03 0. -1.
        -11    1    3    3    0    0  0.19982424347E+00  0.15699283931E+01  0.15873862045E+01  0.22415173680E+01  0.51100000000E-03 0.  1.
         12    1    3    3    0    0 -0.28079953357E+01 -0.11688967003E+01  0.12536522539E+00  0.30441540271E+01  0.00000000000E+00 0. -1.
</event>
<event>
 7    1  0.2497395E-009  0.4778727E+02  0.7816164E-02  0.1312668E+00
        -11   -1    0    0    0    0  0.00000000000E+00  0.00000000000E+00  0.45593999997E+02  0.45594000000E+02  0.51100000000E-03 0. -1.
         11   -1    0    0    0    0 -0.00000000000E+00 -0.00000000000E+00 -0.45593999997E+02  0.45594000000E+02  0.51100000000E-03 0.  1.
    9900012    2    1    2    0    0  0.18068875053E+02  0.32909815216E+02  0.21773456165E+02  0.47787267557E+02  0.19999984100E+02 0.  0.
        -12    1    1    2    0    0 -0.18068875053E+02 -0.32909815216E+02 -0.21773456165E+02  0.43400732443E+02  0.00000000000E+00 0.  1.
         11    1    3    3    0    0  0.14559120773E+01  0.42121932702E+01  0.35273096216E+01  0.56836753558E+01  0.51100000000E-03 0. -1.
        -11    1    3    3    0    0  0.91970002732E+01  0.28879606055E+02  0.16390989063E+02  0.34456943896E+02  0.51100000000E-03 0.  1.
        -12    1    3    3    0    0  0.74159627027E+01 -0.18198411006E+00  0.18551574805E+01  0.76466483051E+01  0.00000000000E+00 0.  1.
</event>
<event>
 7    1  0.2497395E-009  0.4778728E+02  0.7816164E-02  0.1312668E+00
        -11   -1    0    0    0    0  0.00000000000E+00  0.00000000000E+00  0.45593999997E+02  0.45594000000E+02  0.51100000000E-03 0.  1.
         11   -1    0    0    0    0 -0.00000000000E+00 -0.00000000000E+00 -0.45593999997E+02  0.45594000000E+02  0.51100000000E-03 0. -1.
    9900012    2    1    2    0    0  0.12527488160E+02  0.39738915630E+02  0.12145074376E+02  0.47787283339E+02  0.20000056058E+02 0.  0.
        -12    1    1    2    0    0 -0.12527488160E+02 -0.39738915630E+02 -0.12145074376E+02  0.43400716661E+02  0.00000000000E+00 0.  1.
         11    1    3    3    0    0  0.11155865098E+02  0.94508368606E+01  0.24844425071E+01  0.14830512408E+02  0.51100000000E-03 0. -1.
        -11    1    3    3    0    0  0.42484850595E+01  0.85988013405E+01  0.37009923670E+01  0.10280386888E+02  0.51100000000E-03 0.  1.
         12    1    3    3    0    0 -0.28768619970E+01  0.21689277429E+02  0.59596395018E+01  0.22676384044E+02  0.00000000000E+00 0. -1.
</event>
<event>
 7    1  0.2497395E-009  0.4778728E+02  0.7816164E-02  0.1312668E+00
        -11   -1    0    0    0    0  0.00000000000E+00  0.00000000000E+00  0.45593999997E+02  0.45594000000E+02  0.51100000000E-03 0.  1.
         11   -1    0    0    0    0 -0.00000000000E+00 -0.00000000000E+00 -0.45593999997E+02  0.45594000000E+02  0.51100000000E-03 0. -1.
    9900012    2    1    2    0    0 -0.33333908427E+02 -0.14526266016E+02 -0.23695157199E+02  0.47787281918E+02  0.20000049575E+02 0.  0.
        -12    1    1    2    0    0  0.33333908427E+02  0.14526266016E+02  0.23695157199E+02  0.43400718082E+02  0.00000000000E+00 0.  1.
         11    1    3    3    0    0 -0.20347144611E+02 -0.13692345385E+02 -0.17064333419E+02  0.29877718977E+02  0.51100000000E-03 0. -1.
        -11    1    3    3    0    0 -0.11676454541E+01  0.23297353369E+01  0.16963897584E+01  0.31094695882E+01  0.51100000000E-03 0.  1.
         12    1    3    3    0    0 -0.11819118361E+02 -0.31636559680E+01 -0.83272135393E+01  0.14800093353E+02  0.00000000000E+00 0. -1.
</event>
<event>
 7    1  0.2497395E-009  0.4778727E+02  0.7816164E-02  0.1312668E+00
        -11   -1    0    0    0    0  0.00000000000E+00  0.00000000000E+00  0.45593999997E+02  0.45594000000E+02  0.51100000000E-03 0.  1.
         11   -1    0    0    0    0 -0.00000000000E+00 -0.00000000000E+00 -0.45593999997E+02  0.45594000000E+02  0.51100000000E-03 0. -1.
    9900012    2    1    2    0    0  0.82489127686E+01  0.27578417470E+01 -0.42520267879E+02  0.47787269205E+02  0.19999991615E+02 0.  0.
        -12    1    1    2    0    0 -0.82489127686E+01 -0.27578417470E+01  0.42520267879E+02  0.43400730795E+02  0.00000000000E+00 0.  1.
         11    1    3    3    0    0  0.56537203226E+01  0.88683842917E+01 -0.31607863205E+02  0.33311706802E+02  0.51100000000E-03 0. -1.
        -11    1    3    3    0    0  0.16284156851E+01 -0.39327276050E+01 -0.11255639979E+01  0.44028375661E+01  0.51100000000E-03 0.  1.
         12    1    3    3    0    0  0.96677676096E+00 -0.21778149397E+01 -0.97868406762E+01  0.10072724837E+02  0.00000000000E+00 0. -1.
</event>
<event>
 7    1  0.2497395E-009  0.4778727E+02  0.7816164E-02  0.1312668E+00
        -11   -1    0    0    0    0  0.00000000000E+00  0.00000000000E+00  0.45593999997E+02  0.45594000000E+02  0.51100000000E-03 0. -1.
         11   -1    0    0    0    0 -0.00000000000E+00 -0.00000000000E+00 -0.45593999997E+02  0.45594000000E+02  0.51100000000E-03 0.  1.
    9900012    2    1    2    0    0 -0.36568998282E+02  0.23337484003E+02  0.13012976538E+01  0.47787272235E+02  0.20000005427E+02 0.  0.
        -12    1    1    2    0    0  0.36568998282E+02 -0.23337484003E+02 -0.13012976538E+01  0.43400727765E+02  0.00000000000E+00 0.  1.
         11    1    3    3    0    0 -0.13247081622E+02  0.84062491511E+01  0.43571880389E+01  0.16282975286E+02  0.51100000000E-03 0. -1.
        -11    1    3    3    0    0  0.15375642410E+01  0.22509808687E+01 -0.23333774474E+01  0.35882682787E+01  0.51100000000E-03 0.  1.
        -12    1    3    3    0    0 -0.24859480901E+02  0.12680253984E+02 -0.72251293768E+00  0.27916028670E+02  0.00000000000E+00 0.  1.
</event>
<event>
 7    1  0.2497395E-009  0.4778726E+02  0.7816164E-02  0.1312668E+00
        -11   -1    0    0    0    0  0.00000000000E+00  0.00000000000E+00  0.45593999997E+02  0.45594000000E+02  0.51100000000E-03 0.  1.
         11   -1    0    0    0    0 -0.00000000000E+00 -0.00000000000E+00 -0.45593999997E+02  0.45594000000E+02  0.51100000000E-03 0. -1.
    9900012    2    1    2    0    0 -0.20522236096E+02  0.34292523174E+02 -0.16925871984E+02  0.47787257352E+02  0.19999937571E+02 0.  0.
        -12    1    1    2    0    0  0.20522236096E+02 -0.34292523174E+02  0.16925871984E+02  0.43400742648E+02  0.00000000000E+00 0.  1.
         11    1    3    3    0    0 -0.19067505003E+02  0.25156579243E+02 -0.15880662896E+02  0.35335798852E+02  0.51100000000E-03 0. -1.
        -11    1    3    3    0    0  0.26839632310E+01  0.45768170613E+01 -0.28661225666E+01  0.60303873728E+01  0.51100000000E-03 0.  1.
         12    1    3    3    0    0 -0.41386943242E+01  0.45591268692E+01  0.18209134793E+01  0.64210711270E+01  0.00000000000E+00 0. -1.
</event>
<event>
 7    1  0.2497395E-009  0.4778727E+02  0.7816164E-02  0.1312668E+00
        -11   -1    0    0    0    0  0.00000000000E+00  0.00000000000E+00  0.45593999997E+02  0.45594000000E+02  0.51100000000E-03 0.  1.
         11   -1    0    0    0    0 -0.00000000000E+00 -0.00000000000E+00 -0.45593999997E+02  0.45594000000E+02  0.51100000000E-03 0. -1.
    9900012    2    1    2    0    0 -0.28600397870E+02 -0.31236952863E+02 -0.94812183767E+01  0.47787268619E+02  0.19999988943E+02 0.  0.
        -12    1    1    2    0    0  0.28600397870E+02  0.31236952863E+02  0.94812183767E+01  0.43400731381E+02  0.00000000000E+00 0.  1.
         11    1    3    3    0    0 -0.11452440288E+02 -0.13491325544E+02  0.20559462459E+01  0.17815756192E+02  0.51100000000E-03 0. -1.
        -11    1    3    3    0    0 -0.18413990869E+02 -0.15464512704E+02 -0.12608236749E+02  0.27151313910E+02  0.51100000000E-03 0.  1.
        -12    1    3    3    0    0  0.12660332868E+01 -0.22811146157E+01  0.10710721267E+01  0.28201985167E+01  0.00000000000E+00 0.  1.
</event>
<event>
 7    1  0.2497395E-009  0.4778727E+02  0.7816164E-02  0.1312668E+00
        -11   -1    0    0    0    0  0.00000000000E+00  0.00000000000E+00  0.45593999997E+02  0.45594000000E+02  0.51100000000E-03 0.  1.
         11   -1    0    0    0    0 -0.00000000000E+00 -0.00000000000E+00 -0.45593999997E+02  0.45594000000E+02  0.51100000000E-03 0. -1.
    9900012    2    1    2    0    0 -0.37355675782E+02  0.61385004786E+01  0.21224884405E+02  0.47787269370E+02  0.19999992364E+02 0.  0.
        -12    1    1    2    0    0  0.37355675782E+02 -0.61385004786E+01 -0.21224884405E+02  0.43400730630E+02  0.00000000000E+00 0.  1.
         11    1    3    3    0    0 -0.15454991779E+02  0.71803715651E+01  0.97916447757E+01  0.19654282342E+02  0.51100000000E-03 0. -1.
        -11    1    3    3    0    0 -0.16887184609E+02  0.30728985454E+01  0.12914261028E+02  0.21480173362E+02  0.51100000000E-03 0.  1.
        -12    1    3    3    0    0 -0.50134993934E+01 -0.41147696319E+01 -0.14810213985E+01  0.66528136659E+01  0.00000000000E+00 0.  1.
</event>
<event>
 7    1  0.2497395E-009  0.4778727E+02  0.7816164E-02  0.1312668E+00
        -11   -1    0    0    0    0  0.00000000000E+00  0.00000000000E+00  0.45593999997E+02  0.45594000000E+02  0.51100000000E-03 0.  1.
         11   -1    0    0    0    0 -0.00000000000E+00 -0.00000000000E+00 -0.45593999997E+02  0.45594000000E+02  0.51100000000E-03 0. -1.
    9900012    2    1    2    0    0  0.30917259735E+02  0.29687547957E+02 -0.68114486386E+01  0.47787270907E+02  0.19999999374E+02 0.  0.
        -12    1    1    2    0    0 -0.30917259735E+02 -0.29687547957E+02  0.68114486386E+01  0.43400729093E+02  0.00000000000E+00 0.  1.
         11    1    3    3    0    0  0.20624100959E+02  0.18968724945E+02 -0.86986486747E+01  0.29339948115E+02  0.51100000000E-03 0. -1.
        -11    1    3    3    0    0  0.20856820743E+01 -0.17721245538E+01  0.21789915541E+01  0.34983567004E+01  0.51100000000E-03 0.  1.
        -12    1    3    3    0    0  0.82074767022E+01  0.12490947566E+02 -0.29179151799E+00  0.14948966091E+02  0.00000000000E+00 0.  1.
</event>
<event>
 7    1  0.2497395E-009  0.4778727E+02  0.7816164E-02  0.1312668E+00
        -11   -1    0    0    0    0  0.00000000000E+00  0.00000000000E+00  0.45593999997E+02  0.45594000000E+02  0.51100000000E-03 0. -1.
         11   -1    0    0    0    0 -0.00000000000E+00 -0.00000000000E+00 -0.45593999997E+02  0.45594000000E+02  0.51100000000E-03 0.  1.
    9900012    2    1    2    0    0  0.35371840270E+02  0.23294751697E+02  0.94768485946E+01  0.47787271896E+02  0.20000003883E+02 0.  0.
        -12    1    1    2    0    0 -0.35371840270E+02 -0.23294751697E+02 -0.94768485946E+01  0.43400728104E+02  0.00000000000E+00 0.  1.
         11    1    3    3    0    0  0.28984596443E+02  0.10749140661E+02  0.48058390754E+01  0.31284931602E+02  0.51100000000E-03 0. -1.
        -11    1    3    3    0    0  0.11833131447E+01  0.69764069828E+01 -0.79833231686E+00  0.71209422928E+01  0.51100000000E-03 0.  1.
         12    1    3    3    0    0  0.52039306825E+01  0.55692040526E+01  0.54693418361E+01  0.93813980007E+01  0.00000000000E+00 0. -1.
</event>
<event>
 7    1  0.2497395E-009  0.4778728E+02  0.7816164E-02  0.1312668E+00
        -11   -1    0    0    0    0  0.00000000000E+00  0.00000000000E+00  0.45593999997E+02  0.45594000000E+02  0.51100000000E-03 0. -1.
         11   -1    0    0    0    0 -0.00000000000E+00 -0.00000000000E+00 -0.45593999997E+02  0.45594000000E+02  0.51100000000E-03 0.  1.
    9900012    2    1    2    0    0 -0.42024450199E+02 -0.95099269120E+01 -0.52085542014E+01  0.47787283862E+02  0.20000058441E+02 0.  0.
        -12    1    1    2    0    0  0.42024450199E+02  0.95099269120E+01  0.52085542014E+01  0.43400716138E+02  0.00000000000E+00 0.  1.
         11    1    3    3    0    0 -0.30483291830E+02 -0.11208410656E+02 -0.48319094635E+01  0.32836060962E+02  0.51100000000E-03 0. -1.
        -11    1    3    3    0    0  0.12611271233E+01 -0.11313853658E+01 -0.70675394166E+00  0.18357494008E+01  0.51100000000E-03 0.  1.
         12    1    3    3    0    0 -0.12802285493E+02  0.28298691098E+01  0.33010920380E+00  0.13115473499E+02  0.00000000000E+00 0. -1.
</event>
<event>
 7    1  0.2497395E-009  0.4778727E+02  0.7816164E-02  0.1312668E+00
        -11   -1    0    0    0    0  0.00000000000E+00  0.00000000000E+00  0.45593999997E+02  0.45594000000E+02  0.51100000000E-03 0. -1.
         11   -1    0    0    0    0 -0.00000000000E+00 -0.00000000000E+00 -0.45593999997E+02  0.45594000000E+02  0.51100000000E-03 0.  1.
    9900012    2    1    2    0    0 -0.36580874839E+02  0.37106213038E+01  0.23058493792E+02  0.47787271315E+02  0.20000001232E+02 0.  0.
        -12    1    1    2    0    0  0.36580874839E+02 -0.37106213038E+01 -0.23058493792E+02  0.43400728685E+02  0.00000000000E+00 0.  1.
         11    1    3    3    0    0 -0.23711785992E+02  0.72360233180E+01  0.21033300107E+02  0.32511667783E+02  0.51100000000E-03 0. -1.
        -11    1    3    3    0    0 -0.27366958467E+01 -0.40690230734E+01  0.14444447273E+01  0.51120322535E+01  0.51100000000E-03 0.  1.
         12    1    3    3    0    0 -0.10132393001E+02  0.54362105917E+00  0.58074895755E+00  0.10163571278E+02  0.00000000000E+00 0. -1.
</event>
<event>
 7    1  0.2497395E-009  0.4778727E+02  0.7816164E-02  0.1312668E+00
        -11   -1    0    0    0    0  0.00000000000E+00  0.00000000000E+00  0.45593999997E+02  0.45594000000E+02  0.51100000000E-03 0. -1.
         11   -1    0    0    0    0 -0.00000000000E+00 -0.00000000000E+00 -0.45593999997E+02  0.45594000000E+02  0.51100000000E-03 0.  1.
    9900012    2    1    2    0    0  0.22741323870E+02  0.32538528123E+02  0.17541367623E+02  0.47787271874E+02  0.20000003784E+02 0.  0.
        -12    1    1    2    0    0 -0.22741323870E+02 -0.32538528123E+02 -0.17541367623E+02  0.43400728126E+02  0.00000000000E+00 0.  1.
         11    1    3    3    0    0  0.13681367168E+02  0.20103398333E+02  0.10434614347E+02  0.26461436260E+02  0.51100000000E-03 0. -1.
        -11    1    3    3    0    0  0.47794311582E+01 -0.18799070233E+01  0.23285731971E+01  0.56390837915E+01  0.51100000000E-03 0.  1.
         12    1    3    3    0    0  0.42805255441E+01  0.14315036813E+02  0.47781800788E+01  0.15686751823E+02  0.00000000000E+00 0. -1.
</event>
<event>
 7    1  0.2497395E-009  0.4778727E+02  0.7816164E-02  0.1312668E+00
        -11   -1    0    0    0    0  0.00000000000E+00  0.00000000000E+00  0.45593999997E+02  0.45594000000E+02  0.51100000000E-03 0. -1.
         11   -1    0    0    0    0 -0.00000000000E+00 -0.00000000000E+00 -0.45593999997E+02  0.45594000000E+02  0.51100000000E-03 0.  1.
    9900012    2    1    2    0    0 -0.29459646893E+02 -0.31577399649E+02  0.43151426301E+01  0.47787269366E+02  0.19999992347E+02 0.  0.
        -12    1    1    2    0    0  0.29459646893E+02  0.31577399649E+02 -0.43151426301E+01  0.43400730634E+02  0.00000000000E+00 0.  1.
         11    1    3    3    0    0 -0.10454916526E+02 -0.72968607320E+01  0.13644440037E+01  0.12822291676E+02  0.51100000000E-03 0. -1.
        -11    1    3    3    0    0 -0.17201451577E+02 -0.13437954785E+02 -0.36684717549E+01  0.22134277725E+02  0.51100000000E-03 0.  1.
        -12    1    3    3    0    0 -0.18032787898E+01 -0.10842584132E+02  0.66191703813E+01  0.12830699965E+02  0.00000000000E+00 0.  1.
</event>
<event>
 7    1  0.2497395E-009  0.4778727E+02  0.7816164E-02  0.1312668E+00
        -11   -1    0    0    0    0  0.00000000000E+00  0.00000000000E+00  0.45593999997E+02  0.45594000000E+02  0.51100000000E-03 0. -1.
         11   -1    0    0    0    0 -0.00000000000E+00 -0.00000000000E+00 -0.45593999997E+02  0.45594000000E+02  0.51100000000E-03 0.  1.
    9900012    2    1    2    0    0 -0.18613499002E+02  0.23192879117E+02  0.31610939279E+02  0.47787268798E+02  0.19999989756E+02 0.  0.
        -12    1    1    2    0    0  0.18613499002E+02 -0.23192879117E+02 -0.31610939279E+02  0.43400731202E+02  0.00000000000E+00 0.  1.
         11    1    3    3    0    0 -0.63428040396E+01  0.19700139919E+02  0.15189466092E+02  0.25671902079E+02  0.51100000000E-03 0. -1.
        -11    1    3    3    0    0 -0.12789351134E+02  0.32809648600E+01  0.16852259323E+02  0.21408663606E+02  0.51100000000E-03 0.  1.
         12    1    3    3    0    0  0.51865617158E+00  0.21177433797E+00 -0.43078613654E+00  0.70670311304E+00  0.00000000000E+00 0. -1.
</event>
<event>
 7    1  0.2497395E-009  0.4778727E+02  0.7816164E-02  0.1312668E+00
        -11   -1    0    0    0    0  0.00000000000E+00  0.00000000000E+00  0.45593999997E+02  0.45594000000E+02  0.51100000000E-03 0.  1.
         11   -1    0    0    0    0 -0.00000000000E+00 -0.00000000000E+00 -0.45593999997E+02  0.45594000000E+02  0.51100000000E-03 0. -1.
    9900012    2    1    2    0    0  0.32016688673E+02 -0.22795728065E+02 -0.18409496302E+02  0.47787272752E+02  0.20000007783E+02 0.  0.
        -12    1    1    2    0    0 -0.32016688673E+02  0.22795728065E+02  0.18409496302E+02  0.43400727248E+02  0.00000000000E+00 0.  1.
         11    1    3    3    0    0  0.22174514183E+02 -0.21440878811E+02 -0.13963286588E+02  0.33858436704E+02  0.51100000000E-03 0. -1.
        -11    1    3    3    0    0  0.64851210423E+01 -0.33942710036E+01  0.81295957634E+00  0.73646978291E+01  0.51100000000E-03 0.  1.
         12    1    3    3    0    0  0.33570534476E+01  0.20394217498E+01 -0.52591692904E+01  0.65641382183E+01  0.00000000000E+00 0. -1.
</event>
<event>
 7    1  0.2497395E-009  0.4778727E+02  0.7816164E-02  0.1312668E+00
        -11   -1    0    0    0    0  0.00000000000E+00  0.00000000000E+00  0.45593999997E+02  0.45594000000E+02  0.51100000000E-03 0. -1.
         11   -1    0    0    0    0 -0.00000000000E+00 -0.00000000000E+00 -0.45593999997E+02  0.45594000000E+02  0.51100000000E-03 0.  1.
    9900012    2    1    2    0    0  0.31580630152E+02 -0.17139779408E+02  0.24341629698E+02  0.47787272180E+02  0.20000005177E+02 0.  0.
        -12    1    1    2    0    0 -0.31580630152E+02  0.17139779408E+02 -0.24341629698E+02  0.43400727820E+02  0.00000000000E+00 0.  1.
         11    1    3    3    0    0  0.23612436000E+02 -0.16257876386E+02  0.14586347461E+02  0.32165621570E+02  0.51100000000E-03 0. -1.
        -11    1    3    3    0    0  0.65407011367E+01  0.35447073267E+01  0.49602839085E+01  0.89414841110E+01  0.51100000000E-03 0.  1.
         12    1    3    3    0    0  0.14274930150E+01 -0.44266103491E+01  0.47949983284E+01  0.66801664994E+01  0.00000000000E+00 0. -1.
</event>
<event>
 7    1  0.2497395E-009  0.4778727E+02  0.7816164E-02  0.1312668E+00
        -11   -1    0    0    0    0  0.00000000000E+00  0.00000000000E+00  0.45593999997E+02  0.45594000000E+02  0.51100000000E-03 0. -1.
         11   -1    0    0    0    0 -0.00000000000E+00 -0.00000000000E+00 -0.45593999997E+02  0.45594000000E+02  0.51100000000E-03 0.  1.
    9900012    2    1    2    0    0 -0.35046164487E+02 -0.17715730198E+02 -0.18480877647E+02  0.47787267514E+02  0.19999983904E+02 0.  0.
        -12    1    1    2    0    0  0.35046164487E+02  0.17715730198E+02  0.18480877647E+02  0.43400732486E+02  0.00000000000E+00 0.  1.
         11    1    3    3    0    0 -0.34008399724E+02 -0.17746095676E+02 -0.18889489060E+02  0.42758717950E+02  0.51100000000E-03 0. -1.
        -11    1    3    3    0    0  0.19170248809E+01 -0.56238340830E+00  0.12994277820E+00  0.20020351842E+01  0.51100000000E-03 0.  1.
         12    1    3    3    0    0 -0.29547896447E+01  0.59274888652E+00  0.27866863462E+00  0.30265143804E+01  0.00000000000E+00 0. -1.
</event>
<event>
 7    1  0.2497395E-009  0.4778732E+02  0.7816164E-02  0.1312668E+00
        -11   -1    0    0    0    0  0.00000000000E+00  0.00000000000E+00  0.45593999997E+02  0.45594000000E+02  0.51100000000E-03 0. -1.
         11   -1    0    0    0    0 -0.00000000000E+00 -0.00000000000E+00 -0.45593999997E+02  0.45594000000E+02  0.51100000000E-03 0.  1.
    9900012    2    1    2    0    0  0.29775216379E+02  0.30431175745E+02 -0.84260946118E+01  0.47787319843E+02  0.20000222491E+02 0.  0.
        -12    1    1    2    0    0 -0.29775216379E+02 -0.30431175745E+02  0.84260946118E+01  0.43400680157E+02  0.00000000000E+00 0.  1.
         11    1    3    3    0    0  0.24093857460E+01  0.54501908012E+01  0.37274547248E+01  0.70287721850E+01  0.51100000000E-03 0. -1.
        -11    1    3    3    0    0 -0.69285563743E+00  0.14633135502E+01 -0.23568624616E+01  0.28593944122E+01  0.51100000000E-03 0.  1.
         12    1    3    3    0    0  0.28058686271E+02  0.23517671394E+02 -0.97966868750E+01  0.37899153246E+02  0.00000000000E+00 0. -1.
</event>
<event>
 7    1  0.2497395E-009  0.4778727E+02  0.7816164E-02  0.1312668E+00
        -11   -1    0    0    0    0  0.00000000000E+00  0.00000000000E+00  0.45593999997E+02  0.45594000000E+02  0.51100000000E-03 0. -1.
         11   -1    0    0    0    0 -0.00000000000E+00 -0.00000000000E+00 -0.45593999997E+02  0.45594000000E+02  0.51100000000E-03 0.  1.
    9900012    2    1    2    0    0  0.28065788805E+02  0.33059740173E+02 -0.17286053759E+01  0.47787274222E+02  0.20000014486E+02 0.  0.
        -12    1    1    2    0    0 -0.28065788805E+02 -0.33059740173E+02  0.17286053759E+01  0.43400725778E+02  0.00000000000E+00 0.  1.
         11    1    3    3    0    0  0.63926114458E+01  0.62437431300E+01  0.52880738710E+00  0.89515052859E+01  0.51100000000E-03 0. -1.
        -11    1    3    3    0    0  0.14780449555E+02  0.46304281278E+01  0.59278220436E-01  0.15488901441E+02  0.51100000000E-03 0.  1.
        -12    1    3    3    0    0  0.68927278041E+01  0.22185568915E+02 -0.23166909835E+01  0.23346867494E+02  0.00000000000E+00 0.  1.
</event>
<event>
 7    1  0.2497395E-009  0.4778727E+02  0.7816164E-02  0.1312668E+00
        -11   -1    0    0    0    0  0.00000000000E+00  0.00000000000E+00  0.45593999997E+02  0.45594000000E+02  0.51100000000E-03 0. -1.
         11   -1    0    0    0    0 -0.00000000000E+00 -0.00000000000E+00 -0.45593999997E+02  0.45594000000E+02  0.51100000000E-03 0.  1.
    9900012    2    1    2    0    0  0.57475595046E+01  0.14666243813E+02  0.40441191315E+02  0.47787273015E+02  0.20000008983E+02 0.  0.
        -12    1    1    2    0    0 -0.57475595046E+01 -0.14666243813E+02 -0.40441191315E+02  0.43400726985E+02  0.00000000000E+00 0.  1.
         11    1    3    3    0    0 -0.58333482082E+01  0.26555143336E+01  0.12671889642E+02  0.14200580800E+02  0.51100000000E-03 0. -1.
        -11    1    3    3    0    0  0.26048026468E+01 -0.10819427977E+01  0.26390805759E+01  0.38626860593E+01  0.51100000000E-03 0.  1.
         12    1    3    3    0    0  0.89761050660E+01  0.13092672277E+02  0.25130221098E+02  0.29724006156E+02  0.00000000000E+00 0. -1.
</event>
<event>
 7    1  0.2497395E-009  0.4778727E+02  0.7816164E-02  0.1312668E+00
        -11   -1    0    0    0    0  0.00000000000E+00  0.00000000000E+00  0.45593999997E+02  0.45594000000E+02  0.51100000000E-03 0.  1.
         11   -1    0    0    0    0 -0.00000000000E+00 -0.00000000000E+00 -0.45593999997E+02  0.45594000000E+02  0.51100000000E-03 0. -1.
    9900012    2    1    2    0    0  0.41722555672E+01  0.29584377394E+02 -0.31479838622E+02  0.47787270260E+02  0.19999996423E+02 0.  0.
        -12    1    1    2    0    0 -0.41722555672E+01 -0.29584377394E+02  0.31479838622E+02  0.43400729740E+02  0.00000000000E+00 0.  1.
         11    1    3    3    0    0  0.70352048747E+01  0.28831795306E+02 -0.32868764922E+02  0.44284559792E+02  0.51100000000E-03 0. -1.
        -11    1    3    3    0    0 -0.71264226738E+00 -0.14648441230E-01  0.93371394232E+00  0.11746895612E+01  0.51100000000E-03 0.  1.
         12    1    3    3    0    0 -0.21503070401E+01  0.76723052950E+00  0.45521235770E+00  0.23280209069E+01  0.00000000000E+00 0. -1.
</event>
<event>
 7    1  0.2497395E-009  0.4778727E+02  0.7816164E-02  0.1312668E+00
        -11   -1    0    0    0    0  0.00000000000E+00  0.00000000000E+00  0.45593999997E+02  0.45594000000E+02  0.51100000000E-03 0.  1.
         11   -1    0    0    0    0 -0.00000000000E+00 -0.00000000000E+00 -0.45593999997E+02  0.45594000000E+02  0.51100000000E-03 0. -1.
    9900012    2    1    2    0    0  0.31532736792E+01  0.16316768662E+02 -0.40092932985E+02  0.47787270169E+02  0.19999996009E+02 0.  0.
        -12    1    1    2    0    0 -0.31532736792E+01 -0.16316768662E+02  0.40092932985E+02  0.43400729831E+02  0.00000000000E+00 0.  1.
         11    1    3    3    0    0  0.92131459306E+00  0.73368682904E+01 -0.91595278592E+01  0.11771805629E+02  0.51100000000E-03 0. -1.
        -11    1    3    3    0    0 -0.68027931845E+00 -0.25371219088E+01 -0.18987322353E+02  0.19168155309E+02  0.51100000000E-03 0.  1.
        -12    1    3    3    0    0  0.29122384046E+01  0.11517022281E+02 -0.11946082773E+02  0.16847309232E+02  0.00000000000E+00 0.  1.
</event>
<event>
 7    1  0.2497395E-009  0.4778727E+02  0.7816164E-02  0.1312668E+00
        -11   -1    0    0    0    0  0.00000000000E+00  0.00000000000E+00  0.45593999997E+02  0.45594000000E+02  0.51100000000E-03 0.  1.
         11   -1    0    0    0    0 -0.00000000000E+00 -0.00000000000E+00 -0.45593999997E+02  0.45594000000E+02  0.51100000000E-03 0. -1.
    9900012    2    1    2    0    0 -0.25969754257E+02 -0.11254113294E+02 -0.32901982494E+02  0.47787266662E+02  0.19999980021E+02 0.  0.
        -12    1    1    2    0    0  0.25969754257E+02  0.11254113294E+02  0.32901982494E+02  0.43400733338E+02  0.00000000000E+00 0.  1.
         11    1    3    3    0    0 -0.15356810269E+02 -0.97923898750E+01 -0.10416629572E+02  0.20981627511E+02  0.51100000000E-03 0. -1.
        -11    1    3    3    0    0 -0.42781445628E+01 -0.38945442450E+01 -0.17368789016E+02  0.18306961188E+02  0.51100000000E-03 0.  1.
        -12    1    3    3    0    0 -0.63347994249E+01  0.24328208265E+01 -0.51165639059E+01  0.84986779637E+01  0.00000000000E+00 0.  1.
</event>
<event>
 7    1  0.2497395E-009  0.4778727E+02  0.7816164E-02  0.1312668E+00
        -11   -1    0    0    0    0  0.00000000000E+00  0.00000000000E+00  0.45593999997E+02  0.45594000000E+02  0.51100000000E-03 0. -1.
         11   -1    0    0    0    0 -0.00000000000E+00 -0.00000000000E+00 -0.45593999997E+02  0.45594000000E+02  0.51100000000E-03 0.  1.
    9900012    2    1    2    0    0  0.22034011353E+00  0.20289349765E+02  0.38365572558E+02  0.47787269345E+02  0.19999992253E+02 0.  0.
        -12    1    1    2    0    0 -0.22034011353E+00 -0.20289349765E+02 -0.38365572558E+02  0.43400730655E+02  0.00000000000E+00 0.  1.
         11    1    3    3    0    0  0.47663774067E+01  0.11993451138E+02  0.10553927057E+02  0.16671730575E+02  0.51100000000E-03 0. -1.
        -11    1    3    3    0    0 -0.12542149017E+01 -0.23567220266E+01  0.38288390140E+01  0.46676763156E+01  0.51100000000E-03 0.  1.
         12    1    3    3    0    0 -0.32918223914E+01  0.10652620655E+02  0.23982806487E+02  0.26447862455E+02  0.00000000000E+00 0. -1.
</event>
<event>
 7    1  0.2497395E-009  0.4778722E+02  0.7816164E-02  0.1312668E+00
        -11   -1    0    0    0    0  0.00000000000E+00  0.00000000000E+00  0.45593999997E+02  0.45594000000E+02  0.51100000000E-03 0. -1.
         11   -1    0    0    0    0 -0.00000000000E+00 -0.00000000000E+00 -0.45593999997E+02  0.45594000000E+02  0.51100000000E-03 0.  1.
    9900012    2    1    2    0    0  0.43027592989E+01  0.12818958783E+02  0.41240609136E+02  0.47787224848E+02  0.19999789371E+02 0.  0.
        -12    1    1    2    0    0 -0.43027592989E+01 -0.12818958783E+02 -0.41240609136E+02  0.43400775152E+02  0.00000000000E+00 0.  1.
         11    1    3    3    0    0 -0.72010112515E+01  0.87489030661E+01  0.23466821212E+02  0.26059346998E+02  0.51100000000E-03 0. -1.
        -11    1    3    3    0    0  0.73473849098E+01  0.25773514434E+01  0.89666991275E+01  0.11875542050E+02  0.51100000000E-03 0.  1.
         12    1    3    3    0    0  0.41563856406E+01  0.14927042732E+01  0.88070887974E+01  0.98523358005E+01  0.00000000000E+00 0. -1.
</event>
<event>
 7    1  0.2497395E-009  0.4778727E+02  0.7816164E-02  0.1312668E+00
        -11   -1    0    0    0    0  0.00000000000E+00  0.00000000000E+00  0.45593999997E+02  0.45594000000E+02  0.51100000000E-03 0.  1.
         11   -1    0    0    0    0 -0.00000000000E+00 -0.00000000000E+00 -0.45593999997E+02  0.45594000000E+02  0.51100000000E-03 0. -1.
    9900012    2    1    2    0    0 -0.47485296107E+01  0.77836151678E+01 -0.42432185439E+02  0.47787267751E+02  0.19999984986E+02 0.  0.
        -12    1    1    2    0    0  0.47485296107E+01 -0.77836151678E+01  0.42432185439E+02  0.43400732249E+02  0.00000000000E+00 0.  1.
         11    1    3    3    0    0 -0.30336617916E+01  0.12143044974E+02 -0.33009101442E+02  0.35302371356E+02  0.51100000000E-03 0. -1.
        -11    1    3    3    0    0 -0.34545006726E+01 -0.41876882653E+01 -0.38799495627E+01  0.66726544024E+01  0.51100000000E-03 0.  1.
         12    1    3    3    0    0  0.17396328536E+01 -0.17174154054E+00 -0.55431344347E+01  0.58122419928E+01  0.00000000000E+00 0. -1.
</event>
<event>
 7    1  0.2497395E-009  0.4778728E+02  0.7816164E-02  0.1312668E+00
        -11   -1    0    0    0    0  0.00000000000E+00  0.00000000000E+00  0.45593999997E+02  0.45594000000E+02  0.51100000000E-03 0.  1.
         11   -1    0    0    0    0 -0.00000000000E+00 -0.00000000000E+00 -0.45593999997E+02  0.45594000000E+02  0.51100000000E-03 0. -1.
    9900012    2    1    2    0    0 -0.12298706090E+02  0.10934722902E+01 -0.41607318786E+02  0.47787276162E+02  0.20000023332E+02 0.  0.
        -12    1    1    2    0    0  0.12298706090E+02 -0.10934722902E+01  0.41607318786E+02  0.43400723838E+02  0.00000000000E+00 0.  1.
         11    1    3    3    0    0 -0.25099756095E+01 -0.36405771679E+01 -0.28363848261E+02  0.28706474324E+02  0.51100000000E-03 0. -1.
        -11    1    3    3    0    0 -0.30797283944E+01  0.45303133670E+01 -0.10473536468E+02  0.11819620662E+02  0.51100000000E-03 0.  1.
         12    1    3    3    0    0 -0.67090020865E+01  0.20373609113E+00 -0.27699340566E+01  0.72611811760E+01  0.00000000000E+00 0. -1.
</event>
<event>
 7    1  0.2497395E-009  0.4778727E+02  0.7816164E-02  0.1312668E+00
        -11   -1    0    0    0    0  0.00000000000E+00  0.00000000000E+00  0.45593999997E+02  0.45594000000E+02  0.51100000000E-03 0.  1.
         11   -1    0    0    0    0 -0.00000000000E+00 -0.00000000000E+00 -0.45593999997E+02  0.45594000000E+02  0.51100000000E-03 0. -1.
    9900012    2    1    2    0    0 -0.70659191453E+01 -0.32444014467E+02 -0.27947847167E+02  0.47787269022E+02  0.19999990780E+02 0.  0.
        -12    1    1    2    0    0  0.70659191453E+01  0.32444014467E+02  0.27947847167E+02  0.43400730978E+02  0.00000000000E+00 0.  1.
         11    1    3    3    0    0 -0.50984743597E+01 -0.82723879751E+01  0.10170148746E+00  0.97178797616E+01  0.51100000000E-03 0. -1.
        -11    1    3    3    0    0  0.32580098242E+01 -0.89623995619E+01 -0.12258143957E+02  0.15530657663E+02  0.51100000000E-03 0.  1.
         12    1    3    3    0    0 -0.52254546097E+01 -0.15209226930E+02 -0.15791404698E+02  0.22538731597E+02  0.00000000000E+00 0. -1.
</event>
<event>
 7    1  0.2497395E-009  0.4778727E+02  0.7816164E-02  0.1312668E+00
        -11   -1    0    0    0    0  0.00000000000E+00  0.00000000000E+00  0.45593999997E+02  0.45594000000E+02  0.51100000000E-03 0. -1.
         11   -1    0    0    0    0 -0.00000000000E+00 -0.00000000000E+00 -0.45593999997E+02  0.45594000000E+02  0.51100000000E-03 0.  1.
    9900012    2    1    2    0    0 -0.30464440176E+02  0.30901442216E+02 -0.80121290335E+00  0.47787272030E+02  0.20000004492E+02 0.  0.
        -12    1    1    2    0    0  0.30464440176E+02 -0.30901442216E+02  0.80121290335E+00  0.43400727970E+02  0.00000000000E+00 0.  1.
         11    1    3    3    0    0 -0.51836147166E+01  0.39277791098E+01  0.48356039456E+01  0.81043430360E+01  0.51100000000E-03 0. -1.
        -11    1    3    3    0    0 -0.30812604882E+01  0.81015243038E+00  0.29176709784E+01  0.43201061741E+01  0.51100000000E-03 0.  1.
         12    1    3    3    0    0 -0.22199564971E+02  0.26163510675E+02 -0.85544878273E+01  0.35362822819E+02  0.00000000000E+00 0. -1.
</event>
<event>
 7    1  0.2497395E-009  0.4778727E+02  0.7816164E-02  0.1312668E+00
        -11   -1    0    0    0    0  0.00000000000E+00  0.00000000000E+00  0.45593999997E+02  0.45594000000E+02  0.51100000000E-03 0.  1.
         11   -1    0    0    0    0 -0.00000000000E+00 -0.00000000000E+00 -0.45593999997E+02  0.45594000000E+02  0.51100000000E-03 0. -1.
    9900012    2    1    2    0    0 -0.33058218320E+02  0.59440030650E+01 -0.27485382499E+02  0.47787271641E+02  0.20000002720E+02 0.  0.
        -12    1    1    2    0    0  0.33058218320E+02 -0.59440030650E+01  0.27485382499E+02  0.43400728359E+02  0.00000000000E+00 0.  1.
         11    1    3    3    0    0 -0.80823914264E+01  0.13170315110E+01  0.20827435968E+01  0.84497008421E+01  0.51100000000E-03 0. -1.
        -11    1    3    3    0    0 -0.23254104234E+02  0.55929366861E+01 -0.26583980890E+02  0.35759507053E+02  0.51100000000E-03 0.  1.
        -12    1    3    3    0    0 -0.17217226601E+01 -0.96596513212E+00 -0.29841452064E+01  0.35780637456E+01  0.00000000000E+00 0.  1.
</event>
<event>
 7    1  0.3360302E-009  0.4778726E+02  0.7816164E-02  0.1312668E+00
        -11   -1    0    0    0    0  0.00000000000E+00  0.00000000000E+00  0.45593999997E+02  0.45594000000E+02  0.51100000000E-03 0. -1.
         11   -1    0    0    0    0 -0.00000000000E+00 -0.00000000000E+00 -0.45593999997E+02  0.45594000000E+02  0.51100000000E-03 0.  1.
    9900012    2    1    2    0    0  0.19975052313E+01 -0.26266789564E+02  0.34491883102E+02  0.47787259672E+02  0.19999948146E+02 0.  0.
        -12    1    1    2    0    0 -0.19975052313E+01  0.26266789564E+02 -0.34491883102E+02  0.43400740328E+02  0.00000000000E+00 0.  1.
         11    1    3    3    0    0  0.60426769375E+01 -0.74851784483E+01  0.20205372626E+02  0.22378537132E+02  0.51100000000E-03 0. -1.
        -11    1    3    3    0    0 -0.13021057703E+01 -0.32690550660E+01 -0.78685531313E+00  0.36057373735E+01  0.51100000000E-03 0.  1.
         12    1    3    3    0    0 -0.27430659359E+01 -0.15512556049E+02  0.15073365789E+02  0.21802985166E+02  0.00000000000E+00 0. -1.
</event>
<event>
 7    1  0.2497395E-009  0.4778727E+02  0.7816164E-02  0.1312668E+00
        -11   -1    0    0    0    0  0.00000000000E+00  0.00000000000E+00  0.45593999997E+02  0.45594000000E+02  0.51100000000E-03 0. -1.
         11   -1    0    0    0    0 -0.00000000000E+00 -0.00000000000E+00 -0.45593999997E+02  0.45594000000E+02  0.51100000000E-03 0.  1.
    9900012    2    1    2    0    0  0.22458468104E+00 -0.42110517637E+02  0.10501302440E+02  0.47787268591E+02  0.19999988812E+02 0.  0.
        -12    1    1    2    0    0 -0.22458468104E+00  0.42110517637E+02 -0.10501302440E+02  0.43400731409E+02  0.00000000000E+00 0.  1.
         11    1    3    3    0    0 -0.33342004399E+01 -0.32171567680E+02  0.96625124591E+01  0.33756344690E+02  0.51100000000E-03 0. -1.
        -11    1    3    3    0    0  0.23880459739E+01 -0.36395773171E+00 -0.28207917031E+01  0.37137709807E+01  0.51100000000E-03 0.  1.
        -12    1    3    3    0    0  0.11707391470E+01 -0.95749922256E+01  0.36595816838E+01  0.10317152920E+02  0.00000000000E+00 0.  1.
</event>
<event>
 7    1  0.2497395E-009  0.4778728E+02  0.7816164E-02  0.1312668E+00
        -11   -1    0    0    0    0  0.00000000000E+00  0.00000000000E+00  0.45593999997E+02  0.45594000000E+02  0.51100000000E-03 0.  1.
         11   -1    0    0    0    0 -0.00000000000E+00 -0.00000000000E+00 -0.45593999997E+02  0.45594000000E+02  0.51100000000E-03 0. -1.
    9900012    2    1    2    0    0  0.35460034682E+02  0.57359387551E+01 -0.24357897974E+02  0.47787282878E+02  0.20000053952E+02 0.  0.
        -12    1    1    2    0    0 -0.35460034682E+02 -0.57359387551E+01  0.24357897974E+02  0.43400717122E+02  0.00000000000E+00 0.  1.
         11    1    3    3    0    0  0.24383679353E+02 -0.24650600990E+01 -0.20946465866E+02  0.32239645975E+02  0.51100000000E-03 0. -1.
        -11    1    3    3    0    0  0.11787929147E+02  0.69280026423E+01 -0.27527193957E+01  0.13947399704E+02  0.51100000000E-03 0.  1.
         12    1    3    3    0    0 -0.71157381782E+00  0.12729962117E+01 -0.65871271215E+00  0.16002371982E+01  0.00000000000E+00 0. -1.
</event>
<event>
 7    1  0.2497395E-009  0.4778727E+02  0.7816164E-02  0.1312668E+00
        -11   -1    0    0    0    0  0.00000000000E+00  0.00000000000E+00  0.45593999997E+02  0.45594000000E+02  0.51100000000E-03 0. -1.
         11   -1    0    0    0    0 -0.00000000000E+00 -0.00000000000E+00 -0.45593999997E+02  0.45594000000E+02  0.51100000000E-03 0.  1.
    9900012    2    1    2    0    0 -0.87871035015E+01  0.26595970047E+02  0.33152137069E+02  0.47787274166E+02  0.20000014233E+02 0.  0.
        -12    1    1    2    0    0  0.87871035015E+01 -0.26595970047E+02 -0.33152137069E+02  0.43400725834E+02  0.00000000000E+00 0.  1.
         11    1    3    3    0    0 -0.18576714134E+01  0.84581447863E+01  0.83521882642E+01  0.12031217950E+02  0.51100000000E-03 0. -1.
        -11    1    3    3    0    0 -0.90404011011E+01  0.80597995060E+01  0.43660254458E+01  0.12874447507E+02  0.51100000000E-03 0.  1.
        -12    1    3    3    0    0  0.21109690131E+01  0.10078025755E+02  0.20433923359E+02  0.22881608709E+02  0.00000000000E+00 0.  1.
</event>
<event>
 7    1  0.2497395E-009  0.4778728E+02  0.7816164E-02  0.1312668E+00
        -11   -1    0    0    0    0  0.00000000000E+00  0.00000000000E+00  0.45593999997E+02  0.45594000000E+02  0.51100000000E-03 0.  1.
         11   -1    0    0    0    0 -0.00000000000E+00 -0.00000000000E+00 -0.45593999997E+02  0.45594000000E+02  0.51100000000E-03 0. -1.
    9900012    2    1    2    0    0  0.10735392614E+02  0.34434244631E+02  0.24138290590E+02  0.47787275001E+02  0.20000018038E+02 0.  0.
        -12    1    1    2    0    0 -0.10735392614E+02 -0.34434244631E+02 -0.24138290590E+02  0.43400724999E+02  0.00000000000E+00 0.  1.
         11    1    3    3    0    0  0.12481495147E+02  0.15134570634E+02  0.85865418770E+01  0.21414286143E+02  0.51100000000E-03 0. -1.
        -11    1    3    3    0    0 -0.40667528919E+01  0.13925279723E+02  0.72578588600E+01  0.16221233305E+02  0.51100000000E-03 0.  1.
        -12    1    3    3    0    0  0.23206503592E+01  0.53743942742E+01  0.82938898525E+01  0.10151755552E+02  0.00000000000E+00 0.  1.
</event>
<event>
 7    1  0.2497395E-009  0.4778727E+02  0.7816164E-02  0.1312668E+00
        -11   -1    0    0    0    0  0.00000000000E+00  0.00000000000E+00  0.45593999997E+02  0.45594000000E+02  0.51100000000E-03 0.  1.
         11   -1    0    0    0    0 -0.00000000000E+00 -0.00000000000E+00 -0.45593999997E+02  0.45594000000E+02  0.51100000000E-03 0. -1.
    9900012    2    1    2    0    0 -0.32651348479E+02  0.28426976629E+02  0.30691472410E+01  0.47787271636E+02  0.20000002697E+02 0.  0.
        -12    1    1    2    0    0  0.32651348479E+02 -0.28426976629E+02 -0.30691472410E+01  0.43400728364E+02  0.00000000000E+00 0.  1.
         11    1    3    3    0    0 -0.17662838651E+02  0.21529567224E+02 -0.13142412200E+01  0.27878761886E+02  0.51100000000E-03 0. -1.
        -11    1    3    3    0    0 -0.16284572157E+02  0.59619793471E+01  0.26368274122E+01  0.17540961978E+02  0.51100000000E-03 0.  1.
         12    1    3    3    0    0  0.12960623289E+01  0.93543005845E+00  0.17465610489E+01  0.23675477719E+01  0.00000000000E+00 0. -1.
</event>
<event>
 7    1  0.2497395E-009  0.4778727E+02  0.7816164E-02  0.1312668E+00
        -11   -1    0    0    0    0  0.00000000000E+00  0.00000000000E+00  0.45593999997E+02  0.45594000000E+02  0.51100000000E-03 0.  1.
         11   -1    0    0    0    0 -0.00000000000E+00 -0.00000000000E+00 -0.45593999997E+02  0.45594000000E+02  0.51100000000E-03 0. -1.
    9900012    2    1    2    0    0 -0.60965311618E+01  0.25994688437E+02 -0.34215959126E+02  0.47787269845E+02  0.19999994530E+02 0.  0.
        -12    1    1    2    0    0  0.60965311618E+01 -0.25994688437E+02  0.34215959126E+02  0.43400730155E+02  0.00000000000E+00 0.  1.
         11    1    3    3    0    0  0.32483298632E+01  0.11769178812E+02 -0.78376019891E+01  0.14508384542E+02  0.51100000000E-03 0. -1.
        -11    1    3    3    0    0 -0.11112907622E+02  0.12052642212E+02 -0.17546380902E+02  0.24013295965E+02  0.51100000000E-03 0.  1.
         12    1    3    3    0    0  0.17680465973E+01  0.21728674134E+01 -0.88319762348E+01  0.92655893379E+01  0.00000000000E+00 0. -1.
</event>
<event>
 7    1  0.2497395E-009  0.4778727E+02  0.7816164E-02  0.1312668E+00
        -11   -1    0    0    0    0  0.00000000000E+00  0.00000000000E+00  0.45593999997E+02  0.45594000000E+02  0.51100000000E-03 0. -1.
         11   -1    0    0    0    0 -0.00000000000E+00 -0.00000000000E+00 -0.45593999997E+02  0.45594000000E+02  0.51100000000E-03 0.  1.
    9900012    2    1    2    0    0 -0.12257486207E+02  0.15077589225E+02  0.38807775756E+02  0.47787272770E+02  0.20000007869E+02 0.  0.
        -12    1    1    2    0    0  0.12257486207E+02 -0.15077589225E+02 -0.38807775756E+02  0.43400727230E+02  0.00000000000E+00 0.  1.
         11    1    3    3    0    0 -0.11604612822E+02  0.53704371891E+01  0.32012121108E+02  0.34471503194E+02  0.51100000000E-03 0. -1.
        -11    1    3    3    0    0  0.15500556940E+00  0.40022056854E+01 -0.48116299991E+00  0.40340048548E+01  0.51100000000E-03 0.  1.
         12    1    3    3    0    0 -0.80787895370E+00  0.57049463501E+01  0.72768176483E+01  0.92817647216E+01  0.00000000000E+00 0. -1.
</event>
<event>
 7    1  0.2497395E-009  0.4778727E+02  0.7816164E-02  0.1312668E+00
        -11   -1    0    0    0    0  0.00000000000E+00  0.00000000000E+00  0.45593999997E+02  0.45594000000E+02  0.51100000000E-03 0. -1.
         11   -1    0    0    0    0 -0.00000000000E+00 -0.00000000000E+00 -0.45593999997E+02  0.45594000000E+02  0.51100000000E-03 0.  1.
    9900012    2    1    2    0    0  0.28376184378E+02 -0.23750906853E+02 -0.22678396149E+02  0.47787273415E+02  0.20000010810E+02 0.  0.
        -12    1    1    2    0    0 -0.28376184378E+02  0.23750906853E+02  0.22678396149E+02  0.43400726585E+02  0.00000000000E+00 0.  1.
         11    1    3    3    0    0  0.23774628649E+02 -0.15392834740E+02 -0.17281432318E+02  0.33178611061E+02  0.51100000000E-03 0. -1.
        -11    1    3    3    0    0  0.15244691885E+01  0.19829074885E+01  0.93431204692E-01  0.25029298963E+01  0.51100000000E-03 0.  1.
         12    1    3    3    0    0  0.30770865406E+01 -0.10340979602E+02 -0.54903950358E+01  0.12105732458E+02  0.00000000000E+00 0. -1.
</event>
<event>
 7    1  0.2497395E-009  0.4778728E+02  0.7816164E-02  0.1312668E+00
        -11   -1    0    0    0    0  0.00000000000E+00  0.00000000000E+00  0.45593999997E+02  0.45594000000E+02  0.51100000000E-03 0. -1.
         11   -1    0    0    0    0 -0.00000000000E+00 -0.00000000000E+00 -0.45593999997E+02  0.45594000000E+02  0.51100000000E-03 0.  1.
    9900012    2    1    2    0    0  0.38482659235E+02  0.14579367996E+02  0.13789476379E+02  0.47787277751E+02  0.20000030576E+02 0.  0.
        -12    1    1    2    0    0 -0.38482659235E+02 -0.14579367996E+02 -0.13789476379E+02  0.43400722249E+02  0.00000000000E+00 0.  1.
         11    1    3    3    0    0  0.25773787799E+02  0.10133265852E+02  0.11984125130E+02  0.30175991611E+02  0.51100000000E-03 0. -1.
        -11    1    3    3    0    0  0.88101646559E+00  0.55141870562E+01 -0.90921271687E-01  0.55848648902E+01  0.51100000000E-03 0.  1.
         12    1    3    3    0    0  0.11827854971E+02 -0.10680849124E+01  0.18962725208E+01  0.12026421249E+02  0.00000000000E+00 0. -1.
</event>
<event>
 7    1  0.2497395E-009  0.4778727E+02  0.7816164E-02  0.1312668E+00
        -11   -1    0    0    0    0  0.00000000000E+00  0.00000000000E+00  0.45593999997E+02  0.45594000000E+02  0.51100000000E-03 0.  1.
         11   -1    0    0    0    0 -0.00000000000E+00 -0.00000000000E+00 -0.45593999997E+02  0.45594000000E+02  0.51100000000E-03 0. -1.
    9900012    2    1    2    0    0 -0.34515730939E+02 -0.25221792901E+02  0.74932557652E+01  0.47787269576E+02  0.19999993304E+02 0.  0.
        -12    1    1    2    0    0  0.34515730939E+02  0.25221792901E+02 -0.74932557652E+01  0.43400730424E+02  0.00000000000E+00 0.  1.
         11    1    3    3    0    0 -0.45944399583E+01 -0.67088052896E+01 -0.52271652449E+01  0.96664473154E+01  0.51100000000E-03 0.  1.
        -11    1    3    3    0    0 -0.25394210026E+02 -0.17947000413E+02  0.12614666157E+02  0.33557272374E+02  0.51100000000E-03 0. -1.
        -12    1    3    3    0    0 -0.45270809546E+01 -0.56598719914E+00  0.10575485292E+00  0.45635498866E+01  0.00000000000E+00 0.  1.
</event>
<event>
 7    1  0.2497395E-009  0.4778727E+02  0.7816164E-02  0.1312668E+00
        -11   -1    0    0    0    0  0.00000000000E+00  0.00000000000E+00  0.45593999997E+02  0.45594000000E+02  0.51100000000E-03 0.  1.
         11   -1    0    0    0    0 -0.00000000000E+00 -0.00000000000E+00 -0.45593999997E+02  0.45594000000E+02  0.51100000000E-03 0. -1.
    9900012    2    1    2    0    0 -0.38851784898E+02  0.49963163982E+01 -0.18686861916E+02  0.47787272177E+02  0.20000005164E+02 0.  0.
        -12    1    1    2    0    0  0.38851784898E+02 -0.49963163982E+01  0.18686861916E+02  0.43400727823E+02  0.00000000000E+00 0.  1.
         11    1    3    3    0    0 -0.26549108065E+02  0.15420054630E+01 -0.50479620013E+01  0.27068705926E+02  0.51100000000E-03 0. -1.
        -11    1    3    3    0    0 -0.85352564679E+01  0.65009063112E+01 -0.88795534939E+01  0.13926911228E+02  0.51100000000E-03 0.  1.
         12    1    3    3    0    0 -0.37674203647E+01 -0.30465953760E+01 -0.47593464212E+01  0.67916550227E+01  0.00000000000E+00 0. -1.
</event>
<event>
 7    1  0.2497395E-009  0.4778727E+02  0.7816164E-02  0.1312668E+00
        -11   -1    0    0    0    0  0.00000000000E+00  0.00000000000E+00  0.45593999997E+02  0.45594000000E+02  0.51100000000E-03 0.  1.
         11   -1    0    0    0    0 -0.00000000000E+00 -0.00000000000E+00 -0.45593999997E+02  0.45594000000E+02  0.51100000000E-03 0. -1.
    9900012    2    1    2    0    0 -0.37558811067E+02  0.64854435915E+01 -0.20758079129E+02  0.47787272858E+02  0.20000008267E+02 0.  0.
        -12    1    1    2    0    0  0.37558811067E+02 -0.64854435915E+01  0.20758079129E+02  0.43400727142E+02  0.00000000000E+00 0.  1.
         11    1    3    3    0    0 -0.12660161376E+02  0.64833040310E+01 -0.21297069230E+01  0.14382231018E+02  0.51100000000E-03 0. -1.
        -11    1    3    3    0    0 -0.15767637811E+02 -0.24926613038E+00 -0.18447022572E+02  0.24268769598E+02  0.51100000000E-03 0.  1.
        -12    1    3    3    0    0 -0.91310118808E+01  0.25140569087E+00 -0.18134963342E+00  0.91362722419E+01  0.00000000000E+00 0.  1.
</event>
<event>
 7    1  0.2497395E-009  0.4778727E+02  0.7816164E-02  0.1312668E+00
        -11   -1    0    0    0    0  0.00000000000E+00  0.00000000000E+00  0.45593999997E+02  0.45594000000E+02  0.51100000000E-03 0.  1.
         11   -1    0    0    0    0 -0.00000000000E+00 -0.00000000000E+00 -0.45593999997E+02  0.45594000000E+02  0.51100000000E-03 0. -1.
    9900012    2    1    2    0    0 -0.28869833032E+02 -0.26766939230E+02 -0.18267110728E+02  0.47787266948E+02  0.19999981325E+02 0.  0.
        -12    1    1    2    0    0  0.28869833032E+02  0.26766939230E+02  0.18267110728E+02  0.43400733052E+02  0.00000000000E+00 0.  1.
         11    1    3    3    0    0 -0.14670660300E+02 -0.20200502741E+02 -0.10680862065E+02  0.27154546568E+02  0.51100000000E-03 0. -1.
        -11    1    3    3    0    0 -0.32869662275E+01  0.26120256483E+01  0.52003851551E+00  0.42305159599E+01  0.51100000000E-03 0.  1.
        -12    1    3    3    0    0 -0.10912206505E+02 -0.91784621373E+01 -0.81062871789E+01  0.16402204420E+02  0.00000000000E+00 0.  1.
</event>
<event>
 7    1  0.2497395E-009  0.4778724E+02  0.7816164E-02  0.1312668E+00
        -11   -1    0    0    0    0  0.00000000000E+00  0.00000000000E+00  0.45593999997E+02  0.45594000000E+02  0.51100000000E-03 0.  1.
         11   -1    0    0    0    0 -0.00000000000E+00 -0.00000000000E+00 -0.45593999997E+02  0.45594000000E+02  0.51100000000E-03 0. -1.
    9900012    2    1    2    0    0  0.11026399201E+02 -0.16067949236E+02 -0.38779709636E+02  0.47787235589E+02  0.19999838344E+02 0.  0.
        -12    1    1    2    0    0 -0.11026399201E+02  0.16067949236E+02  0.38779709636E+02  0.43400764411E+02  0.00000000000E+00 0.  1.
         11    1    3    3    0    0  0.70312546261E+01 -0.79587768405E+01 -0.38916793390E+01  0.11310430529E+02  0.51100000000E-03 0. -1.
        -11    1    3    3    0    0  0.24758217710E+01 -0.17958618547E+01 -0.20024426232E+02  0.20256664568E+02  0.51100000000E-03 0.  1.
         12    1    3    3    0    0  0.15193228035E+01 -0.63133105413E+01 -0.14863604066E+02  0.16220140492E+02  0.00000000000E+00 0. -1.
</event>
<event>
 7    1  0.2497395E-009  0.4778724E+02  0.7816164E-02  0.1312668E+00
        -11   -1    0    0    0    0  0.00000000000E+00  0.00000000000E+00  0.45593999997E+02  0.45594000000E+02  0.51100000000E-03 0.  1.
         11   -1    0    0    0    0 -0.00000000000E+00 -0.00000000000E+00 -0.45593999997E+02  0.45594000000E+02  0.51100000000E-03 0. -1.
    9900012    2    1    2    0    0 -0.31580162470E+02  0.15717922579E+02 -0.25283714086E+02  0.47787240216E+02  0.19999859442E+02 0.  0.
        -12    1    1    2    0    0  0.31580162470E+02 -0.15717922579E+02  0.25283714086E+02  0.43400759784E+02  0.00000000000E+00 0.  1.
         11    1    3    3    0    0 -0.25249018393E+02  0.98210975890E+01 -0.21978650869E+02  0.34885928137E+02  0.51100000000E-03 0. -1.
        -11    1    3    3    0    0 -0.49306904402E+01 -0.11944855655E+01 -0.32779881437E+00  0.50838918465E+01  0.51100000000E-03 0.  1.
         12    1    3    3    0    0 -0.14004536367E+01  0.70913105551E+01 -0.29772644023E+01  0.78174202330E+01  0.00000000000E+00 0. -1.
</event>
<event>
 7    1  0.2497395E-009  0.4778724E+02  0.7816164E-02  0.1312668E+00
        -11   -1    0    0    0    0  0.00000000000E+00  0.00000000000E+00  0.45593999997E+02  0.45594000000E+02  0.51100000000E-03 0. -1.
         11   -1    0    0    0    0 -0.00000000000E+00 -0.00000000000E+00 -0.45593999997E+02  0.45594000000E+02  0.51100000000E-03 0.  1.
    9900012    2    1    2    0    0 -0.16911245571E+02  0.37210267598E+02  0.14595611958E+02  0.47787238142E+02  0.19999849983E+02 0.  0.
        -12    1    1    2    0    0  0.16911245571E+02 -0.37210267598E+02 -0.14595611958E+02  0.43400761858E+02  0.00000000000E+00 0.  1.
         11    1    3    3    0    0 -0.26474409196E+01  0.11058429652E+02  0.12976700347E+02  0.17253769499E+02  0.51100000000E-03 0.  1.
        -11    1    3    3    0    0 -0.99333553185E+01  0.14427078383E+02  0.35897970718E+01  0.17880122534E+02  0.51100000000E-03 0. -1.
        -12    1    3    3    0    0 -0.43304493331E+01  0.11724759563E+02 -0.19708854608E+01  0.12653346108E+02  0.00000000000E+00 0.  1.
</event>
<event>
 7    1  0.2497395E-009  0.4778733E+02  0.7816164E-02  0.1312668E+00
        -11   -1    0    0    0    0  0.00000000000E+00  0.00000000000E+00  0.45593999997E+02  0.45594000000E+02  0.51100000000E-03 0.  1.
         11   -1    0    0    0    0 -0.00000000000E+00 -0.00000000000E+00 -0.45593999997E+02  0.45594000000E+02  0.51100000000E-03 0. -1.
    9900012    2    1    2    0    0 -0.34253266510E+00 -0.24476417285E+02 -0.35838613265E+02  0.47787325668E+02  0.20000249047E+02 0.  0.
        -12    1    1    2    0    0  0.34253266510E+00  0.24476417285E+02  0.35838613265E+02  0.43400674332E+02  0.00000000000E+00 0.  1.
         11    1    3    3    0    0 -0.10999943172E+01 -0.43576273352E+01 -0.30544362287E+01  0.54340118169E+01  0.51100000000E-03 0. -1.
        -11    1    3    3    0    0  0.72743252748E+00 -0.20567478790E+02 -0.17364945867E+02  0.26927526568E+02  0.51100000000E-03 0.  1.
        -12    1    3    3    0    0  0.30029124637E-01  0.44868884012E+00 -0.15419231169E+02  0.15425787282E+02  0.00000000000E+00 0.  1.
</event>
<event>
 7    1  0.2497395E-009  0.4778727E+02  0.7816164E-02  0.1312668E+00
        -11   -1    0    0    0    0  0.00000000000E+00  0.00000000000E+00  0.45593999997E+02  0.45594000000E+02  0.51100000000E-03 0.  1.
         11   -1    0    0    0    0 -0.00000000000E+00 -0.00000000000E+00 -0.45593999997E+02  0.45594000000E+02  0.51100000000E-03 0. -1.
    9900012    2    1    2    0    0 -0.15972255526E+02 -0.25318696697E+02 -0.31424096258E+02  0.47787272188E+02  0.20000005212E+02 0.  0.
        -12    1    1    2    0    0  0.15972255526E+02  0.25318696697E+02  0.31424096258E+02  0.43400727812E+02  0.00000000000E+00 0.  1.
         11    1    3    3    0    0 -0.18324098762E+02 -0.19091582650E+02 -0.22145931936E+02  0.34506570752E+02  0.51100000000E-03 0. -1.
        -11    1    3    3    0    0  0.36706394103E+01 -0.31791410337E+01 -0.86220412092E+01  0.98954598815E+01  0.51100000000E-03 0.  1.
        -12    1    3    3    0    0 -0.13187961739E+01 -0.30479730131E+01 -0.65612311311E+00  0.33852415536E+01  0.00000000000E+00 0.  1.
</event>
<event>
 7    1  0.2497395E-009  0.4778727E+02  0.7816164E-02  0.1312668E+00
        -11   -1    0    0    0    0  0.00000000000E+00  0.00000000000E+00  0.45593999997E+02  0.45594000000E+02  0.51100000000E-03 0. -1.
         11   -1    0    0    0    0 -0.00000000000E+00 -0.00000000000E+00 -0.45593999997E+02  0.45594000000E+02  0.51100000000E-03 0.  1.
    9900012    2    1    2    0    0 -0.12915815361E+02  0.48449586195E+01  0.41150108270E+02  0.47787270501E+02  0.19999997521E+02 0.  0.
        -12    1    1    2    0    0  0.12915815361E+02 -0.48449586195E+01 -0.41150108270E+02  0.43400729499E+02  0.00000000000E+00 0.  1.
         11    1    3    3    0    0  0.43490043095E+01 -0.14564527931E+01  0.75305384566E+01  0.88172616458E+01  0.51100000000E-03 0. -1.
        -11    1    3    3    0    0 -0.14135270986E+01  0.31298883266E+01  0.75633512360E+01  0.83065360997E+01  0.51100000000E-03 0.  1.
         12    1    3    3    0    0 -0.15851292572E+02  0.31715230860E+01  0.26056218577E+02  0.30663472755E+02  0.00000000000E+00 0. -1.
</event>
<event>
 7    1  0.2497395E-009  0.4778728E+02  0.7816164E-02  0.1312668E+00
        -11   -1    0    0    0    0  0.00000000000E+00  0.00000000000E+00  0.45593999997E+02  0.45594000000E+02  0.51100000000E-03 0.  1.
         11   -1    0    0    0    0 -0.00000000000E+00 -0.00000000000E+00 -0.45593999997E+02  0.45594000000E+02  0.51100000000E-03 0. -1.
    9900012    2    1    2    0    0  0.58036283915E+01 -0.37181880097E+02 -0.21620544623E+02  0.47787282726E+02  0.20000053261E+02 0.  0.
        -12    1    1    2    0    0 -0.58036283915E+01  0.37181880097E+02  0.21620544623E+02  0.43400717274E+02  0.00000000000E+00 0.  1.
         11    1    3    3    0    0  0.36349524703E+01 -0.28370685879E+02 -0.10784941483E+02  0.30568344079E+02  0.51100000000E-03 0. -1.
        -11    1    3    3    0    0  0.69248536982E+00 -0.29669825962E+01 -0.10768072460E+02  0.11190795614E+02  0.51100000000E-03 0.  1.
        -12    1    3    3    0    0  0.14761905514E+01 -0.58442116223E+01 -0.67530680860E-01  0.60281430327E+01  0.00000000000E+00 0.  1.
</event>
<event>
 7    1  0.2497395E-009  0.4778728E+02  0.7816164E-02  0.1312668E+00
        -11   -1    0    0    0    0  0.00000000000E+00  0.00000000000E+00  0.45593999997E+02  0.45594000000E+02  0.51100000000E-03 0.  1.
         11   -1    0    0    0    0 -0.00000000000E+00 -0.00000000000E+00 -0.45593999997E+02  0.45594000000E+02  0.51100000000E-03 0. -1.
    9900012    2    1    2    0    0 -0.29049026970E+02 -0.21778899154E+02 -0.23779319442E+02  0.47787280543E+02  0.20000043307E+02 0.  0.
        -12    1    1    2    0    0  0.29049026970E+02  0.21778899154E+02  0.23779319442E+02  0.43400719457E+02  0.00000000000E+00 0.  1.
         11    1    3    3    0    0 -0.31241184227E+01 -0.11131885047E+02 -0.11069431559E+02  0.16006601635E+02  0.51100000000E-03 0. -1.
        -11    1    3    3    0    0 -0.98412946962E+01 -0.12883250479E+00 -0.53478550526E+01  0.11201215695E+02  0.51100000000E-03 0.  1.
         12    1    3    3    0    0 -0.16083613851E+02 -0.10518181602E+02 -0.73620328308E+01  0.20579463213E+02  0.00000000000E+00 0. -1.
</event>
<event>
 7    1  0.2497395E-009  0.4778727E+02  0.7816164E-02  0.1312668E+00
        -11   -1    0    0    0    0  0.00000000000E+00  0.00000000000E+00  0.45593999997E+02  0.45594000000E+02  0.51100000000E-03 0.  1.
         11   -1    0    0    0    0 -0.00000000000E+00 -0.00000000000E+00 -0.45593999997E+02  0.45594000000E+02  0.51100000000E-03 0. -1.
    9900012    2    1    2    0    0 -0.22750088772E+02 -0.36841205858E+02  0.29634703378E+01  0.47787272534E+02  0.20000006790E+02 0.  0.
        -12    1    1    2    0    0  0.22750088772E+02  0.36841205858E+02 -0.29634703378E+01  0.43400727466E+02  0.00000000000E+00 0.  1.
         11    1    3    3    0    0 -0.12356430596E+02 -0.11896981760E+02 -0.57804814576E+01  0.18100649663E+02  0.51100000000E-03 0. -1.
        -11    1    3    3    0    0 -0.78068406206E+01 -0.20199725756E+02  0.10415174807E+02  0.24030221547E+02  0.51100000000E-03 0.  1.
        -12    1    3    3    0    0 -0.25868175548E+01 -0.47444983422E+01 -0.16712230113E+01  0.56564013237E+01  0.00000000000E+00 0.  1.
</event>
<event>
 7    1  0.2497395E-009  0.4778727E+02  0.7816164E-02  0.1312668E+00
        -11   -1    0    0    0    0  0.00000000000E+00  0.00000000000E+00  0.45593999997E+02  0.45594000000E+02  0.51100000000E-03 0.  1.
         11   -1    0    0    0    0 -0.00000000000E+00 -0.00000000000E+00 -0.45593999997E+02  0.45594000000E+02  0.51100000000E-03 0. -1.
    9900012    2    1    2    0    0  0.41511271492E+02 -0.74176169727E+01 -0.10267258279E+02  0.47787270801E+02  0.19999998891E+02 0.  0.
        -12    1    1    2    0    0 -0.41511271492E+02  0.74176169727E+01  0.10267258279E+02  0.43400729199E+02  0.00000000000E+00 0.  1.
         11    1    3    3    0    0  0.29621784816E+02 -0.66361340927E+01 -0.14543219615E+02  0.33659971010E+02  0.51100000000E-03 0. -1.
        -11    1    3    3    0    0  0.94867217222E+01  0.94242329685E+00  0.54083693364E+01  0.10960680173E+02  0.51100000000E-03 0.  1.
        -12    1    3    3    0    0  0.24027649542E+01 -0.17239061768E+01 -0.11324080001E+01  0.31666196188E+01  0.00000000000E+00 0.  1.
</event>
<event>
 7    1  0.2497395E-009  0.4778727E+02  0.7816164E-02  0.1312668E+00
        -11   -1    0    0    0    0  0.00000000000E+00  0.00000000000E+00  0.45593999997E+02  0.45594000000E+02  0.51100000000E-03 0.  1.
         11   -1    0    0    0    0 -0.00000000000E+00 -0.00000000000E+00 -0.45593999997E+02  0.45594000000E+02  0.51100000000E-03 0. -1.
    9900012    2    1    2    0    0 -0.10708684816E+01  0.15186391814E+02 -0.40642958103E+02  0.47787270755E+02  0.19999998679E+02 0.  0.
        -12    1    1    2    0    0  0.10708684816E+01 -0.15186391814E+02  0.40642958103E+02  0.43400729245E+02  0.00000000000E+00 0.  1.
         11    1    3    3    0    0  0.75074831591E+00  0.13873968367E+02 -0.32591433061E+02  0.35429537543E+02  0.51100000000E-03 0. -1.
        -11    1    3    3    0    0  0.47626938084E+00  0.28730836511E+01  0.84924608947E+00  0.30335888599E+01  0.51100000000E-03 0.  1.
         12    1    3    3    0    0 -0.22978861783E+01 -0.15606602034E+01 -0.89007711313E+01  0.93241443517E+01  0.00000000000E+00 0. -1.
</event>
<event>
 7    1  0.2497395E-009  0.4778727E+02  0.7816164E-02  0.1312668E+00
        -11   -1    0    0    0    0  0.00000000000E+00  0.00000000000E+00  0.45593999997E+02  0.45594000000E+02  0.51100000000E-03 0. -1.
         11   -1    0    0    0    0 -0.00000000000E+00 -0.00000000000E+00 -0.45593999997E+02  0.45594000000E+02  0.51100000000E-03 0.  1.
    9900012    2    1    2    0    0 -0.37578210912E+02  0.32033902142E+01 -0.21476488911E+02  0.47787271663E+02  0.20000002821E+02 0.  0.
        -12    1    1    2    0    0  0.37578210912E+02 -0.32033902142E+01  0.21476488911E+02  0.43400728337E+02  0.00000000000E+00 0.  1.
         11    1    3    3    0    0 -0.24066854244E+02  0.76919731670E+01 -0.11819512639E+02  0.27894099800E+02  0.51100000000E-03 0. -1.
        -11    1    3    3    0    0 -0.36558346386E+01 -0.34557408207E+01  0.12226169149E+01  0.51770709775E+01  0.51100000000E-03 0.  1.
        -12    1    3    3    0    0 -0.98555220303E+01 -0.10328421321E+01 -0.10879593187E+02  0.14716100885E+02  0.00000000000E+00 0.  1.
</event>
<event>
 7    1  0.2497395E-009  0.4778727E+02  0.7816164E-02  0.1312668E+00
        -11   -1    0    0    0    0  0.00000000000E+00  0.00000000000E+00  0.45593999997E+02  0.45594000000E+02  0.51100000000E-03 0. -1.
         11   -1    0    0    0    0 -0.00000000000E+00 -0.00000000000E+00 -0.45593999997E+02  0.45594000000E+02  0.51100000000E-03 0.  1.
    9900012    2    1    2    0    0 -0.15828243848E+02 -0.40347721574E+02  0.22695819973E+01  0.47787274868E+02  0.20000017434E+02 0.  0.
        -12    1    1    2    0    0  0.15828243848E+02  0.40347721574E+02 -0.22695819973E+01  0.43400725132E+02  0.00000000000E+00 0.  1.
         11    1    3    3    0    0 -0.12378497301E+02 -0.36198616871E+02  0.18082214858E+01  0.38299304484E+02  0.51100000000E-03 0. -1.
        -11    1    3    3    0    0  0.80688849185E+00  0.13431774222E+01  0.18264518280E+01  0.24064748424E+01  0.51100000000E-03 0.  1.
        -12    1    3    3    0    0 -0.42566350397E+01 -0.54922821254E+01 -0.13650913165E+01  0.70814955418E+01  0.00000000000E+00 0.  1.
</event>
<event>
 7    1  0.2497395E-009  0.4778726E+02  0.7816164E-02  0.1312668E+00
        -11   -1    0    0    0    0  0.00000000000E+00  0.00000000000E+00  0.45593999997E+02  0.45594000000E+02  0.51100000000E-03 0.  1.
         11   -1    0    0    0    0 -0.00000000000E+00 -0.00000000000E+00 -0.45593999997E+02  0.45594000000E+02  0.51100000000E-03 0. -1.
    9900012    2    1    2    0    0  0.25999417718E+02 -0.25373156457E+01 -0.34658565834E+02  0.47787264084E+02  0.19999968266E+02 0.  0.
        -12    1    1    2    0    0 -0.25999417718E+02  0.25373156457E+01  0.34658565834E+02  0.43400735916E+02  0.00000000000E+00 0.  1.
         11    1    3    3    0    0  0.87768959047E+01 -0.98370745396E+01 -0.17280542091E+02  0.21735203529E+02  0.51100000000E-03 0. -1.
        -11    1    3    3    0    0  0.12896919226E+02  0.56556134479E+01 -0.15795002126E+02  0.21161251887E+02  0.51100000000E-03 0.  1.
        -12    1    3    3    0    0  0.43256025875E+01  0.16441454459E+01 -0.15830216163E+01  0.48908086683E+01  0.00000000000E+00 0.  1.
</event>
<event>
 7    1  0.2497395E-009  0.4778727E+02  0.7816164E-02  0.1312668E+00
        -11   -1    0    0    0    0  0.00000000000E+00  0.00000000000E+00  0.45593999997E+02  0.45594000000E+02  0.51100000000E-03 0. -1.
         11   -1    0    0    0    0 -0.00000000000E+00 -0.00000000000E+00 -0.45593999997E+02  0.45594000000E+02  0.51100000000E-03 0.  1.
    9900012    2    1    2    0    0  0.23904241555E+02  0.31893133239E+02  0.17176685570E+02  0.47787271443E+02  0.20000001817E+02 0.  0.
        -12    1    1    2    0    0 -0.23904241555E+02 -0.31893133239E+02 -0.17176685570E+02  0.43400728557E+02  0.00000000000E+00 0.  1.
         11    1    3    3    0    0  0.14433069716E+02  0.24390450673E+02  0.42933867110E+01  0.28664276638E+02  0.51100000000E-03 0. -1.
        -11    1    3    3    0    0  0.94004418159E+01  0.34998774226E+01  0.81554204090E+01  0.12927812290E+02  0.51100000000E-03 0.  1.
         12    1    3    3    0    0  0.70730022993E-01  0.40028051432E+01  0.47278784504E+01  0.61951825149E+01  0.00000000000E+00 0. -1.
</event>
<event>
 7    1  0.2497395E-009  0.4778728E+02  0.7816164E-02  0.1312668E+00
        -11   -1    0    0    0    0  0.00000000000E+00  0.00000000000E+00  0.45593999997E+02  0.45594000000E+02  0.51100000000E-03 0. -1.
         11   -1    0    0    0    0 -0.00000000000E+00 -0.00000000000E+00 -0.45593999997E+02  0.45594000000E+02  0.51100000000E-03 0.  1.
    9900012    2    1    2    0    0 -0.39394448710E+02 -0.10867768706E+02  0.14614783078E+02  0.47787275695E+02  0.20000021204E+02 0.  0.
        -12    1    1    2    0    0  0.39394448710E+02  0.10867768706E+02 -0.14614783078E+02  0.43400724305E+02  0.00000000000E+00 0.  1.
         11    1    3    3    0    0 -0.32047076430E+02 -0.58177959609E+01  0.14908013006E+02  0.35820534748E+02  0.51100000000E-03 0. -1.
        -11    1    3    3    0    0  0.16949037060E+01 -0.29146644393E+00  0.23177418014E+00  0.17353301681E+01  0.51100000000E-03 0.  1.
        -12    1    3    3    0    0 -0.90422759855E+01 -0.47585063011E+01 -0.52500410828E+00  0.10231410779E+02  0.00000000000E+00 0.  1.
</event>
<event>
 7    1  0.2497395E-009  0.4778726E+02  0.7816164E-02  0.1312668E+00
        -11   -1    0    0    0    0  0.00000000000E+00  0.00000000000E+00  0.45593999997E+02  0.45594000000E+02  0.51100000000E-03 0.  1.
         11   -1    0    0    0    0 -0.00000000000E+00 -0.00000000000E+00 -0.45593999997E+02  0.45594000000E+02  0.51100000000E-03 0. -1.
    9900012    2    1    2    0    0 -0.21675416790E+02  0.43010745625E+01 -0.37353727450E+02  0.47787263948E+02  0.19999967644E+02 0.  0.
        -12    1    1    2    0    0  0.21675416790E+02 -0.43010745625E+01  0.37353727450E+02  0.43400736052E+02  0.00000000000E+00 0.  1.
         11    1    3    3    0    0 -0.11716091691E+01  0.28404530775E+01 -0.17811339460E+02  0.18074419917E+02  0.51100000000E-03 0.  1.
        -11    1    3    3    0    0 -0.13716629656E+02 -0.28129220598E+01 -0.97859365712E+01  0.17082828059E+02  0.51100000000E-03 0. -1.
         12    1    3    3    0    0 -0.67871779651E+01  0.42735435449E+01 -0.97564514195E+01  0.12630015972E+02  0.00000000000E+00 0. -1.
</event>
<event>
 7    1  0.2497395E-009  0.4778727E+02  0.7816164E-02  0.1312668E+00
        -11   -1    0    0    0    0  0.00000000000E+00  0.00000000000E+00  0.45593999997E+02  0.45594000000E+02  0.51100000000E-03 0.  1.
         11   -1    0    0    0    0 -0.00000000000E+00 -0.00000000000E+00 -0.45593999997E+02  0.45594000000E+02  0.51100000000E-03 0. -1.
    9900012    2    1    2    0    0  0.93641856017E+00 -0.35361118201E+02 -0.25146331670E+02  0.47787267787E+02  0.19999985148E+02 0.  0.
        -12    1    1    2    0    0 -0.93641856017E+00  0.35361118201E+02  0.25146331670E+02  0.43400732213E+02  0.00000000000E+00 0.  1.
         11    1    3    3    0    0  0.27029585490E+01 -0.35119414973E+02 -0.21553358304E+02  0.41294388812E+02  0.51100000000E-03 0. -1.
        -11    1    3    3    0    0  0.15036612956E+01 -0.53635590266E+00 -0.26204043750E+01  0.30684188593E+01  0.51100000000E-03 0.  1.
         12    1    3    3    0    0 -0.32702012845E+01  0.29465267441E+00 -0.97256899141E+00  0.34244601155E+01  0.00000000000E+00 0. -1.
</event>
<event>
 7    1  0.2497395E-009  0.4778728E+02  0.7816164E-02  0.1312668E+00
        -11   -1    0    0    0    0  0.00000000000E+00  0.00000000000E+00  0.45593999997E+02  0.45594000000E+02  0.51100000000E-03 0.  1.
         11   -1    0    0    0    0 -0.00000000000E+00 -0.00000000000E+00 -0.45593999997E+02  0.45594000000E+02  0.51100000000E-03 0. -1.
    9900012    2    1    2    0    0 -0.21671648804E+02 -0.33206101866E+02 -0.17644170141E+02  0.47787282230E+02  0.20000050998E+02 0.  0.
        -12    1    1    2    0    0  0.21671648804E+02  0.33206101866E+02  0.17644170141E+02  0.43400717770E+02  0.00000000000E+00 0.  1.
         11    1    3    3    0    0 -0.15877336461E+01  0.51945922595E+00 -0.97561400439E+00  0.19345694521E+01  0.51100000000E-03 0. -1.
        -11    1    3    3    0    0 -0.20119650215E+02 -0.19858234232E+02 -0.14648122859E+02  0.31838927355E+02  0.51100000000E-03 0.  1.
        -12    1    3    3    0    0  0.35735056770E-01 -0.13867326860E+02 -0.20204332775E+01  0.14013785422E+02  0.00000000000E+00 0.  1.
</event>
<event>
 7    1  0.2497395E-009  0.4778727E+02  0.7816164E-02  0.1312668E+00
        -11   -1    0    0    0    0  0.00000000000E+00  0.00000000000E+00  0.45593999997E+02  0.45594000000E+02  0.51100000000E-03 0.  1.
         11   -1    0    0    0    0 -0.00000000000E+00 -0.00000000000E+00 -0.45593999997E+02  0.45594000000E+02  0.51100000000E-03 0. -1.
    9900012    2    1    2    0    0 -0.28515491520E+02 -0.21702516600E+02 -0.24484501362E+02  0.47787270855E+02  0.19999999136E+02 0.  0.
        -12    1    1    2    0    0  0.28515491520E+02  0.21702516600E+02  0.24484501362E+02  0.43400729145E+02  0.00000000000E+00 0.  1.
         11    1    3    3    0    0 -0.26692556204E+02 -0.24305514688E+02 -0.22059169007E+02  0.42306707961E+02  0.51100000000E-03 0. -1.
        -11    1    3    3    0    0 -0.13368407071E+01  0.20825597999E+01 -0.34420015579E+01  0.42392892543E+01  0.51100000000E-03 0.  1.
         12    1    3    3    0    0 -0.48609460948E+00  0.52043828875E+00  0.10166692027E+01  0.12412736401E+01  0.00000000000E+00 0. -1.
</event>
<event>
 7    1  0.2497395E-009  0.4778727E+02  0.7816164E-02  0.1312668E+00
        -11   -1    0    0    0    0  0.00000000000E+00  0.00000000000E+00  0.45593999997E+02  0.45594000000E+02  0.51100000000E-03 0. -1.
         11   -1    0    0    0    0 -0.00000000000E+00 -0.00000000000E+00 -0.45593999997E+02  0.45594000000E+02  0.51100000000E-03 0.  1.
    9900012    2    1    2    0    0 -0.43291274076E+02 -0.16838729879E+01  0.25794611259E+01  0.47787268911E+02  0.19999990274E+02 0.  0.
        -12    1    1    2    0    0  0.43291274076E+02  0.16838729879E+01 -0.25794611259E+01  0.43400731089E+02  0.00000000000E+00 0.  1.
         11    1    3    3    0    0 -0.15242652546E+02  0.73449658269E+01  0.39014725322E+01  0.17363999189E+02  0.51100000000E-03 0. -1.
        -11    1    3    3    0    0 -0.25672901893E+02 -0.90801428276E+01 -0.31669147090E+01  0.27414890742E+02  0.51100000000E-03 0.  1.
         12    1    3    3    0    0 -0.23757196367E+01  0.51304012813E-01  0.18449033026E+01  0.30083789805E+01  0.00000000000E+00 0. -1.
</event>
<event>
 7    1  0.2497395E-009  0.4778727E+02  0.7816164E-02  0.1312668E+00
        -11   -1    0    0    0    0  0.00000000000E+00  0.00000000000E+00  0.45593999997E+02  0.45594000000E+02  0.51100000000E-03 0.  1.
         11   -1    0    0    0    0 -0.00000000000E+00 -0.00000000000E+00 -0.45593999997E+02  0.45594000000E+02  0.51100000000E-03 0. -1.
    9900012    2    1    2    0    0 -0.21015163284E+02 -0.16571467917E+02 -0.34166832028E+02  0.47787273651E+02  0.20000011885E+02 0.  0.
        -12    1    1    2    0    0  0.21015163284E+02  0.16571467917E+02  0.34166832028E+02  0.43400726349E+02  0.00000000000E+00 0.  1.
         11    1    3    3    0    0 -0.47040850065E+01 -0.68389342450E+01 -0.92467120312E+01  0.12425824762E+02  0.51100000000E-03 0. -1.
        -11    1    3    3    0    0 -0.18603944206E+02 -0.86237145338E+01 -0.15783586751E+02  0.25876568617E+02  0.51100000000E-03 0.  1.
        -12    1    3    3    0    0  0.22928659282E+01 -0.11088191381E+01 -0.91365332456E+01  0.94848802730E+01  0.00000000000E+00 0.  1.
</event>
<event>
 7    1  0.2497395E-009  0.4778727E+02  0.7816164E-02  0.1312668E+00
        -11   -1    0    0    0    0  0.00000000000E+00  0.00000000000E+00  0.45593999997E+02  0.45594000000E+02  0.51100000000E-03 0.  1.
         11   -1    0    0    0    0 -0.00000000000E+00 -0.00000000000E+00 -0.45593999997E+02  0.45594000000E+02  0.51100000000E-03 0. -1.
    9900012    2    1    2    0    0  0.40566062858E+02 -0.19675447097E+01 -0.15301849534E+02  0.47787270891E+02  0.19999999302E+02 0.  0.
        -12    1    1    2    0    0 -0.40566062858E+02  0.19675447097E+01  0.15301849534E+02  0.43400729109E+02  0.00000000000E+00 0.  1.
         11    1    3    3    0    0  0.13453891442E+02 -0.46296455300E+01 -0.91678209589E+01  0.16926008214E+02  0.51100000000E-03 0. -1.
        -11    1    3    3    0    0  0.25650951496E+02  0.35284537831E+01 -0.15116100735E+01  0.25936581580E+02  0.51100000000E-03 0.  1.
        -12    1    3    3    0    0  0.14612199197E+01 -0.86635296275E+00 -0.46224185012E+01  0.49246810973E+01  0.00000000000E+00 0.  1.
</event>
<event>
 7    1  0.2497395E-009  0.4778727E+02  0.7816164E-02  0.1312668E+00
        -11   -1    0    0    0    0  0.00000000000E+00  0.00000000000E+00  0.45593999997E+02  0.45594000000E+02  0.51100000000E-03 0.  1.
         11   -1    0    0    0    0 -0.00000000000E+00 -0.00000000000E+00 -0.45593999997E+02  0.45594000000E+02  0.51100000000E-03 0. -1.
    9900012    2    1    2    0    0 -0.41547725086E+02 -0.62867528231E+01 -0.10857563059E+02  0.47787269632E+02  0.19999993560E+02 0.  0.
        -12    1    1    2    0    0  0.41547725086E+02  0.62867528231E+01  0.10857563059E+02  0.43400730368E+02  0.00000000000E+00 0.  1.
         11    1    3    3    0    0  0.10379146582E+01  0.94968704053E+00 -0.38679854139E+00  0.14590358753E+01  0.51100000000E-03 0. -1.
        -11    1    3    3    0    0 -0.39642489947E+02 -0.78425494927E+01 -0.58726086875E+01  0.40835280393E+02  0.51100000000E-03 0.  1.
        -12    1    3    3    0    0 -0.29431497975E+01  0.60610962905E+00 -0.45981558303E+01  0.54929533634E+01  0.00000000000E+00 0.  1.
</event>
<event>
 7    1  0.2497395E-009  0.4778727E+02  0.7816164E-02  0.1312668E+00
        -11   -1    0    0    0    0  0.00000000000E+00  0.00000000000E+00  0.45593999997E+02  0.45594000000E+02  0.51100000000E-03 0. -1.
         11   -1    0    0    0    0 -0.00000000000E+00 -0.00000000000E+00 -0.45593999997E+02  0.45594000000E+02  0.51100000000E-03 0.  1.
    9900012    2    1    2    0    0 -0.14107808839E+02  0.26822748486E+02  0.31066593986E+02  0.47787269955E+02  0.19999995031E+02 0.  0.
        -12    1    1    2    0    0  0.14107808839E+02 -0.26822748486E+02 -0.31066593986E+02  0.43400730045E+02  0.00000000000E+00 0.  1.
         11    1    3    3    0    0 -0.33668078458E+01  0.11558251103E+02  0.30838058210E+01  0.12427325627E+02  0.51100000000E-03 0.  1.
        -11    1    3    3    0    0 -0.11510206390E+02  0.74252317207E+01  0.18819126916E+02  0.23276134890E+02  0.51100000000E-03 0. -1.
         12    1    3    3    0    0  0.76920539612E+00  0.78392656615E+01  0.91636612488E+01  0.12083809438E+02  0.00000000000E+00 0. -1.
</event>
<event>
 7    1  0.2497395E-009  0.4778727E+02  0.7816164E-02  0.1312668E+00
        -11   -1    0    0    0    0  0.00000000000E+00  0.00000000000E+00  0.45593999997E+02  0.45594000000E+02  0.51100000000E-03 0. -1.
         11   -1    0    0    0    0 -0.00000000000E+00 -0.00000000000E+00 -0.45593999997E+02  0.45594000000E+02  0.51100000000E-03 0.  1.
    9900012    2    1    2    0    0 -0.31964771995E+02 -0.23306350633E+02  0.17851901459E+02  0.47787274036E+02  0.20000013639E+02 0.  0.
        -12    1    1    2    0    0  0.31964771995E+02  0.23306350633E+02 -0.17851901459E+02  0.43400725964E+02  0.00000000000E+00 0.  1.
         11    1    3    3    0    0 -0.52847119180E+00 -0.38257867853E+01  0.25216159852E+01  0.46124260173E+01  0.51100000000E-03 0. -1.
        -11    1    3    3    0    0 -0.56313647073E+01 -0.11263464714E+02  0.12585047122E+01  0.12655502369E+02  0.51100000000E-03 0.  1.
        -12    1    3    3    0    0 -0.25804936096E+02 -0.82170991335E+01  0.14071780761E+02  0.30519345650E+02  0.00000000000E+00 0.  1.
</event>
<event>
 7    1  0.2497395E-009  0.4778725E+02  0.7816164E-02  0.1312668E+00
        -11   -1    0    0    0    0  0.00000000000E+00  0.00000000000E+00  0.45593999997E+02  0.45594000000E+02  0.51100000000E-03 0.  1.
         11   -1    0    0    0    0 -0.00000000000E+00 -0.00000000000E+00 -0.45593999997E+02  0.45594000000E+02  0.51100000000E-03 0. -1.
    9900012    2    1    2    0    0 -0.45045955851E+01 -0.15103357478E+02 -0.40437878125E+02  0.47787253742E+02  0.19999921111E+02 0.  0.
        -12    1    1    2    0    0  0.45045955851E+01  0.15103357478E+02  0.40437878125E+02  0.43400746258E+02  0.00000000000E+00 0.  1.
         11    1    3    3    0    0 -0.40736465836E+01 -0.75724633023E+01 -0.31275601087E+02  0.32436091327E+02  0.51100000000E-03 0. -1.
        -11    1    3    3    0    0  0.14900933609E+01  0.13432197996E+01 -0.49517968197E+01  0.53427436453E+01  0.51100000000E-03 0.  1.
         12    1    3    3    0    0 -0.19210423625E+01 -0.88741139752E+01 -0.42104802186E+01  0.10008418770E+02  0.00000000000E+00 0. -1.
</event>
<event>
 7    1  0.2497395E-009  0.4778727E+02  0.7816164E-02  0.1312668E+00
        -11   -1    0    0    0    0  0.00000000000E+00  0.00000000000E+00  0.45593999997E+02  0.45594000000E+02  0.51100000000E-03 0.  1.
         11   -1    0    0    0    0 -0.00000000000E+00 -0.00000000000E+00 -0.45593999997E+02  0.45594000000E+02  0.51100000000E-03 0. -1.
    9900012    2    1    2    0    0  0.34155269005E+02 -0.12707494959E+02 -0.23570330341E+02  0.47787270728E+02  0.19999998558E+02 0.  0.
        -12    1    1    2    0    0 -0.34155269005E+02  0.12707494959E+02  0.23570330341E+02  0.43400729272E+02  0.00000000000E+00 0.  1.
         11    1    3    3    0    0  0.26200316663E+02 -0.86065091991E+01 -0.14700430162E+02  0.31251099837E+02  0.51100000000E-03 0. -1.
        -11    1    3    3    0    0  0.17889945801E+00  0.27095160341E+01 -0.46218236021E+01  0.53604790668E+01  0.51100000000E-03 0.  1.
        -12    1    3    3    0    0  0.77760528848E+01 -0.68105017940E+01 -0.42480765771E+01  0.11175691825E+02  0.00000000000E+00 0.  1.
</event>
<event>
 7    1  0.2497395E-009  0.4778727E+02  0.7816164E-02  0.1312668E+00
        -11   -1    0    0    0    0  0.00000000000E+00  0.00000000000E+00  0.45593999997E+02  0.45594000000E+02  0.51100000000E-03 0.  1.
         11   -1    0    0    0    0 -0.00000000000E+00 -0.00000000000E+00 -0.45593999997E+02  0.45594000000E+02  0.51100000000E-03 0. -1.
    9900012    2    1    2    0    0 -0.31065504906E+01  0.29040024427E+02 -0.32103734332E+02  0.47787269214E+02  0.19999991655E+02 0.  0.
        -12    1    1    2    0    0  0.31065504906E+01 -0.29040024427E+02  0.32103734332E+02  0.43400730786E+02  0.00000000000E+00 0.  1.
         11    1    3    3    0    0 -0.42124810081E+01  0.22854832740E+01 -0.67829868344E+01  0.83052598211E+01  0.51100000000E-03 0. -1.
        -11    1    3    3    0    0  0.33581942176E+01  0.27586372629E+02 -0.24119894662E+02  0.36797482822E+02  0.51100000000E-03 0.  1.
        -12    1    3    3    0    0 -0.22522637002E+01 -0.83183147597E+00 -0.12008528359E+01  0.26845265715E+01  0.00000000000E+00 0.  1.
</event>
<event>
 7    1  0.2497395E-009  0.4778726E+02  0.7816164E-02  0.1312668E+00
        -11   -1    0    0    0    0  0.00000000000E+00  0.00000000000E+00  0.45593999997E+02  0.45594000000E+02  0.51100000000E-03 0.  1.
         11   -1    0    0    0    0 -0.00000000000E+00 -0.00000000000E+00 -0.45593999997E+02  0.45594000000E+02  0.51100000000E-03 0. -1.
    9900012    2    1    2    0    0  0.33816732747E+02 -0.17190823679E+01 -0.27149535947E+02  0.47787263139E+02  0.19999963957E+02 0.  0.
        -12    1    1    2    0    0 -0.33816732747E+02  0.17190823679E+01  0.27149535947E+02  0.43400736861E+02  0.00000000000E+00 0.  1.
         11    1    3    3    0    0  0.19943593398E+01 -0.13857883701E+01  0.15248479570E+01  0.28675843729E+01  0.51100000000E-03 0. -1.
        -11    1    3    3    0    0  0.22851340481E+02  0.22986643035E+01 -0.26957266311E+02  0.35414147267E+02  0.51100000000E-03 0.  1.
        -12    1    3    3    0    0  0.89710329264E+01 -0.26319583012E+01 -0.17171175927E+01  0.95055314998E+01  0.00000000000E+00 0.  1.
</event>
<event>
 7    1  0.2497395E-009  0.4778727E+02  0.7816164E-02  0.1312668E+00
        -11   -1    0    0    0    0  0.00000000000E+00  0.00000000000E+00  0.45593999997E+02  0.45594000000E+02  0.51100000000E-03 0. -1.
         11   -1    0    0    0    0 -0.00000000000E+00 -0.00000000000E+00 -0.45593999997E+02  0.45594000000E+02  0.51100000000E-03 0.  1.
    9900012    2    1    2    0    0 -0.10684643491E+02 -0.42020225904E+02 -0.19395936853E+01  0.47787274025E+02  0.20000013588E+02 0.  0.
        -12    1    1    2    0    0  0.10684643491E+02  0.42020225904E+02  0.19395936853E+01  0.43400725975E+02  0.00000000000E+00 0.  1.
         11    1    3    3    0    0 -0.39652171444E+01 -0.10264122424E-01 -0.43256023406E-01  0.39654663912E+01  0.51100000000E-03 0. -1.
        -11    1    3    3    0    0 -0.30158204444E+01 -0.84323369287E+01 -0.43412599360E+01  0.99521865499E+01  0.51100000000E-03 0.  1.
         12    1    3    3    0    0 -0.37036059026E+01 -0.33577624852E+02  0.24449222741E+01  0.33869621084E+02  0.00000000000E+00 0. -1.
</event>
<event>
 7    1  0.2497395E-009  0.4778726E+02  0.7816164E-02  0.1312668E+00
        -11   -1    0    0    0    0  0.00000000000E+00  0.00000000000E+00  0.45593999997E+02  0.45594000000E+02  0.51100000000E-03 0.  1.
         11   -1    0    0    0    0 -0.00000000000E+00 -0.00000000000E+00 -0.45593999997E+02  0.45594000000E+02  0.51100000000E-03 0. -1.
    9900012    2    1    2    0    0 -0.11811738853E+02 -0.19848169899E+02 -0.36744480520E+02  0.47787264156E+02  0.19999968593E+02 0.  0.
        -12    1    1    2    0    0  0.11811738853E+02  0.19848169899E+02  0.36744480520E+02  0.43400735844E+02  0.00000000000E+00 0.  1.
         11    1    3    3    0    0 -0.40209792216E+01 -0.14160962589E+02 -0.22047260566E+02  0.26510051567E+02  0.51100000000E-03 0. -1.
        -11    1    3    3    0    0 -0.85606639556E+01  0.89034804712E+00 -0.67876586720E+01  0.10961295430E+02  0.51100000000E-03 0.  1.
        -12    1    3    3    0    0  0.76990432393E+00 -0.65775553575E+01 -0.79095612824E+01  0.10315917159E+02  0.00000000000E+00 0.  1.
</event>
<event>
 7    1  0.2497395E-009  0.4778727E+02  0.7816164E-02  0.1312668E+00
        -11   -1    0    0    0    0  0.00000000000E+00  0.00000000000E+00  0.45593999997E+02  0.45594000000E+02  0.51100000000E-03 0.  1.
         11   -1    0    0    0    0 -0.00000000000E+00 -0.00000000000E+00 -0.45593999997E+02  0.45594000000E+02  0.51100000000E-03 0. -1.
    9900012    2    1    2    0    0  0.15008059226E+02  0.75252701392E+01 -0.40021888437E+02  0.47787273203E+02  0.20000009843E+02 0.  0.
        -12    1    1    2    0    0 -0.15008059226E+02 -0.75252701392E+01  0.40021888437E+02  0.43400726797E+02  0.00000000000E+00 0.  1.
         11    1    3    3    0    0  0.76606298004E+01  0.45339417506E+01 -0.15957292755E+02  0.18272303333E+02  0.51100000000E-03 0. -1.
        -11    1    3    3    0    0  0.27609673445E+01 -0.70574414058E+00 -0.23415540372E+02  0.23588313773E+02  0.51100000000E-03 0.  1.
        -12    1    3    3    0    0  0.45864620813E+01  0.36970725291E+01 -0.64905530979E+00  0.59266560980E+01  0.00000000000E+00 0.  1.
</event>
<event>
 7    1  0.2497395E-009  0.4778728E+02  0.7816164E-02  0.1312668E+00
        -11   -1    0    0    0    0  0.00000000000E+00  0.00000000000E+00  0.45593999997E+02  0.45594000000E+02  0.51100000000E-03 0.  1.
         11   -1    0    0    0    0 -0.00000000000E+00 -0.00000000000E+00 -0.45593999997E+02  0.45594000000E+02  0.51100000000E-03 0. -1.
    9900012    2    1    2    0    0 -0.26436761715E+02  0.56457187756E+01 -0.33953590618E+02  0.47787276200E+02  0.20000023508E+02 0.  0.
        -12    1    1    2    0    0  0.26436761715E+02 -0.56457187756E+01  0.33953590618E+02  0.43400723800E+02  0.00000000000E+00 0.  1.
         11    1    3    3    0    0 -0.29807234681E+01 -0.22672737992E+01 -0.75545119788E+01  0.84318381373E+01  0.51100000000E-03 0. -1.
        -11    1    3    3    0    0 -0.31949602707E+01  0.66737724772E+01 -0.13231293746E+02  0.15159622181E+02  0.51100000000E-03 0.  1.
        -12    1    3    3    0    0 -0.20261077977E+02  0.12392200976E+01 -0.13167784893E+02  0.24195815882E+02  0.00000000000E+00 0.  1.
</event>
<event>
 7    1  0.2497395E-009  0.4778728E+02  0.7816164E-02  0.1312668E+00
        -11   -1    0    0    0    0  0.00000000000E+00  0.00000000000E+00  0.45593999997E+02  0.45594000000E+02  0.51100000000E-03 0.  1.
         11   -1    0    0    0    0 -0.00000000000E+00 -0.00000000000E+00 -0.45593999997E+02  0.45594000000E+02  0.51100000000E-03 0. -1.
    9900012    2    1    2    0    0 -0.12410406483E+02 -0.20056534271E+02 -0.36432676530E+02  0.47787277942E+02  0.20000031450E+02 0.  0.
        -12    1    1    2    0    0  0.12410406483E+02  0.20056534271E+02  0.36432676530E+02  0.43400722058E+02  0.00000000000E+00 0.  1.
         11    1    3    3    0    0 -0.11052085894E+00 -0.15045242555E+02 -0.23135927013E+02  0.27597874147E+02  0.51100000000E-03 0. -1.
        -11    1    3    3    0    0 -0.78440890423E+01 -0.22912939386E+01 -0.31114458411E+01  0.87441898595E+01  0.51100000000E-03 0.  1.
         12    1    3    3    0    0 -0.44557965814E+01 -0.27199977767E+01 -0.10185303676E+02  0.11445213936E+02  0.00000000000E+00 0. -1.
</event>
<event>
 7    1  0.2497395E-009  0.4778727E+02  0.7816164E-02  0.1312668E+00
        -11   -1    0    0    0    0  0.00000000000E+00  0.00000000000E+00  0.45593999997E+02  0.45594000000E+02  0.51100000000E-03 0.  1.
         11   -1    0    0    0    0 -0.00000000000E+00 -0.00000000000E+00 -0.45593999997E+02  0.45594000000E+02  0.51100000000E-03 0. -1.
    9900012    2    1    2    0    0 -0.32637954459E+02  0.30562661241E+01 -0.28443743406E+02  0.47787269904E+02  0.19999994800E+02 0.  0.
        -12    1    1    2    0    0  0.32637954459E+02 -0.30562661241E+01  0.28443743406E+02  0.43400730096E+02  0.00000000000E+00 0.  1.
         11    1    3    3    0    0 -0.23644330146E+02  0.18047080649E+01 -0.23405994183E+02  0.33318941808E+02  0.51100000000E-03 0. -1.
        -11    1    3    3    0    0 -0.25021505412E+00 -0.91251151142E+00  0.25317580404E+01  0.27027918654E+01  0.51100000000E-03 0.  1.
        -12    1    3    3    0    0 -0.87434092593E+01  0.21640695705E+01 -0.75695072636E+01  0.11765536231E+02  0.00000000000E+00 0.  1.
</event>
<event>
 7    1  0.2497395E-009  0.4778727E+02  0.7816164E-02  0.1312668E+00
        -11   -1    0    0    0    0  0.00000000000E+00  0.00000000000E+00  0.45593999997E+02  0.45594000000E+02  0.51100000000E-03 0.  1.
         11   -1    0    0    0    0 -0.00000000000E+00 -0.00000000000E+00 -0.45593999997E+02  0.45594000000E+02  0.51100000000E-03 0. -1.
    9900012    2    1    2    0    0  0.13862612272E+02  0.76419702526E+01 -0.40411037748E+02  0.47787266133E+02  0.19999977608E+02 0.  0.
        -12    1    1    2    0    0 -0.13862612272E+02 -0.76419702526E+01  0.40411037748E+02  0.43400733867E+02  0.00000000000E+00 0.  1.
         11    1    3    3    0    0  0.45057944121E+01  0.38499411064E+01 -0.35544727118E+00  0.59372192844E+01  0.51100000000E-03 0. -1.
        -11    1    3    3    0    0  0.41940970795E+01  0.35143701339E+01 -0.10445184657E+02  0.11791655122E+02  0.51100000000E-03 0.  1.
         12    1    3    3    0    0  0.51627207800E+01  0.27765901227E+00 -0.29610405820E+02  0.30058391727E+02  0.00000000000E+00 0. -1.
</event>
<event>
 7    1  0.2497395E-009  0.4778727E+02  0.7816164E-02  0.1312668E+00
        -11   -1    0    0    0    0  0.00000000000E+00  0.00000000000E+00  0.45593999997E+02  0.45594000000E+02  0.51100000000E-03 0. -1.
         11   -1    0    0    0    0 -0.00000000000E+00 -0.00000000000E+00 -0.45593999997E+02  0.45594000000E+02  0.51100000000E-03 0.  1.
    9900012    2    1    2    0    0 -0.23497244902E+02 -0.36463550426E+02  0.13827697745E+01  0.47787273279E+02  0.20000010189E+02 0.  0.
        -12    1    1    2    0    0  0.23497244902E+02  0.36463550426E+02 -0.13827697745E+01  0.43400726721E+02  0.00000000000E+00 0.  1.
         11    1    3    3    0    0 -0.19140263702E+02 -0.22950183281E+02 -0.21266600489E+01  0.29959694432E+02  0.51100000000E-03 0. -1.
        -11    1    3    3    0    0  0.10855251279E+01 -0.14677572072E+01 -0.26715600520E+01  0.32357239368E+01  0.51100000000E-03 0.  1.
         12    1    3    3    0    0 -0.54425063280E+01 -0.12045609937E+02  0.61809898754E+01  0.14591854911E+02  0.00000000000E+00 0. -1.
</event>
<event>
 7    1  0.2497395E-009  0.4778727E+02  0.7816164E-02  0.1312668E+00
        -11   -1    0    0    0    0  0.00000000000E+00  0.00000000000E+00  0.45593999997E+02  0.45594000000E+02  0.51100000000E-03 0.  1.
         11   -1    0    0    0    0 -0.00000000000E+00 -0.00000000000E+00 -0.45593999997E+02  0.45594000000E+02  0.51100000000E-03 0. -1.
    9900012    2    1    2    0    0 -0.12308701424E+02  0.79797900620E+01 -0.40846567381E+02  0.47787271354E+02  0.20000001412E+02 0.  0.
        -12    1    1    2    0    0  0.12308701424E+02 -0.79797900620E+01  0.40846567381E+02  0.43400728646E+02  0.00000000000E+00 0.  1.
         11    1    3    3    0    0 -0.11431804249E+02  0.63344281164E+01 -0.20697682398E+02  0.24478667955E+02  0.51100000000E-03 0. -1.
        -11    1    3    3    0    0 -0.53519489788E+00 -0.50140890627E+01 -0.82704089867E+01  0.96864435050E+01  0.51100000000E-03 0.  1.
        -12    1    3    3    0    0 -0.34170227661E+00  0.66594510083E+01 -0.11878475996E+02  0.13622159894E+02  0.00000000000E+00 0.  1.
</event>
<event>
 7    1  0.2497395E-009  0.4778727E+02  0.7816164E-02  0.1312668E+00
        -11   -1    0    0    0    0  0.00000000000E+00  0.00000000000E+00  0.45593999997E+02  0.45594000000E+02  0.51100000000E-03 0.  1.
         11   -1    0    0    0    0 -0.00000000000E+00 -0.00000000000E+00 -0.45593999997E+02  0.45594000000E+02  0.51100000000E-03 0. -1.
    9900012    2    1    2    0    0 -0.11599382294E+02 -0.82152767177E+01 -0.41007154625E+02  0.47787272222E+02  0.20000005371E+02 0.  0.
        -12    1    1    2    0    0  0.11599382294E+02  0.82152767177E+01  0.41007154625E+02  0.43400727778E+02  0.00000000000E+00 0.  1.
         11    1    3    3    0    0 -0.21924951375E+01 -0.34061003786E+01 -0.33072741159E+02  0.33319885395E+02  0.51100000000E-03 0. -1.
        -11    1    3    3    0    0 -0.38469337782E+01 -0.48256467607E+01 -0.23975728795E+01  0.66207342589E+01  0.51100000000E-03 0.  1.
         12    1    3    3    0    0 -0.55599533785E+01  0.16470421560E-01 -0.55368405871E+01  0.78466525687E+01  0.00000000000E+00 0. -1.
</event>
<event>
 7    1  0.2497395E-009  0.4778727E+02  0.7816164E-02  0.1312668E+00
        -11   -1    0    0    0    0  0.00000000000E+00  0.00000000000E+00  0.45593999997E+02  0.45594000000E+02  0.51100000000E-03 0.  1.
         11   -1    0    0    0    0 -0.00000000000E+00 -0.00000000000E+00 -0.45593999997E+02  0.45594000000E+02  0.51100000000E-03 0. -1.
    9900012    2    1    2    0    0  0.30333515755E+02 -0.70067880274E+01 -0.30239148099E+02  0.47787270348E+02  0.19999996825E+02 0.  0.
        -12    1    1    2    0    0 -0.30333515755E+02  0.70067880274E+01  0.30239148099E+02  0.43400729652E+02  0.00000000000E+00 0.  1.
         11    1    3    3    0    0  0.22567632281E+02  0.12987971763E+01 -0.25016300963E+02  0.33716468009E+02  0.51100000000E-03 0. -1.
        -11    1    3    3    0    0  0.62840317482E+00 -0.52520411111E+01 -0.18112237054E+01  0.55910068820E+01  0.51100000000E-03 0.  1.
         12    1    3    3    0    0  0.71374802996E+01 -0.30535440927E+01 -0.34116234307E+01  0.84797954566E+01  0.00000000000E+00 0. -1.
</event>
<event>
 7    1  0.2497395E-009  0.4778727E+02  0.7816164E-02  0.1312668E+00
        -11   -1    0    0    0    0  0.00000000000E+00  0.00000000000E+00  0.45593999997E+02  0.45594000000E+02  0.51100000000E-03 0.  1.
         11   -1    0    0    0    0 -0.00000000000E+00 -0.00000000000E+00 -0.45593999997E+02  0.45594000000E+02  0.51100000000E-03 0. -1.
    9900012    2    1    2    0    0  0.79274901220E+01  0.24953866320E+02 -0.34613331132E+02  0.47787271481E+02  0.20000001990E+02 0.  0.
        -12    1    1    2    0    0 -0.79274901220E+01 -0.24953866320E+02  0.34613331132E+02  0.43400728519E+02  0.00000000000E+00 0.  1.
         11    1    3    3    0    0  0.43925534484E+01  0.27449927416E+01 -0.79034470951E+01  0.94495495763E+01  0.51100000000E-03 0. -1.
        -11    1    3    3    0    0  0.76210048988E+01  0.11214659404E+02 -0.21690646101E+02  0.25579922396E+02  0.51100000000E-03 0.  1.
        -12    1    3    3    0    0 -0.40860682251E+01  0.10994214175E+02 -0.50192379353E+01  0.12757799509E+02  0.00000000000E+00 0.  1.
</event>
<event>
 7    1  0.2497395E-009  0.4778727E+02  0.7816164E-02  0.1312668E+00
        -11   -1    0    0    0    0  0.00000000000E+00  0.00000000000E+00  0.45593999997E+02  0.45594000000E+02  0.51100000000E-03 0. -1.
         11   -1    0    0    0    0 -0.00000000000E+00 -0.00000000000E+00 -0.45593999997E+02  0.45594000000E+02  0.51100000000E-03 0.  1.
    9900012    2    1    2    0    0 -0.33536581195E+02  0.11524695097E+02  0.25022038728E+02  0.47787270773E+02  0.19999998763E+02 0.  0.
        -12    1    1    2    0    0  0.33536581195E+02 -0.11524695097E+02 -0.25022038728E+02  0.43400729227E+02  0.00000000000E+00 0.  1.
         11    1    3    3    0    0 -0.25414359646E+02  0.24922198473E+01  0.17093388686E+02  0.30729216928E+02  0.51100000000E-03 0. -1.
        -11    1    3    3    0    0 -0.35498874739E+01  0.87052021224E+01  0.81875954215E+01  0.12466714247E+02  0.51100000000E-03 0.  1.
        -12    1    3    3    0    0 -0.45723340751E+01  0.32727312720E+00 -0.25894537938E+00  0.45913395979E+01  0.00000000000E+00 0.  1.
</event>
<event>
 7    1  0.2497395E-009  0.4778727E+02  0.7816164E-02  0.1312668E+00
        -11   -1    0    0    0    0  0.00000000000E+00  0.00000000000E+00  0.45593999997E+02  0.45594000000E+02  0.51100000000E-03 0.  1.
         11   -1    0    0    0    0 -0.00000000000E+00 -0.00000000000E+00 -0.45593999997E+02  0.45594000000E+02  0.51100000000E-03 0. -1.
    9900012    2    1    2    0    0  0.25516395880E+02  0.35097743811E+02 -0.82772525909E+00  0.47787271798E+02  0.20000003434E+02 0.  0.
        -12    1    1    2    0    0 -0.25516395880E+02 -0.35097743811E+02  0.82772525909E+00  0.43400728202E+02  0.00000000000E+00 0.  1.
         11    1    3    3    0    0  0.83382957217E+01  0.24969773349E+02  0.12606979939E+00  0.26325513300E+02  0.51100000000E-03 0. -1.
        -11    1    3    3    0    0  0.11319783466E+02  0.51822861354E+01 -0.41958182731E+01  0.13137674016E+02  0.51100000000E-03 0.  1.
         12    1    3    3    0    0  0.58583166924E+01  0.49456843266E+01  0.32420232146E+01  0.83240844812E+01  0.00000000000E+00 0. -1.
</event>
<event>
 7    1  0.2497395E-009  0.4778727E+02  0.7816164E-02  0.1312668E+00
        -11   -1    0    0    0    0  0.00000000000E+00  0.00000000000E+00  0.45593999997E+02  0.45594000000E+02  0.51100000000E-03 0.  1.
         11   -1    0    0    0    0 -0.00000000000E+00 -0.00000000000E+00 -0.45593999997E+02  0.45594000000E+02  0.51100000000E-03 0. -1.
    9900012    2    1    2    0    0  0.19757080094E+02  0.38030371742E+02 -0.68536225550E+01  0.47787268084E+02  0.19999986502E+02 0.  0.
        -12    1    1    2    0    0 -0.19757080094E+02 -0.38030371742E+02  0.68536225550E+01  0.43400731916E+02  0.00000000000E+00 0.  1.
         11    1    3    3    0    0  0.48281332735E+01  0.21136749810E+02 -0.34690053392E+01  0.21956936529E+02  0.51100000000E-03 0. -1.
        -11    1    3    3    0    0  0.11509921056E+02  0.65187225443E+01 -0.61116260763E+01  0.14571341733E+02  0.51100000000E-03 0.  1.
        -12    1    3    3    0    0  0.34190257644E+01  0.10374899388E+02  0.27270088605E+01  0.11258989822E+02  0.00000000000E+00 0.  1.
</event>
<event>
 7    1  0.2497395E-009  0.4778727E+02  0.7816164E-02  0.1312668E+00
        -11   -1    0    0    0    0  0.00000000000E+00  0.00000000000E+00  0.45593999997E+02  0.45594000000E+02  0.51100000000E-03 0.  1.
         11   -1    0    0    0    0 -0.00000000000E+00 -0.00000000000E+00 -0.45593999997E+02  0.45594000000E+02  0.51100000000E-03 0. -1.
    9900012    2    1    2    0    0  0.17503790684E+02 -0.34844185736E+02 -0.19055789354E+02  0.47787273326E+02  0.20000010404E+02 0.  0.
        -12    1    1    2    0    0 -0.17503790684E+02  0.34844185736E+02  0.19055789354E+02  0.43400726674E+02  0.00000000000E+00 0.  1.
         11    1    3    3    0    0  0.18287572412E+02 -0.30652693564E+02 -0.10119805974E+02  0.37100315372E+02  0.51100000000E-03 0. -1.
        -11    1    3    3    0    0 -0.37759571484E+00  0.64286666746E+00 -0.26128479254E+01  0.27171364740E+01  0.51100000000E-03 0.  1.
         12    1    3    3    0    0 -0.40618601313E+00 -0.48343588391E+01 -0.63231354542E+01  0.79698214807E+01  0.00000000000E+00 0. -1.
</event>
<event>
 7    1  0.2497395E-009  0.4778728E+02  0.7816164E-02  0.1312668E+00
        -11   -1    0    0    0    0  0.00000000000E+00  0.00000000000E+00  0.45593999997E+02  0.45594000000E+02  0.51100000000E-03 0.  1.
         11   -1    0    0    0    0 -0.00000000000E+00 -0.00000000000E+00 -0.45593999997E+02  0.45594000000E+02  0.51100000000E-03 0. -1.
    9900012    2    1    2    0    0  0.35151963636E+02 -0.12537683385E+02 -0.22153294420E+02  0.47787279893E+02  0.20000040344E+02 0.  0.
        -12    1    1    2    0    0 -0.35151963636E+02  0.12537683385E+02  0.22153294420E+02  0.43400720107E+02  0.00000000000E+00 0.  1.
         11    1    3    3    0    0  0.19820598873E+02 -0.61178528312E+01 -0.85793547766E+00  0.20761028792E+02  0.51100000000E-03 0. -1.
        -11    1    3    3    0    0  0.74678950851E+01 -0.31744340218E+01 -0.11053155310E+02  0.13711992231E+02  0.51100000000E-03 0.  1.
         12    1    3    3    0    0  0.78634696783E+01 -0.32453965315E+01 -0.10242203632E+02  0.13314258870E+02  0.00000000000E+00 0. -1.
</event>
<event>
 7    1  0.2497395E-009  0.4778728E+02  0.7816164E-02  0.1312668E+00
        -11   -1    0    0    0    0  0.00000000000E+00  0.00000000000E+00  0.45593999997E+02  0.45594000000E+02  0.51100000000E-03 0. -1.
         11   -1    0    0    0    0 -0.00000000000E+00 -0.00000000000E+00 -0.45593999997E+02  0.45594000000E+02  0.51100000000E-03 0.  1.
    9900012    2    1    2    0    0  0.38426807966E+02 -0.65141345940E+01  0.19093697150E+02  0.47787276609E+02  0.20000025371E+02 0.  0.
        -12    1    1    2    0    0 -0.38426807966E+02  0.65141345940E+01 -0.19093697150E+02  0.43400723391E+02  0.00000000000E+00 0.  1.
         11    1    3    3    0    0 -0.12007519950E+01 -0.22503159095E+01  0.18307308858E+01  0.31396341958E+01  0.51100000000E-03 0. -1.
        -11    1    3    3    0    0  0.33692534233E+01 -0.32919601667E+01  0.65846696720E+00  0.47563062746E+01  0.51100000000E-03 0.  1.
         12    1    3    3    0    0  0.36258306538E+02 -0.97185851779E+00  0.16604499297E+02  0.39891336138E+02  0.00000000000E+00 0. -1.
</event>
<event>
 7    1  0.2497395E-009  0.4778728E+02  0.7816164E-02  0.1312668E+00
        -11   -1    0    0    0    0  0.00000000000E+00  0.00000000000E+00  0.45593999997E+02  0.45594000000E+02  0.51100000000E-03 0.  1.
         11   -1    0    0    0    0 -0.00000000000E+00 -0.00000000000E+00 -0.45593999997E+02  0.45594000000E+02  0.51100000000E-03 0. -1.
    9900012    2    1    2    0    0  0.43066650843E+01  0.15347414247E+02 -0.40367465407E+02  0.47787277062E+02  0.20000027436E+02 0.  0.
        -12    1    1    2    0    0 -0.43066650843E+01 -0.15347414247E+02  0.40367465407E+02  0.43400722938E+02  0.00000000000E+00 0.  1.
         11    1    3    3    0    0  0.29928789128E+01  0.28156622529E+01 -0.31260748302E+02  0.31529663220E+02  0.51100000000E-03 0. -1.
        -11    1    3    3    0    0  0.14740423992E+01  0.75454079131E+00 -0.76205238995E+00  0.18228705128E+01  0.51100000000E-03 0.  1.
         12    1    3    3    0    0 -0.16025622768E+00  0.11777211203E+02 -0.83446647142E+01  0.14434743329E+02  0.00000000000E+00 0. -1.
</event>
<event>
 7    1  0.2497395E-009  0.4778725E+02  0.7816164E-02  0.1312668E+00
        -11   -1    0    0    0    0  0.00000000000E+00  0.00000000000E+00  0.45593999997E+02  0.45594000000E+02  0.51100000000E-03 0.  1.
         11   -1    0    0    0    0 -0.00000000000E+00 -0.00000000000E+00 -0.45593999997E+02  0.45594000000E+02  0.51100000000E-03 0. -1.
    9900012    2    1    2    0    0  0.16561658823E+02 -0.75287874081E+01 -0.39403728146E+02  0.47787251451E+02  0.19999910664E+02 0.  0.
        -12    1    1    2    0    0 -0.16561658823E+02  0.75287874081E+01  0.39403728146E+02  0.43400748549E+02  0.00000000000E+00 0.  1.
         11    1    3    3    0    0 -0.29732822626E+01  0.27738853442E+01 -0.35786306683E+01  0.54167744126E+01  0.51100000000E-03 0. -1.
        -11    1    3    3    0    0  0.10628748269E+02 -0.35207575197E+01 -0.14885989404E+02  0.18626827537E+02  0.51100000000E-03 0.  1.
         12    1    3    3    0    0  0.89061928163E+01 -0.67819152325E+01 -0.20939108074E+02  0.23743649502E+02  0.00000000000E+00 0. -1.
</event>
<event>
 7    1  0.2497395E-009  0.4778727E+02  0.7816164E-02  0.1312668E+00
        -11   -1    0    0    0    0  0.00000000000E+00  0.00000000000E+00  0.45593999997E+02  0.45594000000E+02  0.51100000000E-03 0.  1.
         11   -1    0    0    0    0 -0.00000000000E+00 -0.00000000000E+00 -0.45593999997E+02  0.45594000000E+02  0.51100000000E-03 0. -1.
    9900012    2    1    2    0    0 -0.97749497943E+01  0.19782201761E+02 -0.37372956491E+02  0.47787273890E+02  0.20000012975E+02 0.  0.
        -12    1    1    2    0    0  0.97749497943E+01 -0.19782201761E+02  0.37372956491E+02  0.43400726110E+02  0.00000000000E+00 0.  1.
         11    1    3    3    0    0 -0.24626038506E+01  0.98645385234E+01 -0.11767689514E+02  0.15551593319E+02  0.51100000000E-03 0. -1.
        -11    1    3    3    0    0 -0.12003722431E+02  0.73505253260E+01 -0.16620621834E+02  0.21779913801E+02  0.51100000000E-03 0.  1.
        -12    1    3    3    0    0  0.46913764876E+01  0.25671379112E+01 -0.89846451430E+01  0.10455766770E+02  0.00000000000E+00 0.  1.
</event>
<event>
 7    1  0.2497395E-009  0.4778727E+02  0.7816164E-02  0.1312668E+00
        -11   -1    0    0    0    0  0.00000000000E+00  0.00000000000E+00  0.45593999997E+02  0.45594000000E+02  0.51100000000E-03 0.  1.
         11   -1    0    0    0    0 -0.00000000000E+00 -0.00000000000E+00 -0.45593999997E+02  0.45594000000E+02  0.51100000000E-03 0. -1.
    9900012    2    1    2    0    0 -0.41883429994E+02 -0.72471729362E+01  0.87681503958E+01  0.47787266308E+02  0.19999978404E+02 0.  0.
        -12    1    1    2    0    0  0.41883429994E+02  0.72471729362E+01 -0.87681503958E+01  0.43400733692E+02  0.00000000000E+00 0.  1.
         11    1    3    3    0    0 -0.14291493647E+02 -0.18393846819E+01  0.42094986283E+01  0.15011662321E+02  0.51100000000E-03 0. -1.
        -11    1    3    3    0    0 -0.28193968407E+02 -0.56013131063E+01  0.58396153639E+00  0.28750923018E+02  0.51100000000E-03 0.  1.
        -12    1    3    3    0    0  0.60203205978E+00  0.19352485198E+00  0.39746902311E+01  0.40246809690E+01  0.00000000000E+00 0.  1.
</event>
<event>
 7    1  0.2497395E-009  0.4778727E+02  0.7816164E-02  0.1312668E+00
        -11   -1    0    0    0    0  0.00000000000E+00  0.00000000000E+00  0.45593999997E+02  0.45594000000E+02  0.51100000000E-03 0. -1.
         11   -1    0    0    0    0 -0.00000000000E+00 -0.00000000000E+00 -0.45593999997E+02  0.45594000000E+02  0.51100000000E-03 0.  1.
    9900012    2    1    2    0    0 -0.24703887756E+02  0.23932866505E+02  0.26468077898E+02  0.47787270547E+02  0.19999997732E+02 0.  0.
        -12    1    1    2    0    0  0.24703887756E+02 -0.23932866505E+02 -0.26468077898E+02  0.43400729453E+02  0.00000000000E+00 0.  1.
         11    1    3    3    0    0 -0.20197260075E+02  0.15409788901E+02  0.24927276056E+02  0.35591572041E+02  0.51100000000E-03 0. -1.
        -11    1    3    3    0    0 -0.51728681872E+01  0.44379815163E+01 -0.15986350941E+01  0.70007056534E+01  0.51100000000E-03 0.  1.
         12    1    3    3    0    0  0.66624050668E+00  0.40850960879E+01  0.31394369368E+01  0.51949928528E+01  0.00000000000E+00 0. -1.
</event>
<event>
 7    1  0.2497395E-009  0.4778728E+02  0.7816164E-02  0.1312668E+00
        -11   -1    0    0    0    0  0.00000000000E+00  0.00000000000E+00  0.45593999997E+02  0.45594000000E+02  0.51100000000E-03 0.  1.
         11   -1    0    0    0    0 -0.00000000000E+00 -0.00000000000E+00 -0.45593999997E+02  0.45594000000E+02  0.51100000000E-03 0. -1.
    9900012    2    1    2    0    0 -0.11816056985E+02 -0.41304560389E+02 -0.61592927690E+01  0.47787276515E+02  0.20000024941E+02 0.  0.
        -12    1    1    2    0    0  0.11816056985E+02  0.41304560389E+02  0.61592927690E+01  0.43400723485E+02  0.00000000000E+00 0.  1.
         11    1    3    3    0    0 -0.33407735148E+01 -0.24443321326E+02 -0.99197984401E+00  0.24690499173E+02  0.51100000000E-03 0. -1.
        -11    1    3    3    0    0 -0.53234036174E+00 -0.42451143752E+00  0.30154963772E+01  0.30914098537E+01  0.51100000000E-03 0.  1.
        -12    1    3    3    0    0 -0.79429431084E+01 -0.16436727626E+02 -0.81828093022E+01  0.20005367488E+02  0.00000000000E+00 0.  1.
</event>
<event>
 7    1  0.2497395E-009  0.4778728E+02  0.7816164E-02  0.1312668E+00
        -11   -1    0    0    0    0  0.00000000000E+00  0.00000000000E+00  0.45593999997E+02  0.45594000000E+02  0.51100000000E-03 0.  1.
         11   -1    0    0    0    0 -0.00000000000E+00 -0.00000000000E+00 -0.45593999997E+02  0.45594000000E+02  0.51100000000E-03 0. -1.
    9900012    2    1    2    0    0  0.23294550925E+02 -0.24180681619E+02 -0.27500557954E+02  0.47787283944E+02  0.20000058816E+02 0.  0.
        -12    1    1    2    0    0 -0.23294550925E+02  0.24180681619E+02  0.27500557954E+02  0.43400716056E+02  0.00000000000E+00 0.  1.
         11    1    3    3    0    0  0.20922689157E+02 -0.21333716304E+02 -0.14416809142E+02  0.33177262681E+02  0.51100000000E-03 0. -1.
        -11    1    3    3    0    0 -0.17345847115E+01 -0.84029361753E+00 -0.41021665102E+01  0.45323997864E+01  0.51100000000E-03 0.  1.
         12    1    3    3    0    0  0.41064464792E+01 -0.20066716976E+01 -0.89815823023E+01  0.10077621477E+02  0.00000000000E+00 0. -1.
</event>
<event>
 7    1  0.2497395E-009  0.4778727E+02  0.7816164E-02  0.1312668E+00
        -11   -1    0    0    0    0  0.00000000000E+00  0.00000000000E+00  0.45593999997E+02  0.45594000000E+02  0.51100000000E-03 0.  1.
         11   -1    0    0    0    0 -0.00000000000E+00 -0.00000000000E+00 -0.45593999997E+02  0.45594000000E+02  0.51100000000E-03 0. -1.
    9900012    2    1    2    0    0  0.94447228338E+01  0.23981636343E+02 -0.34918503053E+02  0.47787268134E+02  0.19999986728E+02 0.  0.
        -12    1    1    2    0    0 -0.94447228338E+01 -0.23981636343E+02  0.34918503053E+02  0.43400731866E+02  0.00000000000E+00 0.  1.
         11    1    3    3    0    0  0.10234663468E+02  0.19741046610E+02 -0.30366931286E+02  0.37637850278E+02  0.51100000000E-03 0. -1.
        -11    1    3    3    0    0  0.27154928641E+00 -0.23640354213E+01 -0.13025172254E+01  0.27127391823E+01  0.51100000000E-03 0.  1.
        -12    1    3    3    0    0 -0.10614899202E+01  0.66046251542E+01 -0.32490545417E+01  0.74366786735E+01  0.00000000000E+00 0.  1.
</event>
<event>
 7    1  0.2497395E-009  0.4778727E+02  0.7816164E-02  0.1312668E+00
        -11   -1    0    0    0    0  0.00000000000E+00  0.00000000000E+00  0.45593999997E+02  0.45594000000E+02  0.51100000000E-03 0.  1.
         11   -1    0    0    0    0 -0.00000000000E+00 -0.00000000000E+00 -0.45593999997E+02  0.45594000000E+02  0.51100000000E-03 0. -1.
    9900012    2    1    2    0    0 -0.18843631897E+02 -0.26185425257E+02 -0.29032128991E+02  0.47787268754E+02  0.19999989557E+02 0.  0.
        -12    1    1    2    0    0  0.18843631897E+02  0.26185425257E+02  0.29032128991E+02  0.43400731246E+02  0.00000000000E+00 0.  1.
         11    1    3    3    0    0 -0.20186900641E+02 -0.14482462395E+02 -0.18192403965E+02  0.30793119959E+02  0.51100000000E-03 0.  1.
        -11    1    3    3    0    0  0.33123135658E+01 -0.44409163375E+01 -0.40932477634E+01  0.68882390049E+01  0.51100000000E-03 0. -1.
        -12    1    3    3    0    0 -0.19690448216E+01 -0.72620465242E+01 -0.67464772629E+01  0.10105909790E+02  0.00000000000E+00 0.  1.
</event>
<event>
 7    1  0.2497395E-009  0.4778727E+02  0.7816164E-02  0.1312668E+00
        -11   -1    0    0    0    0  0.00000000000E+00  0.00000000000E+00  0.45593999997E+02  0.45594000000E+02  0.51100000000E-03 0.  1.
         11   -1    0    0    0    0 -0.00000000000E+00 -0.00000000000E+00 -0.45593999997E+02  0.45594000000E+02  0.51100000000E-03 0. -1.
    9900012    2    1    2    0    0 -0.15497268755E+02 -0.84859620266E+01 -0.39641477700E+02  0.47787266773E+02  0.19999980526E+02 0.  0.
        -12    1    1    2    0    0  0.15497268755E+02  0.84859620266E+01  0.39641477700E+02  0.43400733227E+02  0.00000000000E+00 0.  1.
         11    1    3    3    0    0 -0.11104921067E+02 -0.11950641359E+02 -0.21155690154E+02  0.26715170352E+02  0.51100000000E-03 0. -1.
        -11    1    3    3    0    0 -0.52749196085E+00  0.23362251026E+01 -0.16330672514E+02  0.16505364598E+02  0.51100000000E-03 0.  1.
        -12    1    3    3    0    0 -0.38648557271E+01  0.11284542298E+01 -0.21551150319E+01  0.45667318227E+01  0.00000000000E+00 0.  1.
</event>
<event>
 7    1  0.2497395E-009  0.4778727E+02  0.7816164E-02  0.1312668E+00
        -11   -1    0    0    0    0  0.00000000000E+00  0.00000000000E+00  0.45593999997E+02  0.45594000000E+02  0.51100000000E-03 0.  1.
         11   -1    0    0    0    0 -0.00000000000E+00 -0.00000000000E+00 -0.45593999997E+02  0.45594000000E+02  0.51100000000E-03 0. -1.
    9900012    2    1    2    0    0  0.10314729639E+02 -0.27590815488E+02 -0.31874385919E+02  0.47787271613E+02  0.20000002592E+02 0.  0.
        -12    1    1    2    0    0 -0.10314729639E+02  0.27590815488E+02  0.31874385919E+02  0.43400728387E+02  0.00000000000E+00 0.  1.
         11    1    3    3    0    0  0.63324186190E+00  0.16497700962E+01 -0.13819468621E+00  0.17725221179E+01  0.51100000000E-03 0. -1.
        -11    1    3    3    0    0 -0.14359686277E+01 -0.11816964298E+01  0.42734452324E+00  0.19081498773E+01  0.51100000000E-03 0.  1.
         12    1    3    3    0    0  0.11117456405E+02 -0.28058889155E+02 -0.32163535756E+02  0.44106599618E+02  0.00000000000E+00 0. -1.
</event>
<event>
 7    1  0.2497395E-009  0.4778727E+02  0.7816164E-02  0.1312668E+00
        -11   -1    0    0    0    0  0.00000000000E+00  0.00000000000E+00  0.45593999997E+02  0.45594000000E+02  0.51100000000E-03 0. -1.
         11   -1    0    0    0    0 -0.00000000000E+00 -0.00000000000E+00 -0.45593999997E+02  0.45594000000E+02  0.51100000000E-03 0.  1.
    9900012    2    1    2    0    0 -0.12425492406E+02 -0.43502128002E+01  0.41355845973E+02  0.47787271791E+02  0.20000003402E+02 0.  0.
        -12    1    1    2    0    0  0.12425492406E+02  0.43502128002E+01 -0.41355845973E+02  0.43400728209E+02  0.00000000000E+00 0.  1.
         11    1    3    3    0    0 -0.58821608003E+00 -0.87000735605E+00  0.20982026123E+02  0.21008291969E+02  0.51100000000E-03 0. -1.
        -11    1    3    3    0    0 -0.11674157500E+02  0.18841221339E+01  0.12114638571E+02  0.16929274571E+02  0.51100000000E-03 0.  1.
        -12    1    3    3    0    0 -0.16311882614E+00 -0.53643275780E+01  0.82591812799E+01  0.98497052509E+01  0.00000000000E+00 0.  1.
</event>
<event>
 7    1  0.2497395E-009  0.4778727E+02  0.7816164E-02  0.1312668E+00
        -11   -1    0    0    0    0  0.00000000000E+00  0.00000000000E+00  0.45593999997E+02  0.45594000000E+02  0.51100000000E-03 0.  1.
         11   -1    0    0    0    0 -0.00000000000E+00 -0.00000000000E+00 -0.45593999997E+02  0.45594000000E+02  0.51100000000E-03 0. -1.
    9900012    2    1    2    0    0 -0.32033625541E+01  0.33461341447E+02 -0.27453603372E+02  0.47787271421E+02  0.20000001718E+02 0.  0.
        -12    1    1    2    0    0  0.32033625541E+01 -0.33461341447E+02  0.27453603372E+02  0.43400728579E+02  0.00000000000E+00 0.  1.
         11    1    3    3    0    0 -0.33913979979E+01  0.27275438424E+02 -0.17852100976E+02  0.32774206797E+02  0.51100000000E-03 0. -1.
        -11    1    3    3    0    0  0.39859280370E+01  0.11904098251E+00 -0.54021870675E+01  0.67145676291E+01  0.51100000000E-03 0.  1.
        -12    1    3    3    0    0 -0.37978925932E+01  0.60668620399E+01 -0.41993153279E+01  0.82984969954E+01  0.00000000000E+00 0.  1.
</event>
<event>
 7    1  0.2497395E-009  0.4778727E+02  0.7816164E-02  0.1312668E+00
        -11   -1    0    0    0    0  0.00000000000E+00  0.00000000000E+00  0.45593999997E+02  0.45594000000E+02  0.51100000000E-03 0.  1.
         11   -1    0    0    0    0 -0.00000000000E+00 -0.00000000000E+00 -0.45593999997E+02  0.45594000000E+02  0.51100000000E-03 0. -1.
    9900012    2    1    2    0    0 -0.29787969769E+02 -0.19674312380E+02 -0.24682417403E+02  0.47787269137E+02  0.19999991302E+02 0.  0.
        -12    1    1    2    0    0  0.29787969769E+02  0.19674312380E+02  0.24682417403E+02  0.43400730863E+02  0.00000000000E+00 0.  1.
         11    1    3    3    0    0 -0.92791692118E+01 -0.19926520711E+01 -0.40053834860E+01  0.10301298009E+02  0.51100000000E-03 0. -1.
        -11    1    3    3    0    0 -0.20086980142E+02 -0.19911358980E+02 -0.20954250998E+02  0.35199852597E+02  0.51100000000E-03 0.  1.
        -12    1    3    3    0    0 -0.42182041527E+00  0.22296986714E+01  0.27721708105E+00  0.22861185311E+01  0.00000000000E+00 0.  1.
</event>
<event>
 7    1  0.2497395E-009  0.4778727E+02  0.7816164E-02  0.1312668E+00
        -11   -1    0    0    0    0  0.00000000000E+00  0.00000000000E+00  0.45593999997E+02  0.45594000000E+02  0.51100000000E-03 0.  1.
         11   -1    0    0    0    0 -0.00000000000E+00 -0.00000000000E+00 -0.45593999997E+02  0.45594000000E+02  0.51100000000E-03 0. -1.
    9900012    2    1    2    0    0 -0.15177345145E+02 -0.40637121845E+02  0.13768872388E+01  0.47787270789E+02  0.19999998838E+02 0.  0.
        -12    1    1    2    0    0  0.15177345145E+02  0.40637121845E+02 -0.13768872388E+01  0.43400729211E+02  0.00000000000E+00 0.  1.
         11    1    3    3    0    0 -0.18021716130E+02 -0.25604184138E+02  0.25446677289E+01  0.31413879603E+02  0.51100000000E-03 0. -1.
        -11    1    3    3    0    0  0.16212743172E+00 -0.12399001378E+02 -0.18962060764E+01  0.12544206560E+02  0.51100000000E-03 0.  1.
         12    1    3    3    0    0  0.26822435531E+01 -0.26339363304E+01  0.72842558624E+00  0.38291846267E+01  0.00000000000E+00 0. -1.
</event>
<event>
 7    1  0.2497395E-009  0.4778726E+02  0.7816164E-02  0.1312668E+00
        -11   -1    0    0    0    0  0.00000000000E+00  0.00000000000E+00  0.45593999997E+02  0.45594000000E+02  0.51100000000E-03 0.  1.
         11   -1    0    0    0    0 -0.00000000000E+00 -0.00000000000E+00 -0.45593999997E+02  0.45594000000E+02  0.51100000000E-03 0. -1.
    9900012    2    1    2    0    0  0.58754075118E+01  0.34149862243E+01 -0.42865387504E+02  0.47787262791E+02  0.19999962372E+02 0.  0.
        -12    1    1    2    0    0 -0.58754075118E+01 -0.34149862243E+01  0.42865387504E+02  0.43400737209E+02  0.00000000000E+00 0.  1.
         11    1    3    3    0    0  0.19729652298E+01  0.29023482097E+01 -0.30379902393E+01  0.46417240206E+01  0.51100000000E-03 0. -1.
        -11    1    3    3    0    0 -0.23732799552E+01  0.67231824919E+01 -0.12078349688E+02  0.14025696846E+02  0.51100000000E-03 0.  1.
        -12    1    3    3    0    0  0.62757222372E+01 -0.62105444773E+01 -0.27749047577E+02  0.29119841925E+02  0.00000000000E+00 0.  1.
</event>
<event>
 7    1  0.2497395E-009  0.4778727E+02  0.7816164E-02  0.1312668E+00
        -11   -1    0    0    0    0  0.00000000000E+00  0.00000000000E+00  0.45593999997E+02  0.45594000000E+02  0.51100000000E-03 0.  1.
         11   -1    0    0    0    0 -0.00000000000E+00 -0.00000000000E+00 -0.45593999997E+02  0.45594000000E+02  0.51100000000E-03 0. -1.
    9900012    2    1    2    0    0  0.27659947391E+01 -0.59753434017E+01 -0.42898344449E+02  0.47787269452E+02  0.19999992738E+02 0.  0.
        -12    1    1    2    0    0 -0.27659947391E+01  0.59753434017E+01  0.42898344449E+02  0.43400730548E+02  0.00000000000E+00 0.  1.
         11    1    3    3    0    0  0.57631815147E+01 -0.12542807941E+01 -0.26454218755E+02  0.27103748296E+02  0.51100000000E-03 0.  1.
        -11    1    3    3    0    0 -0.20415758474E+01 -0.63245035170E+01 -0.33230628244E+01  0.74303515040E+01  0.51100000000E-03 0. -1.
        -12    1    3    3    0    0 -0.95561092822E+00  0.16034409094E+01 -0.13121062870E+02  0.13253169652E+02  0.00000000000E+00 0.  1.
</event>
<event>
 7    1  0.2497395E-009  0.4778730E+02  0.7816164E-02  0.1312668E+00
        -11   -1    0    0    0    0  0.00000000000E+00  0.00000000000E+00  0.45593999997E+02  0.45594000000E+02  0.51100000000E-03 0.  1.
         11   -1    0    0    0    0 -0.00000000000E+00 -0.00000000000E+00 -0.45593999997E+02  0.45594000000E+02  0.51100000000E-03 0. -1.
    9900012    2    1    2    0    0  0.20902109284E+01  0.67124516586E+01 -0.42827504488E+02  0.47787295747E+02  0.20000112628E+02 0.  0.
        -12    1    1    2    0    0 -0.20902109284E+01 -0.67124516586E+01  0.42827504488E+02  0.43400704253E+02  0.00000000000E+00 0.  1.
         11    1    3    3    0    0  0.54317323762E+01  0.94240341498E+01 -0.39320680068E+02  0.40797451116E+02  0.51100000000E-03 0. -1.
        -11    1    3    3    0    0 -0.15518962113E+01 -0.19599454706E+01  0.48916582230E+00  0.25473616864E+01  0.51100000000E-03 0.  1.
        -12    1    3    3    0    0 -0.17896252365E+01 -0.75163702060E+00 -0.39959902419E+01  0.44424829444E+01  0.00000000000E+00 0.  1.
</event>
<event>
 7    1  0.2497395E-009  0.4778727E+02  0.7816164E-02  0.1312668E+00
        -11   -1    0    0    0    0  0.00000000000E+00  0.00000000000E+00  0.45593999997E+02  0.45594000000E+02  0.51100000000E-03 0.  1.
         11   -1    0    0    0    0 -0.00000000000E+00 -0.00000000000E+00 -0.45593999997E+02  0.45594000000E+02  0.51100000000E-03 0. -1.
    9900012    2    1    2    0    0 -0.27111406358E+01 -0.34260543824E+02 -0.26504490128E+02  0.47787272545E+02  0.20000006840E+02 0.  0.
        -12    1    1    2    0    0  0.27111406358E+01  0.34260543824E+02  0.26504490128E+02  0.43400727455E+02  0.00000000000E+00 0.  1.
         11    1    3    3    0    0 -0.25201643417E+00 -0.10027105667E+02 -0.55284326741E+01  0.11452944094E+02  0.51100000000E-03 0. -1.
        -11    1    3    3    0    0 -0.75550685345E+01 -0.19175026897E+02 -0.92630739070E+01  0.22595691083E+02  0.51100000000E-03 0.  1.
        -12    1    3    3    0    0  0.50959443329E+01 -0.50584112604E+01 -0.11712983547E+02  0.13738637367E+02  0.00000000000E+00 0.  1.
</event>
<event>
 7    1  0.2497395E-009  0.4778727E+02  0.7816164E-02  0.1312668E+00
        -11   -1    0    0    0    0  0.00000000000E+00  0.00000000000E+00  0.45593999997E+02  0.45594000000E+02  0.51100000000E-03 0.  1.
         11   -1    0    0    0    0 -0.00000000000E+00 -0.00000000000E+00 -0.45593999997E+02  0.45594000000E+02  0.51100000000E-03 0. -1.
    9900012    2    1    2    0    0  0.16792686474E+02 -0.12043971167E+00 -0.40020178491E+02  0.47787268311E+02  0.19999987535E+02 0.  0.
        -12    1    1    2    0    0 -0.16792686474E+02  0.12043971167E+00  0.40020178491E+02  0.43400731689E+02  0.00000000000E+00 0.  1.
         11    1    3    3    0    0  0.31170256463E+01 -0.35587318877E+01 -0.29955721825E+02  0.30326979603E+02  0.51100000000E-03 0. -1.
        -11    1    3    3    0    0  0.89892813723E+01  0.31997386748E+01 -0.73010012364E+01  0.12014579747E+02  0.51100000000E-03 0.  1.
         12    1    3    3    0    0  0.46863794556E+01  0.23855350121E+00 -0.27634554296E+01  0.54457089608E+01  0.00000000000E+00 0. -1.
</event>
<event>
 7    1  0.2497395E-009  0.4778727E+02  0.7816164E-02  0.1312668E+00
        -11   -1    0    0    0    0  0.00000000000E+00  0.00000000000E+00  0.45593999997E+02  0.45594000000E+02  0.51100000000E-03 0. -1.
         11   -1    0    0    0    0 -0.00000000000E+00 -0.00000000000E+00 -0.45593999997E+02  0.45594000000E+02  0.51100000000E-03 0.  1.
    9900012    2    1    2    0    0  0.37459395568E+02  0.19667442890E+02 -0.96751676879E+01  0.47787268486E+02  0.19999988333E+02 0.  0.
        -12    1    1    2    0    0 -0.37459395568E+02 -0.19667442890E+02  0.96751676879E+01  0.43400731514E+02  0.00000000000E+00 0.  1.
         11    1    3    3    0    0  0.24719306135E+02  0.16051070852E+02 -0.59832966195E+01  0.30074587445E+02  0.51100000000E-03 0. -1.
        -11    1    3    3    0    0  0.43854021652E+01 -0.30621084902E-01  0.38851100687E+01  0.58589052142E+01  0.51100000000E-03 0.  1.
        -12    1    3    3    0    0  0.83546872682E+01  0.36469931237E+01 -0.75769811372E+01  0.11853775827E+02  0.00000000000E+00 0.  1.
</event>
<event>
 7    1  0.2497395E-009  0.4778727E+02  0.7816164E-02  0.1312668E+00
        -11   -1    0    0    0    0  0.00000000000E+00  0.00000000000E+00  0.45593999997E+02  0.45594000000E+02  0.51100000000E-03 0.  1.
         11   -1    0    0    0    0 -0.00000000000E+00 -0.00000000000E+00 -0.45593999997E+02  0.45594000000E+02  0.51100000000E-03 0. -1.
    9900012    2    1    2    0    0 -0.15724191596E+02  0.59077396528E+01 -0.40018392261E+02  0.47787270648E+02  0.19999998192E+02 0.  0.
        -12    1    1    2    0    0  0.15724191596E+02 -0.59077396528E+01  0.40018392261E+02  0.43400729352E+02  0.00000000000E+00 0.  1.
         11    1    3    3    0    0 -0.15779799880E+02  0.55137574950E+01 -0.38926795889E+02  0.42363888447E+02  0.51100000000E-03 0. -1.
        -11    1    3    3    0    0  0.17770050229E+00 -0.24498322745E+01 -0.34253806681E+00  0.24800379493E+01  0.51100000000E-03 0.  1.
         12    1    3    3    0    0 -0.12209221777E+00  0.28438144324E+01 -0.74905830556E+00  0.29433442511E+01  0.00000000000E+00 0. -1.
</event>
<event>
 7    1  0.2497395E-009  0.4778727E+02  0.7816164E-02  0.1312668E+00
        -11   -1    0    0    0    0  0.00000000000E+00  0.00000000000E+00  0.45593999997E+02  0.45594000000E+02  0.51100000000E-03 0. -1.
         11   -1    0    0    0    0 -0.00000000000E+00 -0.00000000000E+00 -0.45593999997E+02  0.45594000000E+02  0.51100000000E-03 0.  1.
    9900012    2    1    2    0    0 -0.40773416104E+02  0.14212864953E+02  0.43756502388E+01  0.47787270675E+02  0.19999998316E+02 0.  0.
        -12    1    1    2    0    0  0.40773416104E+02 -0.14212864953E+02 -0.43756502388E+01  0.43400729325E+02  0.00000000000E+00 0.  1.
         11    1    3    3    0    0 -0.64832064219E+00  0.19440170911E+01 -0.32168743673E+01  0.38141582376E+01  0.51100000000E-03 0.  1.
        -11    1    3    3    0    0 -0.33908250181E+02  0.12700899047E+02  0.32024481151E+01  0.36350212394E+02  0.51100000000E-03 0. -1.
         12    1    3    3    0    0 -0.62168452807E+01 -0.43205118527E+00  0.43900764910E+01  0.76229000431E+01  0.00000000000E+00 0. -1.
</event>
<event>
 7    1  0.2497395E-009  0.4778727E+02  0.7816164E-02  0.1312668E+00
        -11   -1    0    0    0    0  0.00000000000E+00  0.00000000000E+00  0.45593999997E+02  0.45594000000E+02  0.51100000000E-03 0. -1.
         11   -1    0    0    0    0 -0.00000000000E+00 -0.00000000000E+00 -0.45593999997E+02  0.45594000000E+02  0.51100000000E-03 0.  1.
    9900012    2    1    2    0    0 -0.38374525147E+02 -0.75590819717E+01  0.18811679303E+02  0.47787272141E+02  0.20000005000E+02 0.  0.
        -12    1    1    2    0    0  0.38374525147E+02  0.75590819717E+01 -0.18811679303E+02  0.43400727859E+02  0.00000000000E+00 0.  1.
         11    1    3    3    0    0 -0.95575565234E+01 -0.65910623177E+01  0.13109232817E+02  0.17511167136E+02  0.51100000000E-03 0. -1.
        -11    1    3    3    0    0 -0.21294743757E+02 -0.38632200407E+01  0.47743653489E+01  0.22162697162E+02  0.51100000000E-03 0.  1.
        -12    1    3    3    0    0 -0.75222248665E+01  0.28952003867E+01  0.92808113720E+00  0.81134078425E+01  0.00000000000E+00 0.  1.
</event>
<event>
 7    1  0.2497395E-009  0.4778728E+02  0.7816164E-02  0.1312668E+00
        -11   -1    0    0    0    0  0.00000000000E+00  0.00000000000E+00  0.45593999997E+02  0.45594000000E+02  0.51100000000E-03 0. -1.
         11   -1    0    0    0    0 -0.00000000000E+00 -0.00000000000E+00 -0.45593999997E+02  0.45594000000E+02  0.51100000000E-03 0.  1.
    9900012    2    1    2    0    0 -0.43289503513E+02 -0.24966360485E+01 -0.18462222610E+01  0.47787276013E+02  0.20000022655E+02 0.  0.
        -12    1    1    2    0    0  0.43289503513E+02  0.24966360485E+01  0.18462222610E+01  0.43400723987E+02  0.00000000000E+00 0.  1.
         11    1    3    3    0    0 -0.28337858869E+02 -0.58717031272E+01 -0.88901773324E+01  0.30274517273E+02  0.51100000000E-03 0.  1.
        -11    1    3    3    0    0 -0.75511042388E+01  0.41089431243E+01  0.38199117746E+01  0.94071417046E+01  0.51100000000E-03 0. -1.
        -12    1    3    3    0    0 -0.74005404054E+01 -0.73387604567E+00  0.32240432968E+01  0.81056170352E+01  0.00000000000E+00 0.  1.
</event>
<event>
 7    1  0.2497395E-009  0.4778727E+02  0.7816164E-02  0.1312668E+00
        -11   -1    0    0    0    0  0.00000000000E+00  0.00000000000E+00  0.45593999997E+02  0.45594000000E+02  0.51100000000E-03 0.  1.
         11   -1    0    0    0    0 -0.00000000000E+00 -0.00000000000E+00 -0.45593999997E+02  0.45594000000E+02  0.51100000000E-03 0. -1.
    9900012    2    1    2    0    0  0.12909673891E+02  0.20253527575E+02 -0.36149108441E+02  0.47787273045E+02  0.20000009120E+02 0.  0.
        -12    1    1    2    0    0 -0.12909673891E+02 -0.20253527575E+02  0.36149108441E+02  0.43400726955E+02  0.00000000000E+00 0.  1.
         11    1    3    3    0    0  0.29037719949E+01  0.62361288245E+01 -0.24771145267E+02  0.25708575079E+02  0.51100000000E-03 0. -1.
        -11    1    3    3    0    0  0.15972775799E+01  0.69541882734E+01 -0.14636241535E+01  0.72838332033E+01  0.51100000000E-03 0.  1.
         12    1    3    3    0    0  0.84086243158E+01  0.70632104770E+01 -0.99143390206E+01  0.14794864763E+02  0.00000000000E+00 0. -1.
</event>
<event>
 7    1  0.2497395E-009  0.4778727E+02  0.7816164E-02  0.1312668E+00
        -11   -1    0    0    0    0  0.00000000000E+00  0.00000000000E+00  0.45593999997E+02  0.45594000000E+02  0.51100000000E-03 0. -1.
         11   -1    0    0    0    0 -0.00000000000E+00 -0.00000000000E+00 -0.45593999997E+02  0.45594000000E+02  0.51100000000E-03 0.  1.
    9900012    2    1    2    0    0  0.10550963244E+02  0.20478291578E+02  0.36782334257E+02  0.47787269998E+02  0.19999995228E+02 0.  0.
        -12    1    1    2    0    0 -0.10550963244E+02 -0.20478291578E+02 -0.36782334257E+02  0.43400730002E+02  0.00000000000E+00 0.  1.
         11    1    3    3    0    0 -0.42576252449E+01  0.47692610178E+01  0.14530487519E+02  0.15874769012E+02  0.51100000000E-03 0. -1.
        -11    1    3    3    0    0  0.72773366571E+01  0.35538377164E+01  0.11293060602E+02  0.13896856096E+02  0.51100000000E-03 0.  1.
         12    1    3    3    0    0  0.75312518314E+01  0.12155192843E+02  0.10958786136E+02  0.18015644890E+02  0.00000000000E+00 0. -1.
</event>
<event>
 7    1  0.2497395E-009  0.4778727E+02  0.7816164E-02  0.1312668E+00
        -11   -1    0    0    0    0  0.00000000000E+00  0.00000000000E+00  0.45593999997E+02  0.45594000000E+02  0.51100000000E-03 0.  1.
         11   -1    0    0    0    0 -0.00000000000E+00 -0.00000000000E+00 -0.45593999997E+02  0.45594000000E+02  0.51100000000E-03 0. -1.
    9900012    2    1    2    0    0 -0.99274841517E+01 -0.51912123158E+01 -0.41929938451E+02  0.47787269990E+02  0.19999995193E+02 0.  0.
        -12    1    1    2    0    0  0.99274841517E+01  0.51912123158E+01  0.41929938451E+02  0.43400730010E+02  0.00000000000E+00 0.  1.
         11    1    3    3    0    0 -0.83881349166E+01 -0.10135427453E+02 -0.19533840899E+02  0.23551191850E+02  0.51100000000E-03 0. -1.
        -11    1    3    3    0    0 -0.36246897516E+01  0.39847196781E+01 -0.79146118778E+01  0.95737896439E+01  0.51100000000E-03 0.  1.
         12    1    3    3    0    0  0.20853405165E+01  0.95949545941E+00 -0.14481485674E+02  0.14662288496E+02  0.00000000000E+00 0. -1.
</event>
<event>
 7    1  0.2497395E-009  0.4778724E+02  0.7816164E-02  0.1312668E+00
        -11   -1    0    0    0    0  0.00000000000E+00  0.00000000000E+00  0.45593999997E+02  0.45594000000E+02  0.51100000000E-03 0.  1.
         11   -1    0    0    0    0 -0.00000000000E+00 -0.00000000000E+00 -0.45593999997E+02  0.45594000000E+02  0.51100000000E-03 0. -1.
    9900012    2    1    2    0    0 -0.43261710411E+02 -0.25916903793E+01  0.23094999883E+01  0.47787236909E+02  0.19999844362E+02 0.  0.
        -12    1    1    2    0    0  0.43261710411E+02  0.25916903793E+01 -0.23094999883E+01  0.43400763091E+02  0.00000000000E+00 0.  1.
         11    1    3    3    0    0 -0.87394800790E+01 -0.21738154624E+01 -0.64363406753E+01  0.11069348096E+02  0.51100000000E-03 0. -1.
        -11    1    3    3    0    0 -0.24882080715E+02  0.17237146758E+01  0.97759416561E+01  0.26789142736E+02  0.51100000000E-03 0.  1.
        -12    1    3    3    0    0 -0.96401496165E+01 -0.21415895927E+01 -0.10301009925E+01  0.99287460773E+01  0.00000000000E+00 0.  1.
</event>
<event>
 7    1  0.2497395E-009  0.4778727E+02  0.7816164E-02  0.1312668E+00
        -11   -1    0    0    0    0  0.00000000000E+00  0.00000000000E+00  0.45593999997E+02  0.45594000000E+02  0.51100000000E-03 0.  1.
         11   -1    0    0    0    0 -0.00000000000E+00 -0.00000000000E+00 -0.45593999997E+02  0.45594000000E+02  0.51100000000E-03 0. -1.
    9900012    2    1    2    0    0  0.37589654724E+02 -0.17221665732E+02 -0.13193011675E+02  0.47787268786E+02  0.19999989702E+02 0.  0.
        -12    1    1    2    0    0 -0.37589654724E+02  0.17221665732E+02  0.13193011675E+02  0.43400731214E+02  0.00000000000E+00 0.  1.
         11    1    3    3    0    0  0.10583121134E+02 -0.90235410282E+01 -0.13013531292E+01  0.13968545588E+02  0.51100000000E-03 0. -1.
        -11    1    3    3    0    0  0.26299352540E+02 -0.61173378155E+01 -0.14303339890E+02  0.30555904475E+02  0.51100000000E-03 0.  1.
        -12    1    3    3    0    0  0.70718104955E+00 -0.20807868885E+01  0.24116813442E+01  0.32628187229E+01  0.00000000000E+00 0.  1.
</event>
<event>
 7    1  0.2497395E-009  0.4778728E+02  0.7816164E-02  0.1312668E+00
        -11   -1    0    0    0    0  0.00000000000E+00  0.00000000000E+00  0.45593999997E+02  0.45594000000E+02  0.51100000000E-03 0.  1.
         11   -1    0    0    0    0 -0.00000000000E+00 -0.00000000000E+00 -0.45593999997E+02  0.45594000000E+02  0.51100000000E-03 0. -1.
    9900012    2    1    2    0    0  0.21194173633E+02  0.22422115348E+02 -0.30523402984E+02  0.47787281315E+02  0.20000046827E+02 0.  0.
        -12    1    1    2    0    0 -0.21194173633E+02 -0.22422115348E+02  0.30523402984E+02  0.43400718685E+02  0.00000000000E+00 0.  1.
         11    1    3    3    0    0  0.23757360971E+02  0.17968956741E+02 -0.20969538445E+02  0.36428246589E+02  0.51100000000E-03 0. -1.
        -11    1    3    3    0    0 -0.13078132001E+01  0.42936237464E+01 -0.54273939365E+01  0.70428818991E+01  0.51100000000E-03 0.  1.
         12    1    3    3    0    0 -0.12553741377E+01  0.15953486059E+00 -0.41264706018E+01  0.43161528269E+01  0.00000000000E+00 0. -1.
</event>
<event>
 7    1  0.2497395E-009  0.4778727E+02  0.7816164E-02  0.1312668E+00
        -11   -1    0    0    0    0  0.00000000000E+00  0.00000000000E+00  0.45593999997E+02  0.45594000000E+02  0.51100000000E-03 0. -1.
         11   -1    0    0    0    0 -0.00000000000E+00 -0.00000000000E+00 -0.45593999997E+02  0.45594000000E+02  0.51100000000E-03 0.  1.
    9900012    2    1    2    0    0 -0.28739941544E+02  0.23946500023E+02 -0.22004641032E+02  0.47787270394E+02  0.19999997035E+02 0.  0.
        -12    1    1    2    0    0  0.28739941544E+02 -0.23946500023E+02  0.22004641032E+02  0.43400729606E+02  0.00000000000E+00 0.  1.
         11    1    3    3    0    0 -0.11663632306E+02  0.10744412986E+01 -0.82439751990E+01  0.14323333062E+02  0.51100000000E-03 0.  1.
        -11    1    3    3    0    0 -0.70564784989E+01  0.17919326951E+02 -0.76221388128E+01  0.20712150239E+02  0.51100000000E-03 0. -1.
         12    1    3    3    0    0 -0.10019830740E+02  0.49527317735E+01 -0.61385270206E+01  0.12751787093E+02  0.00000000000E+00 0. -1.
</event>
<event>
 7    1  0.2497395E-009  0.4778727E+02  0.7816164E-02  0.1312668E+00
        -11   -1    0    0    0    0  0.00000000000E+00  0.00000000000E+00  0.45593999997E+02  0.45594000000E+02  0.51100000000E-03 0. -1.
         11   -1    0    0    0    0 -0.00000000000E+00 -0.00000000000E+00 -0.45593999997E+02  0.45594000000E+02  0.51100000000E-03 0.  1.
    9900012    2    1    2    0    0  0.32467620796E+00  0.16862156316E+02  0.39989817920E+02  0.47787271118E+02  0.20000000334E+02 0.  0.
        -12    1    1    2    0    0 -0.32467620796E+00 -0.16862156316E+02 -0.39989817920E+02  0.43400728882E+02  0.00000000000E+00 0.  1.
         11    1    3    3    0    0 -0.43349126711E+01  0.18712329382E+01  0.71425235031E+00  0.47752630562E+01  0.51100000000E-03 0. -1.
        -11    1    3    3    0    0  0.36575659967E+01  0.73707582189E+01  0.11163840674E+02  0.13868568945E+02  0.51100000000E-03 0.  1.
         12    1    3    3    0    0  0.10020228824E+01  0.76201651588E+01  0.28111724896E+02  0.29143439116E+02  0.00000000000E+00 0. -1.
</event>
<event>
 7    1  0.2497395E-009  0.4778727E+02  0.7816164E-02  0.1312668E+00
        -11   -1    0    0    0    0  0.00000000000E+00  0.00000000000E+00  0.45593999997E+02  0.45594000000E+02  0.51100000000E-03 0.  1.
         11   -1    0    0    0    0 -0.00000000000E+00 -0.00000000000E+00 -0.45593999997E+02  0.45594000000E+02  0.51100000000E-03 0. -1.
    9900012    2    1    2    0    0 -0.18375481055E+02  0.42184175318E+01 -0.39091817355E+02  0.47787268041E+02  0.19999986304E+02 0.  0.
        -12    1    1    2    0    0  0.18375481055E+02 -0.42184175318E+01  0.39091817355E+02  0.43400731959E+02  0.00000000000E+00 0.  1.
         11    1    3    3    0    0 -0.13517954939E+02  0.22543749733E+01 -0.37360568008E+02  0.39794840801E+02  0.51100000000E-03 0. -1.
        -11    1    3    3    0    0  0.95236007632E+00 -0.61723514880E+00  0.51967666107E+00  0.12482119360E+01  0.51100000000E-03 0.  1.
         12    1    3    3    0    0 -0.58098861917E+01  0.25812777073E+01 -0.22509260085E+01  0.67442153034E+01  0.00000000000E+00 0. -1.
</event>
<event>
 7    1  0.2497395E-009  0.4778727E+02  0.7816164E-02  0.1312668E+00
        -11   -1    0    0    0    0  0.00000000000E+00  0.00000000000E+00  0.45593999997E+02  0.45594000000E+02  0.51100000000E-03 0.  1.
         11   -1    0    0    0    0 -0.00000000000E+00 -0.00000000000E+00 -0.45593999997E+02  0.45594000000E+02  0.51100000000E-03 0. -1.
    9900012    2    1    2    0    0 -0.19020395515E+02 -0.14718803731E+02 -0.36127612358E+02  0.47787274159E+02  0.20000014199E+02 0.  0.
        -12    1    1    2    0    0  0.19020395515E+02  0.14718803731E+02  0.36127612358E+02  0.43400725841E+02  0.00000000000E+00 0.  1.
         11    1    3    3    0    0 -0.17386400261E+02 -0.87414026085E+01 -0.27746427938E+02  0.33890460268E+02  0.51100000000E-03 0. -1.
        -11    1    3    3    0    0  0.73091920314E+00  0.11986293288E+01 -0.57143949520E+01  0.58843236721E+01  0.51100000000E-03 0.  1.
         12    1    3    3    0    0 -0.23649144573E+01 -0.71760304517E+01 -0.26667894685E+01  0.80124902186E+01  0.00000000000E+00 0. -1.
</event>
<event>
 7    1  0.2497395E-009  0.4778727E+02  0.7816164E-02  0.1312668E+00
        -11   -1    0    0    0    0  0.00000000000E+00  0.00000000000E+00  0.45593999997E+02  0.45594000000E+02  0.51100000000E-03 0.  1.
         11   -1    0    0    0    0 -0.00000000000E+00 -0.00000000000E+00 -0.45593999997E+02  0.45594000000E+02  0.51100000000E-03 0. -1.
    9900012    2    1    2    0    0 -0.10616338321E+02  0.41642739740E+02  0.60662130759E+01  0.47787270127E+02  0.19999995818E+02 0.  0.
        -12    1    1    2    0    0  0.10616338321E+02 -0.41642739740E+02 -0.60662130759E+01  0.43400729873E+02  0.00000000000E+00 0.  1.
         11    1    3    3    0    0 -0.14001896734E+01  0.25420210916E+02 -0.36871710635E+01  0.25724363643E+02  0.51100000000E-03 0. -1.
        -11    1    3    3    0    0 -0.79947996490E+01  0.93599316799E+01  0.37624974640E+01  0.12871733757E+02  0.51100000000E-03 0.  1.
         12    1    3    3    0    0 -0.12213489987E+01  0.68625971443E+01  0.59908866754E+01  0.91911727271E+01  0.00000000000E+00 0. -1.
</event>
<event>
 7    1  0.2497395E-009  0.4778727E+02  0.7816164E-02  0.1312668E+00
        -11   -1    0    0    0    0  0.00000000000E+00  0.00000000000E+00  0.45593999997E+02  0.45594000000E+02  0.51100000000E-03 0.  1.
         11   -1    0    0    0    0 -0.00000000000E+00 -0.00000000000E+00 -0.45593999997E+02  0.45594000000E+02  0.51100000000E-03 0. -1.
    9900012    2    1    2    0    0  0.28951171142E+02 -0.14599267961E+02 -0.28849855023E+02  0.47787273389E+02  0.20000010691E+02 0.  0.
        -12    1    1    2    0    0 -0.28951171142E+02  0.14599267961E+02  0.28849855023E+02  0.43400726611E+02  0.00000000000E+00 0.  1.
         11    1    3    3    0    0  0.21037674225E+02 -0.52996004253E+01 -0.13728938037E+02  0.25673979850E+02  0.51100000000E-03 0. -1.
        -11    1    3    3    0    0  0.17418005913E+01 -0.73127417287E+01 -0.24960714879E+01  0.79208859368E+01  0.51100000000E-03 0.  1.
         12    1    3    3    0    0  0.61716963261E+01 -0.19869258068E+01 -0.12624845498E+02  0.14192407602E+02  0.00000000000E+00 0. -1.
</event>
<event>
 7    1  0.2497395E-009  0.4778727E+02  0.7816164E-02  0.1312668E+00
        -11   -1    0    0    0    0  0.00000000000E+00  0.00000000000E+00  0.45593999997E+02  0.45594000000E+02  0.51100000000E-03 0.  1.
         11   -1    0    0    0    0 -0.00000000000E+00 -0.00000000000E+00 -0.45593999997E+02  0.45594000000E+02  0.51100000000E-03 0. -1.
    9900012    2    1    2    0    0 -0.42104239974E+02 -0.76383867052E+01  0.72464814599E+01  0.47787268799E+02  0.19999989760E+02 0.  0.
        -12    1    1    2    0    0  0.42104239974E+02  0.76383867052E+01 -0.72464814599E+01  0.43400731201E+02  0.00000000000E+00 0.  1.
         11    1    3    3    0    0 -0.33917566849E+02 -0.57365154236E+01  0.10608308024E+00  0.34399421566E+02  0.51100000000E-03 0. -1.
        -11    1    3    3    0    0 -0.48492384815E+01 -0.48251955187E+01  0.37287727002E+01  0.77911085062E+01  0.51100000000E-03 0.  1.
         12    1    3    3    0    0 -0.33374346433E+01  0.29233242371E+01  0.34116256795E+01  0.55967387263E+01  0.00000000000E+00 0. -1.
</event>
<event>
 7    1  0.2497395E-009  0.4778728E+02  0.7816164E-02  0.1312668E+00
        -11   -1    0    0    0    0  0.00000000000E+00  0.00000000000E+00  0.45593999997E+02  0.45594000000E+02  0.51100000000E-03 0.  1.
         11   -1    0    0    0    0 -0.00000000000E+00 -0.00000000000E+00 -0.45593999997E+02  0.45594000000E+02  0.51100000000E-03 0. -1.
    9900012    2    1    2    0    0 -0.20378827355E+02  0.32713040045E+02  0.19954529941E+02  0.47787275829E+02  0.20000021816E+02 0.  0.
        -12    1    1    2    0    0  0.20378827355E+02 -0.32713040045E+02 -0.19954529941E+02  0.43400724171E+02  0.00000000000E+00 0.  1.
         11    1    3    3    0    0 -0.15118061914E+02  0.30106217121E+02  0.12473512077E+02  0.35923928086E+02  0.51100000000E-03 0. -1.
        -11    1    3    3    0    0 -0.32578844657E+01 -0.21935135575E+01  0.24627631077E+01  0.46357863739E+01  0.51100000000E-03 0.  1.
         12    1    3    3    0    0 -0.20028809753E+01  0.48003364819E+01  0.50182547564E+01  0.72275613688E+01  0.00000000000E+00 0. -1.
</event>
<event>
 7    1  0.2497395E-009  0.4778726E+02  0.7816164E-02  0.1312668E+00
        -11   -1    0    0    0    0  0.00000000000E+00  0.00000000000E+00  0.45593999997E+02  0.45594000000E+02  0.51100000000E-03 0. -1.
         11   -1    0    0    0    0 -0.00000000000E+00 -0.00000000000E+00 -0.45593999997E+02  0.45594000000E+02  0.51100000000E-03 0.  1.
    9900012    2    1    2    0    0  0.56991804219E+01  0.42772448465E+02 -0.46541353487E+01  0.47787262898E+02  0.19999962856E+02 0.  0.
        -12    1    1    2    0    0 -0.56991804219E+01 -0.42772448465E+02  0.46541353487E+01  0.43400737102E+02  0.00000000000E+00 0.  1.
         11    1    3    3    0    0  0.23963158837E+01  0.14306687929E+02  0.39736070916E-01  0.14506041104E+02  0.51100000000E-03 0. -1.
        -11    1    3    3    0    0  0.81629131869E+01  0.10751504447E+02  0.21687372340E+01  0.13672286605E+02  0.51100000000E-03 0.  1.
        -12    1    3    3    0    0 -0.48600486488E+01  0.17714256090E+02 -0.68626086535E+01  0.19608935188E+02  0.00000000000E+00 0.  1.
</event>
<event>
 7    1  0.2497395E-009  0.4778727E+02  0.7816164E-02  0.1312668E+00
        -11   -1    0    0    0    0  0.00000000000E+00  0.00000000000E+00  0.45593999997E+02  0.45594000000E+02  0.51100000000E-03 0. -1.
         11   -1    0    0    0    0 -0.00000000000E+00 -0.00000000000E+00 -0.45593999997E+02  0.45594000000E+02  0.51100000000E-03 0.  1.
    9900012    2    1    2    0    0 -0.41247215798E+02  0.10881902965E+02 -0.79921764367E+01  0.47787268354E+02  0.19999987733E+02 0.  0.
        -12    1    1    2    0    0  0.41247215798E+02 -0.10881902965E+02  0.79921764367E+01  0.43400731646E+02  0.00000000000E+00 0.  1.
         11    1    3    3    0    0 -0.31353648601E+02  0.56891292244E+01 -0.10866390718E+02  0.33667431138E+02  0.51100000000E-03 0. -1.
        -11    1    3    3    0    0 -0.87823744751E+01  0.60754806265E+01  0.48159967141E+01  0.11714750995E+02  0.51100000000E-03 0.  1.
         12    1    3    3    0    0 -0.11111927214E+01 -0.88270688606E+00 -0.19417824331E+01  0.24050862206E+01  0.00000000000E+00 0. -1.
</event>
<event>
 7    1  0.2497395E-009  0.4778727E+02  0.7816164E-02  0.1312668E+00
        -11   -1    0    0    0    0  0.00000000000E+00  0.00000000000E+00  0.45593999997E+02  0.45594000000E+02  0.51100000000E-03 0.  1.
         11   -1    0    0    0    0 -0.00000000000E+00 -0.00000000000E+00 -0.45593999997E+02  0.45594000000E+02  0.51100000000E-03 0. -1.
    9900012    2    1    2    0    0 -0.11849092867E+02  0.25046651773E+02 -0.33404902543E+02  0.47787270966E+02  0.19999999642E+02 0.  0.
        -12    1    1    2    0    0  0.11849092867E+02 -0.25046651773E+02  0.33404902543E+02  0.43400729034E+02  0.00000000000E+00 0.  1.
         11    1    3    3    0    0  0.40377548113E+01  0.10112939499E+02 -0.11345247876E+02  0.15725446222E+02  0.51100000000E-03 0. -1.
        -11    1    3    3    0    0 -0.75114848523E+01  0.69451869401E+01 -0.16016527677E+02  0.19004925293E+02  0.51100000000E-03 0.  1.
         12    1    3    3    0    0 -0.83753628256E+01  0.79885253337E+01 -0.60431269895E+01  0.13056899451E+02  0.00000000000E+00 0. -1.
</event>
<event>
 7    1  0.2497395E-009  0.4778727E+02  0.7816164E-02  0.1312668E+00
        -11   -1    0    0    0    0  0.00000000000E+00  0.00000000000E+00  0.45593999997E+02  0.45594000000E+02  0.51100000000E-03 0.  1.
         11   -1    0    0    0    0 -0.00000000000E+00 -0.00000000000E+00 -0.45593999997E+02  0.45594000000E+02  0.51100000000E-03 0. -1.
    9900012    2    1    2    0    0 -0.10559673667E+02  0.13684790811E+02 -0.39810087143E+02  0.47787271367E+02  0.20000001472E+02 0.  0.
        -12    1    1    2    0    0  0.10559673667E+02 -0.13684790811E+02  0.39810087143E+02  0.43400728633E+02  0.00000000000E+00 0.  1.
         11    1    3    3    0    0 -0.83269185035E+01  0.14610635473E+02 -0.40662847832E+02  0.44003129829E+02  0.51100000000E-03 0. -1.
        -11    1    3    3    0    0 -0.97946447505E+00 -0.23767173987E+00  0.18042562230E+01  0.20666831622E+01  0.51100000000E-03 0.  1.
         12    1    3    3    0    0 -0.12532906883E+01 -0.68817292239E+00 -0.95149553411E+00  0.17174583756E+01  0.00000000000E+00 0. -1.
</event>
<event>
 7    1  0.2497395E-009  0.4778727E+02  0.7816164E-02  0.1312668E+00
        -11   -1    0    0    0    0  0.00000000000E+00  0.00000000000E+00  0.45593999997E+02  0.45594000000E+02  0.51100000000E-03 0.  1.
         11   -1    0    0    0    0 -0.00000000000E+00 -0.00000000000E+00 -0.45593999997E+02  0.45594000000E+02  0.51100000000E-03 0. -1.
    9900012    2    1    2    0    0 -0.21724645343E+02 -0.24696750300E+02 -0.28314898100E+02  0.47787272529E+02  0.20000006767E+02 0.  0.
        -12    1    1    2    0    0  0.21724645343E+02  0.24696750300E+02  0.28314898100E+02  0.43400727471E+02  0.00000000000E+00 0.  1.
         11    1    3    3    0    0 -0.13109301310E+02 -0.21154047274E+02 -0.18789799226E+02  0.31183393852E+02  0.51100000000E-03 0. -1.
        -11    1    3    3    0    0  0.18624406230E+01  0.60053939678E+00 -0.30053628634E+01  0.35862987666E+01  0.51100000000E-03 0.  1.
        -12    1    3    3    0    0 -0.10477784656E+02 -0.41432424219E+01 -0.65197360097E+01  0.13017579910E+02  0.00000000000E+00 0.  1.
</event>
<event>
 7    1  0.2497395E-009  0.4778726E+02  0.7816164E-02  0.1312668E+00
        -11   -1    0    0    0    0  0.00000000000E+00  0.00000000000E+00  0.45593999997E+02  0.45594000000E+02  0.51100000000E-03 0.  1.
         11   -1    0    0    0    0 -0.00000000000E+00 -0.00000000000E+00 -0.45593999997E+02  0.45594000000E+02  0.51100000000E-03 0. -1.
    9900012    2    1    2    0    0  0.19573935546E+02 -0.72540855827E+01 -0.38050807360E+02  0.47787255178E+02  0.19999927656E+02 0.  0.
        -12    1    1    2    0    0 -0.19573935546E+02  0.72540855827E+01  0.38050807360E+02  0.43400744822E+02  0.00000000000E+00 0.  1.
         11    1    3    3    0    0  0.10701454420E+02 -0.43392661332E+01 -0.16036567714E+02  0.19761625985E+02  0.51100000000E-03 0. -1.
        -11    1    3    3    0    0  0.44916732371E+01 -0.88666789738E+01 -0.12064726311E+02  0.15631722417E+02  0.51100000000E-03 0.  1.
        -12    1    3    3    0    0  0.43808078892E+01  0.59518595244E+01 -0.99495133349E+01  0.12393906776E+02  0.00000000000E+00 0.  1.
</event>
<event>
 7    1  0.2497395E-009  0.4778727E+02  0.7816164E-02  0.1312668E+00
        -11   -1    0    0    0    0  0.00000000000E+00  0.00000000000E+00  0.45593999997E+02  0.45594000000E+02  0.51100000000E-03 0.  1.
         11   -1    0    0    0    0 -0.00000000000E+00 -0.00000000000E+00 -0.45593999997E+02  0.45594000000E+02  0.51100000000E-03 0. -1.
    9900012    2    1    2    0    0  0.16168841346E+02  0.20984129963E+02 -0.34378168944E+02  0.47787266818E+02  0.19999980731E+02 0.  0.
        -12    1    1    2    0    0 -0.16168841346E+02 -0.20984129963E+02  0.34378168944E+02  0.43400733182E+02  0.00000000000E+00 0.  1.
         11    1    3    3    0    0  0.14420129498E+02  0.14603685353E+02 -0.16236629293E+02  0.26169369340E+02  0.51100000000E-03 0. -1.
        -11    1    3    3    0    0 -0.39420915419E+01  0.17110320644E+01 -0.80705317923E+01  0.91433691888E+01  0.51100000000E-03 0.  1.
        -12    1    3    3    0    0  0.56908033905E+01  0.46694125465E+01 -0.10071007858E+02  0.12474528289E+02  0.00000000000E+00 0.  1.
</event>
<event>
 7    1  0.2497395E-009  0.4778728E+02  0.7816164E-02  0.1312668E+00
        -11   -1    0    0    0    0  0.00000000000E+00  0.00000000000E+00  0.45593999997E+02  0.45594000000E+02  0.51100000000E-03 0.  1.
         11   -1    0    0    0    0 -0.00000000000E+00 -0.00000000000E+00 -0.45593999997E+02  0.45594000000E+02  0.51100000000E-03 0. -1.
    9900012    2    1    2    0    0  0.12456952536E+02 -0.33924918471E+02 -0.24032208827E+02  0.47787276264E+02  0.20000023797E+02 0.  0.
        -12    1    1    2    0    0 -0.12456952536E+02  0.33924918471E+02  0.24032208827E+02  0.43400723736E+02  0.00000000000E+00 0.  1.
         11    1    3    3    0    0  0.80588546893E+00 -0.22463990094E+02 -0.10273855970E+02  0.24715024158E+02  0.51100000000E-03 0. -1.
        -11    1    3    3    0    0  0.15946349479E+01  0.16835386846E+00  0.89240315408E+00  0.18350987147E+01  0.51100000000E-03 0.  1.
         12    1    3    3    0    0  0.10056432119E+02 -0.11629282245E+02 -0.14650756010E+02  0.21237153391E+02  0.00000000000E+00 0. -1.
</event>
<event>
 7    1  0.2497395E-009  0.4778727E+02  0.7816164E-02  0.1312668E+00
        -11   -1    0    0    0    0  0.00000000000E+00  0.00000000000E+00  0.45593999997E+02  0.45594000000E+02  0.51100000000E-03 0. -1.
         11   -1    0    0    0    0 -0.00000000000E+00 -0.00000000000E+00 -0.45593999997E+02  0.45594000000E+02  0.51100000000E-03 0.  1.
    9900012    2    1    2    0    0  0.10306094227E+02 -0.11702134599E+02  0.40502688617E+02  0.47787270541E+02  0.19999997704E+02 0.  0.
        -12    1    1    2    0    0 -0.10306094227E+02  0.11702134599E+02 -0.40502688617E+02  0.43400729459E+02  0.00000000000E+00 0.  1.
         11    1    3    3    0    0 -0.12651962091E+01 -0.65931029481E+01  0.59712417648E+01  0.89847346319E+01  0.51100000000E-03 0. -1.
        -11    1    3    3    0    0  0.46288498493E+01 -0.46320688019E+00  0.27479324624E+02  0.27870308459E+02  0.51100000000E-03 0.  1.
        -12    1    3    3    0    0  0.69424405869E+01 -0.46458247707E+01  0.70521222280E+01  0.10932227450E+02  0.00000000000E+00 0.  1.
</event>
<event>
 7    1  0.2497395E-009  0.4778725E+02  0.7816164E-02  0.1312668E+00
        -11   -1    0    0    0    0  0.00000000000E+00  0.00000000000E+00  0.45593999997E+02  0.45594000000E+02  0.51100000000E-03 0. -1.
         11   -1    0    0    0    0 -0.00000000000E+00 -0.00000000000E+00 -0.45593999997E+02  0.45594000000E+02  0.51100000000E-03 0.  1.
    9900012    2    1    2    0    0 -0.17885061761E+02 -0.12018696832E+02  0.37673609342E+02  0.47787247143E+02  0.19999891023E+02 0.  0.
        -12    1    1    2    0    0  0.17885061761E+02  0.12018696832E+02 -0.37673609342E+02  0.43400752857E+02  0.00000000000E+00 0.  1.
         11    1    3    3    0    0 -0.12503049263E+02 -0.11435244468E+02  0.34013164709E+02  0.37999821456E+02  0.51100000000E-03 0. -1.
        -11    1    3    3    0    0 -0.63124972048E+01 -0.21693823206E+01  0.13083115442E+01  0.68018762097E+01  0.51100000000E-03 0.  1.
         12    1    3    3    0    0  0.93048470673E+00  0.15859299563E+01  0.23521330885E+01  0.29855494774E+01  0.00000000000E+00 0. -1.
</event>
<event>
 7    1  0.2497395E-009  0.4778726E+02  0.7816164E-02  0.1312668E+00
        -11   -1    0    0    0    0  0.00000000000E+00  0.00000000000E+00  0.45593999997E+02  0.45594000000E+02  0.51100000000E-03 0.  1.
         11   -1    0    0    0    0 -0.00000000000E+00 -0.00000000000E+00 -0.45593999997E+02  0.45594000000E+02  0.51100000000E-03 0. -1.
    9900012    2    1    2    0    0 -0.68947194133E+01 -0.30684242110E+02 -0.29909269852E+02  0.47787259306E+02  0.19999946482E+02 0.  0.
        -12    1    1    2    0    0  0.68947194133E+01  0.30684242110E+02  0.29909269852E+02  0.43400740694E+02  0.00000000000E+00 0.  1.
         11    1    3    3    0    0 -0.49686632103E+00 -0.10000122780E+02 -0.55811142286E+01  0.11462903997E+02  0.51100000000E-03 0. -1.
        -11    1    3    3    0    0 -0.50527629404E+01 -0.23027220348E+02 -0.23932383017E+02  0.33593782869E+02  0.51100000000E-03 0.  1.
        -12    1    3    3    0    0 -0.13450901518E+01  0.23431010178E+01 -0.39577260612E+00  0.27305724403E+01  0.00000000000E+00 0.  1.
</event>
<event>
 7    1  0.2497395E-009  0.4778727E+02  0.7816164E-02  0.1312668E+00
        -11   -1    0    0    0    0  0.00000000000E+00  0.00000000000E+00  0.45593999997E+02  0.45594000000E+02  0.51100000000E-03 0.  1.
         11   -1    0    0    0    0 -0.00000000000E+00 -0.00000000000E+00 -0.45593999997E+02  0.45594000000E+02  0.51100000000E-03 0. -1.
    9900012    2    1    2    0    0  0.40970859145E+02 -0.35108301846E+01  0.13881141811E+02  0.47787270448E+02  0.19999997282E+02 0.  0.
        -12    1    1    2    0    0 -0.40970859145E+02  0.35108301846E+01 -0.13881141811E+02  0.43400729552E+02  0.00000000000E+00 0.  1.
         11    1    3    3    0    0  0.20407855181E+02 -0.85921139864E+01  0.20463285738E+01  0.22237185899E+02  0.51100000000E-03 0. -1.
        -11    1    3    3    0    0  0.19137314737E+02  0.53119322262E+01  0.79277437658E+01  0.21384633754E+02  0.51100000000E-03 0.  1.
         12    1    3    3    0    0  0.14256892271E+01 -0.23064842443E+00  0.39070694719E+01  0.41654507951E+01  0.00000000000E+00 0. -1.
</event>
<event>
 7    1  0.2497395E-009  0.4778727E+02  0.7816164E-02  0.1312668E+00
        -11   -1    0    0    0    0  0.00000000000E+00  0.00000000000E+00  0.45593999997E+02  0.45594000000E+02  0.51100000000E-03 0.  1.
         11   -1    0    0    0    0 -0.00000000000E+00 -0.00000000000E+00 -0.45593999997E+02  0.45594000000E+02  0.51100000000E-03 0. -1.
    9900012    2    1    2    0    0  0.33860798984E+02  0.20614196461E+02 -0.17667044434E+02  0.47787271174E+02  0.20000000591E+02 0.  0.
        -12    1    1    2    0    0 -0.33860798984E+02 -0.20614196461E+02  0.17667044434E+02  0.43400728826E+02  0.00000000000E+00 0.  1.
         11    1    3    3    0    0  0.23855788411E+02  0.13027049292E+02 -0.18962174595E+02  0.33141616128E+02  0.51100000000E-03 0. -1.
        -11    1    3    3    0    0  0.56425160237E+00  0.18977437436E+00 -0.20983119087E+01  0.21811252397E+01  0.51100000000E-03 0.  1.
         12    1    3    3    0    0  0.94407589709E+01  0.73973727946E+01  0.33934420695E+01  0.12464529806E+02  0.00000000000E+00 0. -1.
</event>
<event>
 7    1  0.2497395E-009  0.4778727E+02  0.7816164E-02  0.1312668E+00
        -11   -1    0    0    0    0  0.00000000000E+00  0.00000000000E+00  0.45593999997E+02  0.45594000000E+02  0.51100000000E-03 0.  1.
         11   -1    0    0    0    0 -0.00000000000E+00 -0.00000000000E+00 -0.45593999997E+02  0.45594000000E+02  0.51100000000E-03 0. -1.
    9900012    2    1    2    0    0 -0.42014992527E+02  0.57943100623E+01  0.92081345339E+01  0.47787269963E+02  0.19999995069E+02 0.  0.
        -12    1    1    2    0    0  0.42014992527E+02 -0.57943100623E+01 -0.92081345339E+01  0.43400730037E+02  0.00000000000E+00 0.  1.
         11    1    3    3    0    0 -0.12551660263E+02  0.29769045392E+01 -0.45377357102E+01  0.13674691281E+02  0.51100000000E-03 0. -1.
        -11    1    3    3    0    0 -0.12077613040E+02 -0.36391127426E+01  0.66128865262E+01  0.14242266209E+02  0.51100000000E-03 0.  1.
         12    1    3    3    0    0 -0.17385719224E+02  0.64565182657E+01  0.71329837179E+01  0.19870312473E+02  0.00000000000E+00 0. -1.
</event>
<event>
 7    1  0.2497395E-009  0.4778727E+02  0.7816164E-02  0.1312668E+00
        -11   -1    0    0    0    0  0.00000000000E+00  0.00000000000E+00  0.45593999997E+02  0.45594000000E+02  0.51100000000E-03 0.  1.
         11   -1    0    0    0    0 -0.00000000000E+00 -0.00000000000E+00 -0.45593999997E+02  0.45594000000E+02  0.51100000000E-03 0. -1.
    9900012    2    1    2    0    0 -0.19201167539E+02  0.19488892986E+02 -0.33691565541E+02  0.47787269900E+02  0.19999994780E+02 0.  0.
        -12    1    1    2    0    0  0.19201167539E+02 -0.19488892986E+02  0.33691565541E+02  0.43400730100E+02  0.00000000000E+00 0.  1.
         11    1    3    3    0    0 -0.74424839353E+01  0.19495011527E+02 -0.19820254058E+02  0.28780001959E+02  0.51100000000E-03 0. -1.
        -11    1    3    3    0    0 -0.71241995518E+01  0.90059657050E+00 -0.11881305072E+02  0.13882748428E+02  0.51100000000E-03 0.  1.
        -12    1    3    3    0    0 -0.46344840518E+01 -0.90671511207E+00 -0.19900064109E+01  0.51245195127E+01  0.00000000000E+00 0.  1.
</event>
<event>
 7    1  0.2497395E-009  0.4778727E+02  0.7816164E-02  0.1312668E+00
        -11   -1    0    0    0    0  0.00000000000E+00  0.00000000000E+00  0.45593999997E+02  0.45594000000E+02  0.51100000000E-03 0.  1.
         11   -1    0    0    0    0 -0.00000000000E+00 -0.00000000000E+00 -0.45593999997E+02  0.45594000000E+02  0.51100000000E-03 0. -1.
    9900012    2    1    2    0    0 -0.15527044212E+02 -0.39606070400E+02 -0.85961138008E+01  0.47787273198E+02  0.20000009818E+02 0.  0.
        -12    1    1    2    0    0  0.15527044212E+02  0.39606070400E+02  0.85961138008E+01  0.43400726802E+02  0.00000000000E+00 0.  1.
         11    1    3    3    0    0 -0.95329288979E+01 -0.27620046708E+02 -0.59235898783E+00  0.29224896971E+02  0.51100000000E-03 0. -1.
        -11    1    3    3    0    0  0.20599388657E-01  0.17210232872E+01 -0.13213469116E+01  0.21698625329E+01  0.51100000000E-03 0.  1.
        -12    1    3    3    0    0 -0.60147147032E+01 -0.13707046979E+02 -0.66824079014E+01  0.16392513694E+02  0.00000000000E+00 0.  1.
</event>
<event>
 7    1  0.2497395E-009  0.4778727E+02  0.7816164E-02  0.1312668E+00
        -11   -1    0    0    0    0  0.00000000000E+00  0.00000000000E+00  0.45593999997E+02  0.45594000000E+02  0.51100000000E-03 0.  1.
         11   -1    0    0    0    0 -0.00000000000E+00 -0.00000000000E+00 -0.45593999997E+02  0.45594000000E+02  0.51100000000E-03 0. -1.
    9900012    2    1    2    0    0 -0.17460688148E+02  0.17863152521E+02 -0.35491624756E+02  0.47787271015E+02  0.19999999866E+02 0.  0.
        -12    1    1    2    0    0  0.17460688148E+02 -0.17863152521E+02  0.35491624756E+02  0.43400728985E+02  0.00000000000E+00 0.  1.
         11    1    3    3    0    0 -0.12746061293E+02  0.15032886936E+02 -0.34821620003E+02  0.40012435417E+02  0.51100000000E-03 0. -1.
        -11    1    3    3    0    0 -0.12687937556E+01 -0.14792723311E+01  0.73186881913E+00  0.20817580199E+01  0.51100000000E-03 0.  1.
         12    1    3    3    0    0 -0.34458330995E+01  0.43095379157E+01 -0.14018735729E+01  0.56930775782E+01  0.00000000000E+00 0. -1.
</event>
<event>
 7    1  0.2497395E-009  0.4778727E+02  0.7816164E-02  0.1312668E+00
        -11   -1    0    0    0    0  0.00000000000E+00  0.00000000000E+00  0.45593999997E+02  0.45594000000E+02  0.51100000000E-03 0. -1.
         11   -1    0    0    0    0 -0.00000000000E+00 -0.00000000000E+00 -0.45593999997E+02  0.45594000000E+02  0.51100000000E-03 0.  1.
    9900012    2    1    2    0    0 -0.31566985813E+02 -0.29709611940E+02 -0.21184232341E+01  0.47787270145E+02  0.19999995900E+02 0.  0.
        -12    1    1    2    0    0  0.31566985813E+02  0.29709611940E+02  0.21184232341E+01  0.43400729855E+02  0.00000000000E+00 0.  1.
         11    1    3    3    0    0 -0.93934319026E+01 -0.10868521461E+02  0.15285936526E+01  0.14446380878E+02  0.51100000000E-03 0. -1.
        -11    1    3    3    0    0  0.63245632656E+00 -0.57840758713E+01  0.25309970024E+01  0.63451935177E+01  0.51100000000E-03 0.  1.
        -12    1    3    3    0    0 -0.22806010237E+02 -0.13057014608E+02 -0.61780138892E+01  0.26995695750E+02  0.00000000000E+00 0.  1.
</event>
<event>
 7    1  0.2497395E-009  0.4778727E+02  0.7816164E-02  0.1312668E+00
        -11   -1    0    0    0    0  0.00000000000E+00  0.00000000000E+00  0.45593999997E+02  0.45594000000E+02  0.51100000000E-03 0.  1.
         11   -1    0    0    0    0 -0.00000000000E+00 -0.00000000000E+00 -0.45593999997E+02  0.45594000000E+02  0.51100000000E-03 0. -1.
    9900012    2    1    2    0    0  0.19612252088E+02  0.35136185388E+02 -0.16261343208E+02  0.47787271451E+02  0.20000001856E+02 0.  0.
        -12    1    1    2    0    0 -0.19612252088E+02 -0.35136185388E+02  0.16261343208E+02  0.43400728549E+02  0.00000000000E+00 0.  1.
         11    1    3    3    0    0 -0.79027876981E+00  0.12633143373E+02 -0.67366858672E+01  0.14338890778E+02  0.51100000000E-03 0. -1.
        -11    1    3    3    0    0  0.14776751008E+02  0.21488240165E+02 -0.94293246795E+01  0.27731011520E+02  0.51100000000E-03 0.  1.
        -12    1    3    3    0    0  0.56257798505E+01  0.10148018502E+01 -0.95332661189E-01  0.57173691535E+01  0.00000000000E+00 0.  1.
</event>
<event>
 7    1  0.2497395E-009  0.4778727E+02  0.7816164E-02  0.1312668E+00
        -11   -1    0    0    0    0  0.00000000000E+00  0.00000000000E+00  0.45593999997E+02  0.45594000000E+02  0.51100000000E-03 0.  1.
         11   -1    0    0    0    0 -0.00000000000E+00 -0.00000000000E+00 -0.45593999997E+02  0.45594000000E+02  0.51100000000E-03 0. -1.
    9900012    2    1    2    0    0 -0.27261432226E+02  0.18381395791E+02 -0.28329528505E+02  0.47787267477E+02  0.19999983734E+02 0.  0.
        -12    1    1    2    0    0  0.27261432226E+02 -0.18381395791E+02  0.28329528505E+02  0.43400732523E+02  0.00000000000E+00 0.  1.
         11    1    3    3    0    0 -0.13170205530E+02  0.13246377285E+02 -0.49692687817E+01  0.19329109068E+02  0.51100000000E-03 0. -1.
        -11    1    3    3    0    0 -0.13324258514E+02  0.34035054747E+01 -0.17248384708E+02  0.22059612186E+02  0.51100000000E-03 0.  1.
        -12    1    3    3    0    0 -0.76696818161E+00  0.17315130307E+01 -0.61118750152E+01  0.63985462230E+01  0.00000000000E+00 0.  1.
</event>
<event>
 7    1  0.2497395E-009  0.4778727E+02  0.7816164E-02  0.1312668E+00
        -11   -1    0    0    0    0  0.00000000000E+00  0.00000000000E+00  0.45593999997E+02  0.45594000000E+02  0.51100000000E-03 0. -1.
         11   -1    0    0    0    0 -0.00000000000E+00 -0.00000000000E+00 -0.45593999997E+02  0.45594000000E+02  0.51100000000E-03 0.  1.
    9900012    2    1    2    0    0  0.24049378689E+02  0.22518233514E+02  0.28252079990E+02  0.47787268673E+02  0.19999989189E+02 0.  0.
        -12    1    1    2    0    0 -0.24049378689E+02 -0.22518233514E+02 -0.28252079990E+02  0.43400731327E+02  0.00000000000E+00 0.  1.
         11    1    3    3    0    0  0.22200026629E+02  0.21338256108E+02  0.18208363128E+02  0.35772990427E+02  0.51100000000E-03 0. -1.
        -11    1    3    3    0    0  0.23051598152E+01 -0.20294835198E+01  0.66290664514E+01  0.73059624561E+01  0.51100000000E-03 0.  1.
         12    1    3    3    0    0 -0.45580775553E+00  0.32094609265E+01  0.34146504107E+01  0.47083157897E+01  0.00000000000E+00 0. -1.
</event>
<event>
 7    1  0.2497395E-009  0.4778728E+02  0.7816164E-02  0.1312668E+00
        -11   -1    0    0    0    0  0.00000000000E+00  0.00000000000E+00  0.45593999997E+02  0.45594000000E+02  0.51100000000E-03 0.  1.
         11   -1    0    0    0    0 -0.00000000000E+00 -0.00000000000E+00 -0.45593999997E+02  0.45594000000E+02  0.51100000000E-03 0. -1.
    9900012    2    1    2    0    0 -0.35209304939E+01 -0.30304761866E+02 -0.30868225929E+02  0.47787275175E+02  0.20000018834E+02 0.  0.
        -12    1    1    2    0    0  0.35209304939E+01  0.30304761866E+02  0.30868225929E+02  0.43400724825E+02  0.00000000000E+00 0.  1.
         11    1    3    3    0    0 -0.49431616852E-01 -0.10035830298E+02 -0.13107813055E+01  0.10121189710E+02  0.51100000000E-03 0. -1.
        -11    1    3    3    0    0 -0.59004964063E+00 -0.78691623163E+01 -0.34342125889E+01  0.86061426032E+01  0.51100000000E-03 0.  1.
         12    1    3    3    0    0 -0.28814492364E+01 -0.12399769251E+02 -0.26123232035E+02  0.29059942862E+02  0.00000000000E+00 0. -1.
</event>
<event>
 7    1  0.2497395E-009  0.4778727E+02  0.7816164E-02  0.1312668E+00
        -11   -1    0    0    0    0  0.00000000000E+00  0.00000000000E+00  0.45593999997E+02  0.45594000000E+02  0.51100000000E-03 0.  1.
         11   -1    0    0    0    0 -0.00000000000E+00 -0.00000000000E+00 -0.45593999997E+02  0.45594000000E+02  0.51100000000E-03 0. -1.
    9900012    2    1    2    0    0 -0.12252544680E+02  0.31134344882E+02  0.27643279125E+02  0.47787272320E+02  0.20000005815E+02 0.  0.
        -12    1    1    2    0    0  0.12252544680E+02 -0.31134344882E+02 -0.27643279125E+02  0.43400727680E+02  0.00000000000E+00 0.  1.
         11    1    3    3    0    0 -0.13141222528E+02  0.31038836993E+02  0.20979986555E+02  0.39702153184E+02  0.51100000000E-03 0. -1.
        -11    1    3    3    0    0 -0.99294542243E-01  0.37722439022E+00  0.69947516852E+01  0.70056198188E+01  0.51100000000E-03 0.  1.
         12    1    3    3    0    0  0.98797239004E+00 -0.28171650044E+00 -0.33145911499E+00  0.10794993168E+01  0.00000000000E+00 0. -1.
</event>
<event>
 7    1  0.2497395E-009  0.4778727E+02  0.7816164E-02  0.1312668E+00
        -11   -1    0    0    0    0  0.00000000000E+00  0.00000000000E+00  0.45593999997E+02  0.45594000000E+02  0.51100000000E-03 0.  1.
         11   -1    0    0    0    0 -0.00000000000E+00 -0.00000000000E+00 -0.45593999997E+02  0.45594000000E+02  0.51100000000E-03 0. -1.
    9900012    2    1    2    0    0  0.15707416667E+02 -0.30719887090E+02 -0.26328474303E+02  0.47787274657E+02  0.20000016471E+02 0.  0.
        -12    1    1    2    0    0 -0.15707416667E+02  0.30719887090E+02  0.26328474303E+02  0.43400725343E+02  0.00000000000E+00 0.  1.
         11    1    3    3    0    0  0.13423185691E+02 -0.94459687137E+01 -0.99384388423E+01  0.19188038094E+02  0.51100000000E-03 0. -1.
        -11    1    3    3    0    0  0.23355432529E+01 -0.17112663051E+01 -0.54851887525E+01  0.62024584291E+01  0.51100000000E-03 0.  1.
         12    1    3    3    0    0 -0.51312276905E-01 -0.19562652072E+02 -0.10904846708E+02  0.22396778133E+02  0.00000000000E+00 0. -1.
</event>
<event>
 7    1  0.2497395E-009  0.4778727E+02  0.7816164E-02  0.1312668E+00
        -11   -1    0    0    0    0  0.00000000000E+00  0.00000000000E+00  0.45593999997E+02  0.45594000000E+02  0.51100000000E-03 0.  1.
         11   -1    0    0    0    0 -0.00000000000E+00 -0.00000000000E+00 -0.45593999997E+02  0.45594000000E+02  0.51100000000E-03 0. -1.
    9900012    2    1    2    0    0  0.42542232863E+02  0.55978463322E+01 -0.65150405323E+01  0.47787271738E+02  0.20000003164E+02 0.  0.
        -12    1    1    2    0    0 -0.42542232863E+02 -0.55978463322E+01  0.65150405323E+01  0.43400728262E+02  0.00000000000E+00 0.  1.
         11    1    3    3    0    0  0.13805001566E+02  0.33208992659E+01 -0.23829269366E+01  0.14397388000E+02  0.51100000000E-03 0. -1.
        -11    1    3    3    0    0  0.22464229638E+02  0.70199281822E+01 -0.76876021397E+01  0.24759245381E+02  0.51100000000E-03 0.  1.
        -12    1    3    3    0    0  0.62730016582E+01 -0.47429811159E+01  0.35554885440E+01  0.86306383574E+01  0.00000000000E+00 0.  1.
</event>
<event>
 7    1  0.2497395E-009  0.4778727E+02  0.7816164E-02  0.1312668E+00
        -11   -1    0    0    0    0  0.00000000000E+00  0.00000000000E+00  0.45593999997E+02  0.45594000000E+02  0.51100000000E-03 0. -1.
         11   -1    0    0    0    0 -0.00000000000E+00 -0.00000000000E+00 -0.45593999997E+02  0.45594000000E+02  0.51100000000E-03 0.  1.
    9900012    2    1    2    0    0 -0.41006878690E+02  0.13824570635E+02 -0.33076678274E+01  0.47787268214E+02  0.19999987094E+02 0.  0.
        -12    1    1    2    0    0  0.41006878690E+02 -0.13824570635E+02  0.33076678274E+01  0.43400731786E+02  0.00000000000E+00 0.  1.
         11    1    3    3    0    0  0.16189145685E+01 -0.80053505030E-01  0.40398987854E+00  0.16704792806E+01  0.51100000000E-03 0. -1.
        -11    1    3    3    0    0 -0.14114630220E+01  0.99479068660E+00  0.18969436329E+01  0.25651962460E+01  0.51100000000E-03 0.  1.
         12    1    3    3    0    0 -0.41214330236E+02  0.12909833453E+02 -0.56086013389E+01  0.43551592687E+02  0.00000000000E+00 0. -1.
</event>
<event>
 7    1  0.2497395E-009  0.4778727E+02  0.7816164E-02  0.1312668E+00
        -11   -1    0    0    0    0  0.00000000000E+00  0.00000000000E+00  0.45593999997E+02  0.45594000000E+02  0.51100000000E-03 0.  1.
         11   -1    0    0    0    0 -0.00000000000E+00 -0.00000000000E+00 -0.45593999997E+02  0.45594000000E+02  0.51100000000E-03 0. -1.
    9900012    2    1    2    0    0  0.15682822538E+02  0.32943228309E+02 -0.23503534519E+02  0.47787270178E+02  0.19999996050E+02 0.  0.
        -12    1    1    2    0    0 -0.15682822538E+02 -0.32943228309E+02  0.23503534519E+02  0.43400729822E+02  0.00000000000E+00 0.  1.
         11    1    3    3    0    0  0.77656594990E+01  0.29402045557E+02 -0.16086058460E+02  0.34402718315E+02  0.51100000000E-03 0. -1.
        -11    1    3    3    0    0  0.61052304294E+01 -0.10383849880E+01 -0.36997316226E+01  0.72138821948E+01  0.51100000000E-03 0.  1.
        -12    1    3    3    0    0  0.18119326100E+01  0.45795677393E+01 -0.37177444364E+01  0.61706696684E+01  0.00000000000E+00 0.  1.
</event>
<event>
 7    1  0.2497395E-009  0.4778727E+02  0.7816164E-02  0.1312668E+00
        -11   -1    0    0    0    0  0.00000000000E+00  0.00000000000E+00  0.45593999997E+02  0.45594000000E+02  0.51100000000E-03 0.  1.
         11   -1    0    0    0    0 -0.00000000000E+00 -0.00000000000E+00 -0.45593999997E+02  0.45594000000E+02  0.51100000000E-03 0. -1.
    9900012    2    1    2    0    0 -0.19950388636E+02  0.37120285101E+02  0.10377368964E+02  0.47787270060E+02  0.19999995513E+02 0.  0.
        -12    1    1    2    0    0  0.19950388636E+02 -0.37120285101E+02 -0.10377368964E+02  0.43400729940E+02  0.00000000000E+00 0.  1.
         11    1    3    3    0    0 -0.16958164166E+01  0.19152391180E+02  0.85007748163E+01  0.21022679515E+02  0.51100000000E-03 0.  1.
        -11    1    3    3    0    0 -0.45575063908E+01  0.95077616985E+01 -0.10313842414E+00  0.10544146946E+02  0.51100000000E-03 0. -1.
         12    1    3    3    0    0 -0.13697065828E+02  0.84601322218E+01  0.19797325715E+01  0.16220443600E+02  0.00000000000E+00 0. -1.
</event>
<event>
 7    1  0.2497395E-009  0.4778727E+02  0.7816164E-02  0.1312668E+00
        -11   -1    0    0    0    0  0.00000000000E+00  0.00000000000E+00  0.45593999997E+02  0.45594000000E+02  0.51100000000E-03 0.  1.
         11   -1    0    0    0    0 -0.00000000000E+00 -0.00000000000E+00 -0.45593999997E+02  0.45594000000E+02  0.51100000000E-03 0. -1.
    9900012    2    1    2    0    0 -0.30419789144E+02 -0.11137317480E+01 -0.30935725133E+02  0.47787273514E+02  0.20000011260E+02 0.  0.
        -12    1    1    2    0    0  0.30419789144E+02  0.11137317480E+01  0.30935725133E+02  0.43400726486E+02  0.00000000000E+00 0.  1.
         11    1    3    3    0    0 -0.58349048383E+01  0.33500305135E+01 -0.12199697924E+02  0.13932029595E+02  0.51100000000E-03 0. -1.
        -11    1    3    3    0    0  0.14045656243E+01  0.12857525424E+00 -0.24957831929E+01  0.28667525522E+01  0.51100000000E-03 0.  1.
         12    1    3    3    0    0 -0.25989449930E+02 -0.45923375158E+01 -0.16240244016E+02  0.30988491367E+02  0.00000000000E+00 0. -1.
</event>
<event>
 7    1  0.2497395E-009  0.4778727E+02  0.7816164E-02  0.1312668E+00
        -11   -1    0    0    0    0  0.00000000000E+00  0.00000000000E+00  0.45593999997E+02  0.45594000000E+02  0.51100000000E-03 0.  1.
         11   -1    0    0    0    0 -0.00000000000E+00 -0.00000000000E+00 -0.45593999997E+02  0.45594000000E+02  0.51100000000E-03 0. -1.
    9900012    2    1    2    0    0  0.49054214049E+01 -0.35977546957E+02 -0.23773434310E+02  0.47787271629E+02  0.20000002666E+02 0.  0.
        -12    1    1    2    0    0 -0.49054214049E+01  0.35977546957E+02  0.23773434310E+02  0.43400728371E+02  0.00000000000E+00 0.  1.
         11    1    3    3    0    0  0.43842973069E+01 -0.27887400378E+02 -0.25215607365E+02  0.37851763734E+02  0.51100000000E-03 0. -1.
        -11    1    3    3    0    0  0.28475840370E+01 -0.54984841364E+01  0.17626887574E+01  0.64381002293E+01  0.51100000000E-03 0.  1.
        -12    1    3    3    0    0 -0.23264599390E+01 -0.25916624433E+01 -0.32051570224E+00  0.34974076662E+01  0.00000000000E+00 0.  1.
</event>
<event>
 7    1  0.2497395E-009  0.4778727E+02  0.7816164E-02  0.1312668E+00
        -11   -1    0    0    0    0  0.00000000000E+00  0.00000000000E+00  0.45593999997E+02  0.45594000000E+02  0.51100000000E-03 0.  1.
         11   -1    0    0    0    0 -0.00000000000E+00 -0.00000000000E+00 -0.45593999997E+02  0.45594000000E+02  0.51100000000E-03 0. -1.
    9900012    2    1    2    0    0 -0.17170076143E+02  0.28539210141E+02 -0.27826694592E+02  0.47787274636E+02  0.20000016376E+02 0.  0.
        -12    1    1    2    0    0  0.17170076143E+02 -0.28539210141E+02  0.27826694592E+02  0.43400725364E+02  0.00000000000E+00 0.  1.
         11    1    3    3    0    0 -0.47163211956E+01  0.23334158657E+02 -0.17411995036E+02  0.29494138693E+02  0.51100000000E-03 0. -1.
        -11    1    3    3    0    0 -0.53852959111E+01 -0.54086108295E+00 -0.16657892325E+01  0.56629318192E+01  0.51100000000E-03 0.  1.
         12    1    3    3    0    0 -0.70684590361E+01  0.57459125668E+01 -0.87489103230E+01  0.12630204124E+02  0.00000000000E+00 0. -1.
</event>
<event>
 7    1  0.2497395E-009  0.4778727E+02  0.7816164E-02  0.1312668E+00
        -11   -1    0    0    0    0  0.00000000000E+00  0.00000000000E+00  0.45593999997E+02  0.45594000000E+02  0.51100000000E-03 0.  1.
         11   -1    0    0    0    0 -0.00000000000E+00 -0.00000000000E+00 -0.45593999997E+02  0.45594000000E+02  0.51100000000E-03 0. -1.
    9900012    2    1    2    0    0 -0.15282517059E+02 -0.19923222676E+02 -0.35399616427E+02  0.47787274515E+02  0.20000015823E+02 0.  0.
        -12    1    1    2    0    0  0.15282517059E+02  0.19923222676E+02  0.35399616427E+02  0.43400725485E+02  0.00000000000E+00 0.  1.
         11    1    3    3    0    0 -0.26718055463E+01 -0.10078432170E+02 -0.62071724266E+01  0.12134345045E+02  0.51100000000E-03 0. -1.
        -11    1    3    3    0    0 -0.48272946336E+01 -0.54035054050E+01 -0.24476384693E+02  0.25526340357E+02  0.51100000000E-03 0.  1.
         12    1    3    3    0    0 -0.77834168788E+01 -0.44412851008E+01 -0.47160593084E+01  0.10126589113E+02  0.00000000000E+00 0. -1.
</event>
<event>
 7    1  0.2497395E-009  0.4778727E+02  0.7816164E-02  0.1312668E+00
        -11   -1    0    0    0    0  0.00000000000E+00  0.00000000000E+00  0.45593999997E+02  0.45594000000E+02  0.51100000000E-03 0. -1.
         11   -1    0    0    0    0 -0.00000000000E+00 -0.00000000000E+00 -0.45593999997E+02  0.45594000000E+02  0.51100000000E-03 0.  1.
    9900012    2    1    2    0    0 -0.21341255029E+02  0.37308770651E+02  0.60191479314E+01  0.47787266418E+02  0.19999978905E+02 0.  0.
        -12    1    1    2    0    0  0.21341255029E+02 -0.37308770651E+02 -0.60191479314E+01  0.43400733582E+02  0.00000000000E+00 0.  1.
         11    1    3    3    0    0 -0.47933803286E+01  0.50386013790E+01  0.22854046392E+01  0.73203192183E+01  0.51100000000E-03 0. -1.
        -11    1    3    3    0    0 -0.82572199181E+01  0.77699089825E+01  0.84948391494E+01  0.14167408331E+02  0.51100000000E-03 0.  1.
        -12    1    3    3    0    0 -0.82906547820E+01  0.24500260289E+02 -0.47610958573E+01  0.26299538869E+02  0.00000000000E+00 0.  1.
</event>
<event>
 7    1  0.2497395E-009  0.4778728E+02  0.7816164E-02  0.1312668E+00
        -11   -1    0    0    0    0  0.00000000000E+00  0.00000000000E+00  0.45593999997E+02  0.45594000000E+02  0.51100000000E-03 0. -1.
         11   -1    0    0    0    0 -0.00000000000E+00 -0.00000000000E+00 -0.45593999997E+02  0.45594000000E+02  0.51100000000E-03 0.  1.
    9900012    2    1    2    0    0 -0.41344151573E+02 -0.74949416527E+01  0.10867828057E+02  0.47787277583E+02  0.20000029812E+02 0.  0.
        -12    1    1    2    0    0  0.41344151573E+02  0.74949416527E+01 -0.10867828057E+02  0.43400722417E+02  0.00000000000E+00 0.  1.
         11    1    3    3    0    0 -0.27827641752E+02 -0.27720825384E+01  0.10606237543E+02  0.29909101661E+02  0.51100000000E-03 0. -1.
        -11    1    3    3    0    0 -0.44594631105E+00 -0.29840161221E+01 -0.30424233210E+01  0.42848057429E+01  0.51100000000E-03 0.  1.
        -12    1    3    3    0    0 -0.13070563509E+02 -0.17388429922E+01  0.33040138357E+01  0.13593370179E+02  0.00000000000E+00 0.  1.
</event>
<event>
 7    1  0.2497395E-009  0.4778727E+02  0.7816164E-02  0.1312668E+00
        -11   -1    0    0    0    0  0.00000000000E+00  0.00000000000E+00  0.45593999997E+02  0.45594000000E+02  0.51100000000E-03 0.  1.
         11   -1    0    0    0    0 -0.00000000000E+00 -0.00000000000E+00 -0.45593999997E+02  0.45594000000E+02  0.51100000000E-03 0. -1.
    9900012    2    1    2    0    0  0.30426167289E+02  0.30944535465E+02 -0.55421195698E+00  0.47787273256E+02  0.20000010082E+02 0.  0.
        -12    1    1    2    0    0 -0.30426167289E+02 -0.30944535465E+02  0.55421195698E+00  0.43400726744E+02  0.00000000000E+00 0.  1.
         11    1    3    3    0    0  0.15692434839E+02  0.11467033313E+02 -0.67118167748E+01  0.20561951485E+02  0.51100000000E-03 0. -1.
        -11    1    3    3    0    0  0.15607057044E+02  0.19997724466E+02  0.64370808578E+01  0.26171076088E+02  0.51100000000E-03 0.  1.
         12    1    3    3    0    0 -0.87332459467E+00 -0.52022231333E+00 -0.27947603996E+00  0.10542456829E+01  0.00000000000E+00 0. -1.
</event>
<event>
 7    1  0.2497395E-009  0.4778727E+02  0.7816164E-02  0.1312668E+00
        -11   -1    0    0    0    0  0.00000000000E+00  0.00000000000E+00  0.45593999997E+02  0.45594000000E+02  0.51100000000E-03 0.  1.
         11   -1    0    0    0    0 -0.00000000000E+00 -0.00000000000E+00 -0.45593999997E+02  0.45594000000E+02  0.51100000000E-03 0. -1.
    9900012    2    1    2    0    0 -0.25480900262E+02  0.19727251794E+02 -0.29072024531E+02  0.47787270146E+02  0.19999995903E+02 0.  0.
        -12    1    1    2    0    0  0.25480900262E+02 -0.19727251794E+02  0.29072024531E+02  0.43400729854E+02  0.00000000000E+00 0.  1.
         11    1    3    3    0    0 -0.10786213904E+02  0.34548633171E+01 -0.14952065223E+00  0.11326996407E+02  0.51100000000E-03 0. -1.
        -11    1    3    3    0    0 -0.73377093232E+01  0.70392864719E+01 -0.15993095699E+02  0.18951850634E+02  0.51100000000E-03 0.  1.
         12    1    3    3    0    0 -0.73569770350E+01  0.92331020050E+01 -0.12929408180E+02  0.17508423105E+02  0.00000000000E+00 0. -1.
</event>
<event>
 7    1  0.2497395E-009  0.4778727E+02  0.7816164E-02  0.1312668E+00
        -11   -1    0    0    0    0  0.00000000000E+00  0.00000000000E+00  0.45593999997E+02  0.45594000000E+02  0.51100000000E-03 0.  1.
         11   -1    0    0    0    0 -0.00000000000E+00 -0.00000000000E+00 -0.45593999997E+02  0.45594000000E+02  0.51100000000E-03 0. -1.
    9900012    2    1    2    0    0  0.52796859917E+01  0.23921841272E+02 -0.35825883714E+02  0.47787268233E+02  0.19999987181E+02 0.  0.
        -12    1    1    2    0    0 -0.52796859917E+01 -0.23921841272E+02  0.35825883714E+02  0.43400731767E+02  0.00000000000E+00 0.  1.
         11    1    3    3    0    0 -0.83743124436E+00  0.14177115644E+02 -0.19861318875E+02  0.24416467533E+02  0.51100000000E-03 0. -1.
        -11    1    3    3    0    0 -0.17869579357E+01 -0.21386743805E+01 -0.29002506110E+01  0.40222631239E+01  0.51100000000E-03 0.  1.
        -12    1    3    3    0    0  0.79040751718E+01  0.11883400008E+02 -0.13064314229E+02  0.19348537576E+02  0.00000000000E+00 0.  1.
</event>
<event>
 7    1  0.2497395E-009  0.4778727E+02  0.7816164E-02  0.1312668E+00
        -11   -1    0    0    0    0  0.00000000000E+00  0.00000000000E+00  0.45593999997E+02  0.45594000000E+02  0.51100000000E-03 0. -1.
         11   -1    0    0    0    0 -0.00000000000E+00 -0.00000000000E+00 -0.45593999997E+02  0.45594000000E+02  0.51100000000E-03 0.  1.
    9900012    2    1    2    0    0  0.33541883249E+02  0.27538969303E+02 -0.41262250252E+00  0.47787273975E+02  0.20000013363E+02 0.  0.
        -12    1    1    2    0    0 -0.33541883249E+02 -0.27538969303E+02  0.41262250252E+00  0.43400726025E+02  0.00000000000E+00 0.  1.
         11    1    3    3    0    0  0.24993356337E+02  0.15631029032E+02  0.13826432674E+01  0.29511161147E+02  0.51100000000E-03 0. -1.
        -11    1    3    3    0    0  0.56076742209E+00  0.56870345442E+01  0.36494499523E+01  0.67805093632E+01  0.51100000000E-03 0.  1.
        -12    1    3    3    0    0  0.79877594904E+01  0.62209057266E+01 -0.54447157222E+01  0.11495603465E+02  0.00000000000E+00 0.  1.
</event>
<event>
 7    1  0.2497395E-009  0.4778727E+02  0.7816164E-02  0.1312668E+00
        -11   -1    0    0    0    0  0.00000000000E+00  0.00000000000E+00  0.45593999997E+02  0.45594000000E+02  0.51100000000E-03 0. -1.
         11   -1    0    0    0    0 -0.00000000000E+00 -0.00000000000E+00 -0.45593999997E+02  0.45594000000E+02  0.51100000000E-03 0.  1.
    9900012    2    1    2    0    0  0.32936660803E+02 -0.22977457383E+02  0.16457093313E+02  0.47787273128E+02  0.20000009502E+02 0.  0.
        -12    1    1    2    0    0 -0.32936660803E+02  0.22977457383E+02 -0.16457093313E+02  0.43400726872E+02  0.00000000000E+00 0.  1.
         11    1    3    3    0    0  0.20286936022E+02 -0.15357869475E+02  0.74567434318E+01  0.26514655397E+02  0.51100000000E-03 0. -1.
        -11    1    3    3    0    0 -0.24368134061E+01 -0.58613237297E+00  0.40484016274E+00  0.25388002192E+01  0.51100000000E-03 0.  1.
        -12    1    3    3    0    0  0.15086538187E+02 -0.70334555349E+01  0.85955097189E+01  0.18733817512E+02  0.00000000000E+00 0.  1.
</event>
<event>
 7    1  0.2497395E-009  0.4778727E+02  0.7816164E-02  0.1312668E+00
        -11   -1    0    0    0    0  0.00000000000E+00  0.00000000000E+00  0.45593999997E+02  0.45594000000E+02  0.51100000000E-03 0.  1.
         11   -1    0    0    0    0 -0.00000000000E+00 -0.00000000000E+00 -0.45593999997E+02  0.45594000000E+02  0.51100000000E-03 0. -1.
    9900012    2    1    2    0    0  0.27920967802E+02 -0.21225008965E+02 -0.25564469927E+02  0.47787267619E+02  0.19999984380E+02 0.  0.
        -12    1    1    2    0    0 -0.27920967802E+02  0.21225008965E+02  0.25564469927E+02  0.43400732381E+02  0.00000000000E+00 0.  1.
         11    1    3    3    0    0  0.18674874343E+01 -0.58521584332E+01 -0.20013936524E-01  0.61429364690E+01  0.51100000000E-03 0. -1.
        -11    1    3    3    0    0  0.11398522206E+02 -0.96532425600E+01 -0.20004526008E+02  0.24965825872E+02  0.51100000000E-03 0.  1.
        -12    1    3    3    0    0  0.14654958162E+02 -0.57196079716E+01 -0.55399299832E+01  0.16678505278E+02  0.00000000000E+00 0.  1.
</event>
<event>
 7    1  0.2497395E-009  0.4778728E+02  0.7816164E-02  0.1312668E+00
        -11   -1    0    0    0    0  0.00000000000E+00  0.00000000000E+00  0.45593999997E+02  0.45594000000E+02  0.51100000000E-03 0.  1.
         11   -1    0    0    0    0 -0.00000000000E+00 -0.00000000000E+00 -0.45593999997E+02  0.45594000000E+02  0.51100000000E-03 0. -1.
    9900012    2    1    2    0    0 -0.33916208982E+02  0.11548482233E+02 -0.24493786927E+02  0.47787282591E+02  0.20000052645E+02 0.  0.
        -12    1    1    2    0    0  0.33916208982E+02 -0.11548482233E+02  0.24493786927E+02  0.43400717409E+02  0.00000000000E+00 0.  1.
         11    1    3    3    0    0 -0.79090216004E+01  0.85252736541E+01 -0.13399484064E+02  0.17742014739E+02  0.51100000000E-03 0.  1.
        -11    1    3    3    0    0 -0.13907239977E+02 -0.29251737612E+01 -0.37781268875E+01  0.14705176243E+02  0.51100000000E-03 0. -1.
         12    1    3    3    0    0 -0.12099947405E+02  0.59483823398E+01 -0.73161759752E+01  0.15340091609E+02  0.00000000000E+00 0. -1.
</event>
<event>
 7    1  0.2497395E-009  0.4778728E+02  0.7816164E-02  0.1312668E+00
        -11   -1    0    0    0    0  0.00000000000E+00  0.00000000000E+00  0.45593999997E+02  0.45594000000E+02  0.51100000000E-03 0.  1.
         11   -1    0    0    0    0 -0.00000000000E+00 -0.00000000000E+00 -0.45593999997E+02  0.45594000000E+02  0.51100000000E-03 0. -1.
    9900012    2    1    2    0    0 -0.26343615127E+02  0.14580067596E+02 -0.31257930250E+02  0.47787278432E+02  0.20000033685E+02 0.  0.
        -12    1    1    2    0    0  0.26343615127E+02 -0.14580067596E+02  0.31257930250E+02  0.43400721568E+02  0.00000000000E+00 0.  1.
         11    1    3    3    0    0 -0.77394531717E+01  0.14769897198E+02 -0.19508063867E+02  0.25663467317E+02  0.51100000000E-03 0. -1.
        -11    1    3    3    0    0 -0.12733716778E+02  0.45109534631E+00 -0.69504351739E+01  0.14514116555E+02  0.51100000000E-03 0.  1.
        -12    1    3    3    0    0 -0.58704451775E+01 -0.64092494880E+00 -0.47994312091E+01  0.76096945605E+01  0.00000000000E+00 0.  1.
</event>
<event>
 7    1  0.2497395E-009  0.4778728E+02  0.7816164E-02  0.1312668E+00
        -11   -1    0    0    0    0  0.00000000000E+00  0.00000000000E+00  0.45593999997E+02  0.45594000000E+02  0.51100000000E-03 0. -1.
         11   -1    0    0    0    0 -0.00000000000E+00 -0.00000000000E+00 -0.45593999997E+02  0.45594000000E+02  0.51100000000E-03 0.  1.
    9900012    2    1    2    0    0  0.37313279189E+02  0.21383131523E+02  0.58398332808E+01  0.47787276845E+02  0.20000026449E+02 0.  0.
        -12    1    1    2    0    0 -0.37313279189E+02 -0.21383131523E+02 -0.58398332808E+01  0.43400723155E+02  0.00000000000E+00 0.  1.
         11    1    3    3    0    0  0.71497065631E+00  0.18253585546E+01  0.36928666084E+01  0.41809545490E+01  0.51100000000E-03 0. -1.
        -11    1    3    3    0    0  0.23840509332E+02  0.16341957229E+02 -0.38282142661E+01  0.29156211620E+02  0.51100000000E-03 0.  1.
         12    1    3    3    0    0  0.12757799201E+02  0.32158157395E+01  0.59751809385E+01  0.14450110677E+02  0.00000000000E+00 0. -1.
</event>
<event>
 7    1  0.2497395E-009  0.4778726E+02  0.7816164E-02  0.1312668E+00
        -11   -1    0    0    0    0  0.00000000000E+00  0.00000000000E+00  0.45593999997E+02  0.45594000000E+02  0.51100000000E-03 0.  1.
         11   -1    0    0    0    0 -0.00000000000E+00 -0.00000000000E+00 -0.45593999997E+02  0.45594000000E+02  0.51100000000E-03 0. -1.
    9900012    2    1    2    0    0  0.37875963442E+02 -0.19344637181E+02 -0.86498811401E+01  0.47787262240E+02  0.19999959858E+02 0.  0.
        -12    1    1    2    0    0 -0.37875963442E+02  0.19344637181E+02  0.86498811401E+01  0.43400737760E+02  0.00000000000E+00 0.  1.
         11    1    3    3    0    0  0.14241142586E+02 -0.13226156776E+02 -0.29994021242E+01  0.19665649712E+02  0.51100000000E-03 0. -1.
        -11    1    3    3    0    0  0.16051290116E+02 -0.88645873698E+01 -0.11042819160E+00  0.18336766844E+02  0.51100000000E-03 0.  1.
         12    1    3    3    0    0  0.75835307398E+01  0.27461069643E+01 -0.55400508243E+01  0.97848456848E+01  0.00000000000E+00 0. -1.
</event>
<event>
 7    1  0.2497395E-009  0.4778727E+02  0.7816164E-02  0.1312668E+00
        -11   -1    0    0    0    0  0.00000000000E+00  0.00000000000E+00  0.45593999997E+02  0.45594000000E+02  0.51100000000E-03 0.  1.
         11   -1    0    0    0    0 -0.00000000000E+00 -0.00000000000E+00 -0.45593999997E+02  0.45594000000E+02  0.51100000000E-03 0. -1.
    9900012    2    1    2    0    0 -0.21606060246E+02  0.31813481673E+02  0.20117247464E+02  0.47787273035E+02  0.20000009078E+02 0.  0.
        -12    1    1    2    0    0  0.21606060246E+02 -0.31813481673E+02 -0.20117247464E+02  0.43400726965E+02  0.00000000000E+00 0.  1.
         11    1    3    3    0    0 -0.10908915402E+02  0.87067879042E+01  0.12176682251E+01  0.14010542710E+02  0.51100000000E-03 0. -1.
        -11    1    3    3    0    0  0.43301168965E+00  0.25655015080E+01  0.71847866437E+01  0.76413648314E+01  0.51100000000E-03 0.  1.
        -12    1    3    3    0    0 -0.11130156534E+02  0.20541192261E+02  0.11714792595E+02  0.26135365494E+02  0.00000000000E+00 0.  1.
</event>
<event>
 7    1  0.2497395E-009  0.4778727E+02  0.7816164E-02  0.1312668E+00
        -11   -1    0    0    0    0  0.00000000000E+00  0.00000000000E+00  0.45593999997E+02  0.45594000000E+02  0.51100000000E-03 0. -1.
         11   -1    0    0    0    0 -0.00000000000E+00 -0.00000000000E+00 -0.45593999997E+02  0.45594000000E+02  0.51100000000E-03 0.  1.
    9900012    2    1    2    0    0  0.41915152189E+02 -0.57252089642E+01  0.96935676582E+01  0.47787271266E+02  0.20000001011E+02 0.  0.
        -12    1    1    2    0    0 -0.41915152189E+02  0.57252089642E+01 -0.96935676582E+01  0.43400728734E+02  0.00000000000E+00 0.  1.
         11    1    3    3    0    0  0.32954791844E+02 -0.22014184400E+01  0.48688962557E+01  0.33385186830E+02  0.51100000000E-03 0. -1.
        -11    1    3    3    0    0  0.19752675570E+01  0.32679356341E+01  0.15925513854E+01  0.41373065401E+01  0.51100000000E-03 0.  1.
         12    1    3    3    0    0  0.69850927875E+01 -0.67917261583E+01  0.32321200171E+01  0.10264777896E+02  0.00000000000E+00 0. -1.
</event>
<event>
 7    1  0.2497395E-009  0.4778727E+02  0.7816164E-02  0.1312668E+00
        -11   -1    0    0    0    0  0.00000000000E+00  0.00000000000E+00  0.45593999997E+02  0.45594000000E+02  0.51100000000E-03 0.  1.
         11   -1    0    0    0    0 -0.00000000000E+00 -0.00000000000E+00 -0.45593999997E+02  0.45594000000E+02  0.51100000000E-03 0. -1.
    9900012    2    1    2    0    0 -0.32708522894E+02 -0.77463847886E+01 -0.27454861564E+02  0.47787269929E+02  0.19999994912E+02 0.  0.
        -12    1    1    2    0    0  0.32708522894E+02  0.77463847886E+01  0.27454861564E+02  0.43400730071E+02  0.00000000000E+00 0.  1.
         11    1    3    3    0    0 -0.80039344369E+01 -0.51665924149E+01  0.49348516859E+00  0.95394010045E+01  0.51100000000E-03 0. -1.
        -11    1    3    3    0    0 -0.20064502611E+02 -0.21783242922E+01 -0.26617754904E+02  0.33404105109E+02  0.51100000000E-03 0.  1.
        -12    1    3    3    0    0 -0.46400858463E+01 -0.40146808155E+00 -0.13305918289E+01  0.48437638152E+01  0.00000000000E+00 0.  1.
</event>
<event>
 7    1  0.2497395E-009  0.4778728E+02  0.7816164E-02  0.1312668E+00
        -11   -1    0    0    0    0  0.00000000000E+00  0.00000000000E+00  0.45593999997E+02  0.45594000000E+02  0.51100000000E-03 0.  1.
         11   -1    0    0    0    0 -0.00000000000E+00 -0.00000000000E+00 -0.45593999997E+02  0.45594000000E+02  0.51100000000E-03 0. -1.
    9900012    2    1    2    0    0  0.67687011367E+01 -0.30863774627E+02  0.29752896048E+02  0.47787277397E+02  0.20000028962E+02 0.  0.
        -12    1    1    2    0    0 -0.67687011367E+01  0.30863774627E+02 -0.29752896048E+02  0.43400722603E+02  0.00000000000E+00 0.  1.
         11    1    3    3    0    0 -0.24073488660E+01 -0.27458542673E+01  0.29603792095E+01  0.47009456012E+01  0.51100000000E-03 0. -1.
        -11    1    3    3    0    0  0.61933846661E+01 -0.27313097102E+01  0.11244374558E+01  0.68616635161E+01  0.51100000000E-03 0.  1.
        -12    1    3    3    0    0  0.29826653365E+01 -0.25386610649E+02  0.25668079382E+02  0.36224668279E+02  0.00000000000E+00 0.  1.
</event>
<event>
 7    1  0.2497395E-009  0.4778731E+02  0.7816164E-02  0.1312668E+00
        -11   -1    0    0    0    0  0.00000000000E+00  0.00000000000E+00  0.45593999997E+02  0.45594000000E+02  0.51100000000E-03 0. -1.
         11   -1    0    0    0    0 -0.00000000000E+00 -0.00000000000E+00 -0.45593999997E+02  0.45594000000E+02  0.51100000000E-03 0.  1.
    9900012    2    1    2    0    0  0.37769043078E+01  0.29938386915E+02  0.31193715450E+02  0.47787309904E+02  0.20000177174E+02 0.  0.
        -12    1    1    2    0    0 -0.37769043078E+01 -0.29938386915E+02 -0.31193715450E+02  0.43400690096E+02  0.00000000000E+00 0.  1.
         11    1    3    3    0    0  0.15497064488E+01  0.17391259264E+02  0.24354478493E+02  0.29966616622E+02  0.51100000000E-03 0. -1.
        -11    1    3    3    0    0 -0.32264979086E+01  0.13159643043E+01 -0.19541800550E+00  0.34900199515E+01  0.51100000000E-03 0.  1.
        -12    1    3    3    0    0  0.54536957676E+01  0.11231163346E+02  0.70346549634E+01  0.14330673330E+02  0.00000000000E+00 0.  1.
</event>
<event>
 7    1  0.2497395E-009  0.4778728E+02  0.7816164E-02  0.1312668E+00
        -11   -1    0    0    0    0  0.00000000000E+00  0.00000000000E+00  0.45593999997E+02  0.45594000000E+02  0.51100000000E-03 0.  1.
         11   -1    0    0    0    0 -0.00000000000E+00 -0.00000000000E+00 -0.45593999997E+02  0.45594000000E+02  0.51100000000E-03 0. -1.
    9900012    2    1    2    0    0 -0.15846806839E+02  0.28479723082E+02 -0.28660196007E+02  0.47787277091E+02  0.20000027571E+02 0.  0.
        -12    1    1    2    0    0  0.15846806839E+02 -0.28479723082E+02  0.28660196007E+02  0.43400722909E+02  0.00000000000E+00 0.  1.
         11    1    3    3    0    0  0.50866107254E+00  0.47706405759E+01 -0.14439738427E+02  0.15215905944E+02  0.51100000000E-03 0. -1.
        -11    1    3    3    0    0  0.11011923416E+00  0.12759031678E+01  0.82672770219E-01  0.12833121941E+01  0.51100000000E-03 0.  1.
         12    1    3    3    0    0 -0.16465587146E+02  0.22433179338E+02 -0.14303130351E+02  0.31288058954E+02  0.00000000000E+00 0. -1.
</event>
<event>
 7    1  0.2497395E-009  0.4778727E+02  0.7816164E-02  0.1312668E+00
        -11   -1    0    0    0    0  0.00000000000E+00  0.00000000000E+00  0.45593999997E+02  0.45594000000E+02  0.51100000000E-03 0.  1.
         11   -1    0    0    0    0 -0.00000000000E+00 -0.00000000000E+00 -0.45593999997E+02  0.45594000000E+02  0.51100000000E-03 0. -1.
    9900012    2    1    2    0    0  0.38250575527E+02 -0.19114527327E+02  0.74264128325E+01  0.47787270851E+02  0.19999999118E+02 0.  0.
        -12    1    1    2    0    0 -0.38250575527E+02  0.19114527327E+02 -0.74264128325E+01  0.43400729149E+02  0.00000000000E+00 0.  1.
         11    1    3    3    0    0  0.43827514472E+01 -0.35271824297E+01 -0.13156796583E+01  0.57775894078E+01  0.51100000000E-03 0.  1.
        -11    1    3    3    0    0  0.14443857208E+02 -0.90409244188E+01 -0.44781768525E+01  0.17618666056E+02  0.51100000000E-03 0. -1.
        -12    1    3    3    0    0  0.19423966872E+02 -0.65464204788E+01  0.13220269343E+02  0.24391015388E+02  0.00000000000E+00 0.  1.
</event>
<event>
 7    1  0.2497395E-009  0.4778727E+02  0.7816164E-02  0.1312668E+00
        -11   -1    0    0    0    0  0.00000000000E+00  0.00000000000E+00  0.45593999997E+02  0.45594000000E+02  0.51100000000E-03 0. -1.
         11   -1    0    0    0    0 -0.00000000000E+00 -0.00000000000E+00 -0.45593999997E+02  0.45594000000E+02  0.51100000000E-03 0.  1.
    9900012    2    1    2    0    0  0.21537083895E+02  0.37508614386E+02  0.35890869747E+01  0.47787266352E+02  0.19999978605E+02 0.  0.
        -12    1    1    2    0    0 -0.21537083895E+02 -0.37508614386E+02 -0.35890869747E+01  0.43400733648E+02  0.00000000000E+00 0.  1.
         11    1    3    3    0    0  0.21549507349E+02  0.29221419649E+02  0.51710841968E+01  0.36674415405E+02  0.51100000000E-03 0. -1.
        -11    1    3    3    0    0 -0.98437642652E-01  0.92593432263E+01 -0.26838175373E+01  0.96409545059E+01  0.51100000000E-03 0.  1.
         12    1    3    3    0    0  0.86014188708E-01 -0.97214848891E+00  0.11018203152E+01  0.14718964407E+01  0.00000000000E+00 0. -1.
</event>
<event>
 7    1  0.2497395E-009  0.4778727E+02  0.7816164E-02  0.1312668E+00
        -11   -1    0    0    0    0  0.00000000000E+00  0.00000000000E+00  0.45593999997E+02  0.45594000000E+02  0.51100000000E-03 0. -1.
         11   -1    0    0    0    0 -0.00000000000E+00 -0.00000000000E+00 -0.45593999997E+02  0.45594000000E+02  0.51100000000E-03 0.  1.
    9900012    2    1    2    0    0  0.26784158855E+02  0.31563859152E+02 -0.13036691072E+02  0.47787266317E+02  0.19999978445E+02 0.  0.
        -12    1    1    2    0    0 -0.26784158855E+02 -0.31563859152E+02  0.13036691072E+02  0.43400733683E+02  0.00000000000E+00 0.  1.
         11    1    3    3    0    0  0.10651260777E+01  0.79713366698E+01  0.24499127817E+01  0.84070669537E+01  0.51100000000E-03 0. -1.
        -11    1    3    3    0    0  0.14889390836E+02  0.17700136208E+02 -0.13807161100E+02  0.26937454949E+02  0.51100000000E-03 0.  1.
         12    1    3    3    0    0  0.10829641941E+02  0.58923862741E+01 -0.16794427539E+01  0.12442744414E+02  0.00000000000E+00 0. -1.
</event>
<event>
 7    1  0.2497395E-009  0.4778730E+02  0.7816164E-02  0.1312668E+00
        -11   -1    0    0    0    0  0.00000000000E+00  0.00000000000E+00  0.45593999997E+02  0.45594000000E+02  0.51100000000E-03 0.  1.
         11   -1    0    0    0    0 -0.00000000000E+00 -0.00000000000E+00 -0.45593999997E+02  0.45594000000E+02  0.51100000000E-03 0. -1.
    9900012    2    1    2    0    0 -0.42822783278E+02 -0.51062288742E+01 -0.48740272815E+01  0.47787303198E+02  0.20000146599E+02 0.  0.
        -12    1    1    2    0    0  0.42822783278E+02  0.51062288742E+01  0.48740272815E+01  0.43400696802E+02  0.00000000000E+00 0.  1.
         11    1    3    3    0    0 -0.17779342547E+02  0.69720943109E+01 -0.17172964994E+00  0.19098288190E+02  0.51100000000E-03 0. -1.
        -11    1    3    3    0    0 -0.16210520756E+02 -0.99879262417E+01 -0.47005460120E+01  0.19612108170E+02  0.51100000000E-03 0.  1.
         12    1    3    3    0    0 -0.88329199752E+01 -0.20903969434E+01 -0.17516196132E-02  0.90769068375E+01  0.00000000000E+00 0. -1.
</event>
<event>
 7    1  0.2497395E-009  0.4778727E+02  0.7816164E-02  0.1312668E+00
        -11   -1    0    0    0    0  0.00000000000E+00  0.00000000000E+00  0.45593999997E+02  0.45594000000E+02  0.51100000000E-03 0. -1.
         11   -1    0    0    0    0 -0.00000000000E+00 -0.00000000000E+00 -0.45593999997E+02  0.45594000000E+02  0.51100000000E-03 0.  1.
    9900012    2    1    2    0    0  0.19509048712E+02  0.35386744170E+02  0.15836616692E+02  0.47787273360E+02  0.20000010559E+02 0.  0.
        -12    1    1    2    0    0 -0.19509048712E+02 -0.35386744170E+02 -0.15836616692E+02  0.43400726640E+02  0.00000000000E+00 0.  1.
         11    1    3    3    0    0  0.12569572643E+02  0.22710329060E+02  0.14475326824E+02  0.29720166375E+02  0.51100000000E-03 0. -1.
        -11    1    3    3    0    0  0.59664050531E+01  0.13613050443E+02 -0.14645133754E+01  0.14935124080E+02  0.51100000000E-03 0.  1.
         12    1    3    3    0    0  0.97307101660E+00 -0.93663533234E+00  0.28258032430E+01  0.31319829050E+01  0.00000000000E+00 0. -1.
</event>
<event>
 7    1  0.2497395E-009  0.4778727E+02  0.7816164E-02  0.1312668E+00
        -11   -1    0    0    0    0  0.00000000000E+00  0.00000000000E+00  0.45593999997E+02  0.45594000000E+02  0.51100000000E-03 0. -1.
         11   -1    0    0    0    0 -0.00000000000E+00 -0.00000000000E+00 -0.45593999997E+02  0.45594000000E+02  0.51100000000E-03 0.  1.
    9900012    2    1    2    0    0 -0.33368342407E+02  0.21818820474E+02  0.17149818737E+02  0.47787268617E+02  0.19999988932E+02 0.  0.
        -12    1    1    2    0    0  0.33368342407E+02 -0.21818820474E+02 -0.17149818737E+02  0.43400731383E+02  0.00000000000E+00 0.  1.
         11    1    3    3    0    0 -0.10524211799E+02  0.61917297714E+01  0.64729957534E+01  0.13820138416E+02  0.51100000000E-03 0. -1.
        -11    1    3    3    0    0 -0.88991772874E+00  0.86797779133E+01  0.35532229473E+00  0.87325112300E+01  0.51100000000E-03 0.  1.
        -12    1    3    3    0    0 -0.21954212879E+02  0.69473127897E+01  0.10321500689E+02  0.25234618971E+02  0.00000000000E+00 0.  1.
</event>
<event>
 7    1  0.2497395E-009  0.4778727E+02  0.7816164E-02  0.1312668E+00
        -11   -1    0    0    0    0  0.00000000000E+00  0.00000000000E+00  0.45593999997E+02  0.45594000000E+02  0.51100000000E-03 0.  1.
         11   -1    0    0    0    0 -0.00000000000E+00 -0.00000000000E+00 -0.45593999997E+02  0.45594000000E+02  0.51100000000E-03 0. -1.
    9900012    2    1    2    0    0  0.34020149614E+02  0.24580169743E+02 -0.11048441964E+02  0.47787269659E+02  0.19999993681E+02 0.  0.
        -12    1    1    2    0    0 -0.34020149614E+02 -0.24580169743E+02  0.11048441964E+02  0.43400730341E+02  0.00000000000E+00 0.  1.
         11    1    3    3    0    0  0.52048740881E+01  0.57465376454E+00 -0.37328267757E+01  0.64307804519E+01  0.51100000000E-03 0. -1.
        -11    1    3    3    0    0  0.16323357613E+02  0.16993033785E+02 -0.11790467250E+02  0.26348250781E+02  0.51100000000E-03 0.  1.
        -12    1    3    3    0    0  0.12491917913E+02  0.70124821931E+01  0.44748520625E+01  0.15008238425E+02  0.00000000000E+00 0.  1.
</event>
<event>
 7    1  0.2497395E-009  0.4778727E+02  0.7816164E-02  0.1312668E+00
        -11   -1    0    0    0    0  0.00000000000E+00  0.00000000000E+00  0.45593999997E+02  0.45594000000E+02  0.51100000000E-03 0.  1.
         11   -1    0    0    0    0 -0.00000000000E+00 -0.00000000000E+00 -0.45593999997E+02  0.45594000000E+02  0.51100000000E-03 0. -1.
    9900012    2    1    2    0    0 -0.26369911381E+02 -0.19778593925E+02 -0.28232220412E+02  0.47787271051E+02  0.20000000032E+02 0.  0.
        -12    1    1    2    0    0  0.26369911381E+02  0.19778593925E+02  0.28232220412E+02  0.43400728949E+02  0.00000000000E+00 0.  1.
         11    1    3    3    0    0 -0.62916639389E+01 -0.41959779558E+00 -0.14909359983E+02  0.16187961972E+02  0.51100000000E-03 0. -1.
        -11    1    3    3    0    0 -0.28161296280E+01 -0.40646939806E+00 -0.34550127402E+00  0.28662126307E+01  0.51100000000E-03 0.  1.
         12    1    3    3    0    0 -0.17262117814E+02 -0.18952526731E+02 -0.12977359155E+02  0.28733096449E+02  0.00000000000E+00 0. -1.
</event>
<event>
 7    1  0.2497395E-009  0.4778727E+02  0.7816164E-02  0.1312668E+00
        -11   -1    0    0    0    0  0.00000000000E+00  0.00000000000E+00  0.45593999997E+02  0.45594000000E+02  0.51100000000E-03 0. -1.
         11   -1    0    0    0    0 -0.00000000000E+00 -0.00000000000E+00 -0.45593999997E+02  0.45594000000E+02  0.51100000000E-03 0.  1.
    9900012    2    1    2    0    0 -0.34848359675E+02 -0.22037101107E+02  0.13549221532E+02  0.47787269576E+02  0.19999993306E+02 0.  0.
        -12    1    1    2    0    0  0.34848359675E+02  0.22037101107E+02 -0.13549221532E+02  0.43400730424E+02  0.00000000000E+00 0.  1.
         11    1    3    3    0    0 -0.51472518321E+01 -0.81173093701E+01  0.72203530391E+01  0.12021581057E+02  0.51100000000E-03 0. -1.
        -11    1    3    3    0    0 -0.17661890834E+02 -0.94456949588E+01 -0.24937048551E+01  0.20183708908E+02  0.51100000000E-03 0.  1.
        -12    1    3    3    0    0 -0.12039217008E+02 -0.44740967778E+01  0.88225733478E+01  0.15581979612E+02  0.00000000000E+00 0.  1.
</event>
<event>
 7    1  0.2497395E-009  0.4778728E+02  0.7816164E-02  0.1312668E+00
        -11   -1    0    0    0    0  0.00000000000E+00  0.00000000000E+00  0.45593999997E+02  0.45594000000E+02  0.51100000000E-03 0. -1.
         11   -1    0    0    0    0 -0.00000000000E+00 -0.00000000000E+00 -0.45593999997E+02  0.45594000000E+02  0.51100000000E-03 0.  1.
    9900012    2    1    2    0    0  0.22264755782E+01  0.99150346696E+01  0.42194284122E+02  0.47787277442E+02  0.20000029168E+02 0.  0.
        -12    1    1    2    0    0 -0.22264755782E+01 -0.99150346696E+01 -0.42194284122E+02  0.43400722558E+02  0.00000000000E+00 0.  1.
         11    1    3    3    0    0  0.70389802489E+00  0.44492216376E+01  0.12711860036E+02  0.13486379479E+02  0.51100000000E-03 0. -1.
        -11    1    3    3    0    0 -0.10756970361E+01  0.39216746674E+01  0.30754101013E+02  0.31021788886E+02  0.51100000000E-03 0.  1.
        -12    1    3    3    0    0  0.25982745894E+01  0.15441383646E+01 -0.12716769270E+01  0.32791090768E+01  0.00000000000E+00 0.  1.
</event>
<event>
 7    1  0.2497395E-009  0.4778727E+02  0.7816164E-02  0.1312668E+00
        -11   -1    0    0    0    0  0.00000000000E+00  0.00000000000E+00  0.45593999997E+02  0.45594000000E+02  0.51100000000E-03 0.  1.
         11   -1    0    0    0    0 -0.00000000000E+00 -0.00000000000E+00 -0.45593999997E+02  0.45594000000E+02  0.51100000000E-03 0. -1.
    9900012    2    1    2    0    0  0.10066159732E+02  0.26981070803E+02 -0.32470256409E+02  0.47787270689E+02  0.19999998378E+02 0.  0.
        -12    1    1    2    0    0 -0.10066159732E+02 -0.26981070803E+02  0.32470256409E+02  0.43400729311E+02  0.00000000000E+00 0.  1.
         11    1    3    3    0    0  0.28923778849E-01  0.23152005408E+02 -0.26782583891E+02  0.35402302060E+02  0.51100000000E-03 0. -1.
        -11    1    3    3    0    0  0.59206134464E+01  0.29998221426E+01 -0.45070492642E+01  0.80228479856E+01  0.51100000000E-03 0.  1.
         12    1    3    3    0    0  0.41166225072E+01  0.82924325327E+00 -0.11806232538E+01  0.43621206433E+01  0.00000000000E+00 0. -1.
</event>
<event>
 7    1  0.2497395E-009  0.4778727E+02  0.7816164E-02  0.1312668E+00
        -11   -1    0    0    0    0  0.00000000000E+00  0.00000000000E+00  0.45593999997E+02  0.45594000000E+02  0.51100000000E-03 0.  1.
         11   -1    0    0    0    0 -0.00000000000E+00 -0.00000000000E+00 -0.45593999997E+02  0.45594000000E+02  0.51100000000E-03 0. -1.
    9900012    2    1    2    0    0  0.28908661711E+02 -0.67876664697E+01 -0.31651858774E+02  0.47787270721E+02  0.19999998527E+02 0.  0.
        -12    1    1    2    0    0 -0.28908661711E+02  0.67876664697E+01  0.31651858774E+02  0.43400729279E+02  0.00000000000E+00 0.  1.
         11    1    3    3    0    0  0.62379785123E+01  0.43647965634E+01 -0.29445473222E+01  0.81629764274E+01  0.51100000000E-03 0. -1.
        -11    1    3    3    0    0  0.20429925258E+02 -0.97152877723E+01 -0.18950504614E+02  0.29510850342E+02  0.51100000000E-03 0.  1.
        -12    1    3    3    0    0  0.22407579410E+01 -0.14371752608E+01 -0.97568068383E+01  0.10113443951E+02  0.00000000000E+00 0.  1.
</event>
<event>
 7    1  0.2497395E-009  0.4778726E+02  0.7816164E-02  0.1312668E+00
        -11   -1    0    0    0    0  0.00000000000E+00  0.00000000000E+00  0.45593999997E+02  0.45594000000E+02  0.51100000000E-03 0. -1.
         11   -1    0    0    0    0 -0.00000000000E+00 -0.00000000000E+00 -0.45593999997E+02  0.45594000000E+02  0.51100000000E-03 0.  1.
    9900012    2    1    2    0    0  0.27122035392E+02  0.22013693923E+02  0.25756871848E+02  0.47787263010E+02  0.19999963366E+02 0.  0.
        -12    1    1    2    0    0 -0.27122035392E+02 -0.22013693923E+02 -0.25756871848E+02  0.43400736990E+02  0.00000000000E+00 0.  1.
         11    1    3    3    0    0  0.43846525498E+01  0.74116674252E+01  0.34195026246E+00  0.86182899839E+01  0.51100000000E-03 0. -1.
        -11    1    3    3    0    0  0.24196937020E+02  0.14634905872E+02  0.23549305102E+02  0.36800027202E+02  0.51100000000E-03 0.  1.
        -12    1    3    3    0    0 -0.14595541778E+01 -0.32879374346E-01  0.18656164837E+01  0.23689458236E+01  0.00000000000E+00 0.  1.
</event>
<event>
 7    1  0.2497395E-009  0.4778727E+02  0.7816164E-02  0.1312668E+00
        -11   -1    0    0    0    0  0.00000000000E+00  0.00000000000E+00  0.45593999997E+02  0.45594000000E+02  0.51100000000E-03 0.  1.
         11   -1    0    0    0    0 -0.00000000000E+00 -0.00000000000E+00 -0.45593999997E+02  0.45594000000E+02  0.51100000000E-03 0. -1.
    9900012    2    1    2    0    0 -0.19288218337E+02  0.19440865426E+02 -0.33669579447E+02  0.47787271950E+02  0.20000004129E+02 0.  0.
        -12    1    1    2    0    0  0.19288218337E+02 -0.19440865426E+02  0.33669579447E+02  0.43400728050E+02  0.00000000000E+00 0.  1.
         11    1    3    3    0    0 -0.47045465880E+01 -0.16643805931E+01 -0.13587019592E+02  0.14474461061E+02  0.51100000000E-03 0. -1.
        -11    1    3    3    0    0 -0.43726829981E+01  0.12265486512E+02 -0.88230291954E+01  0.15729219956E+02  0.51100000000E-03 0.  1.
         12    1    3    3    0    0 -0.10210988751E+02  0.88397595069E+01 -0.11259530660E+02  0.17583590933E+02  0.00000000000E+00 0. -1.
</event>
<event>
 7    1  0.2497395E-009  0.4778724E+02  0.7816164E-02  0.1312668E+00
        -11   -1    0    0    0    0  0.00000000000E+00  0.00000000000E+00  0.45593999997E+02  0.45594000000E+02  0.51100000000E-03 0.  1.
         11   -1    0    0    0    0 -0.00000000000E+00 -0.00000000000E+00 -0.45593999997E+02  0.45594000000E+02  0.51100000000E-03 0. -1.
    9900012    2    1    2    0    0  0.29880845646E+02  0.26533638942E+02 -0.16933027944E+02  0.47787235405E+02  0.19999837506E+02 0.  0.
        -12    1    1    2    0    0 -0.29880845646E+02 -0.26533638942E+02  0.16933027944E+02  0.43400764595E+02  0.00000000000E+00 0.  1.
         11    1    3    3    0    0  0.11634104349E+02  0.22729077027E+01 -0.52017565025E+01  0.12945144434E+02  0.51100000000E-03 0. -1.
        -11    1    3    3    0    0  0.12199200639E+02  0.19224739847E+02 -0.28030562210E+01  0.22940537109E+02  0.51100000000E-03 0.  1.
        -12    1    3    3    0    0  0.60475406582E+01  0.50359913924E+01 -0.89282152207E+01  0.11901553863E+02  0.00000000000E+00 0.  1.
</event>
<event>
 7    1  0.2497395E-009  0.4778727E+02  0.7816164E-02  0.1312668E+00
        -11   -1    0    0    0    0  0.00000000000E+00  0.00000000000E+00  0.45593999997E+02  0.45594000000E+02  0.51100000000E-03 0.  1.
         11   -1    0    0    0    0 -0.00000000000E+00 -0.00000000000E+00 -0.45593999997E+02  0.45594000000E+02  0.51100000000E-03 0. -1.
    9900012    2    1    2    0    0 -0.32392558660E+01 -0.34470826219E+02 -0.26170457089E+02  0.47787268865E+02  0.19999990065E+02 0.  0.
        -12    1    1    2    0    0  0.32392558660E+01  0.34470826219E+02  0.26170457089E+02  0.43400731135E+02  0.00000000000E+00 0.  1.
         11    1    3    3    0    0  0.60885237193E+00 -0.20825795438E+02 -0.68668828150E+01  0.21937149694E+02  0.51100000000E-03 0. -1.
        -11    1    3    3    0    0  0.21902426581E+01 -0.88890003459E+01 -0.13050772340E+02  0.15941585523E+02  0.51100000000E-03 0.  1.
         12    1    3    3    0    0 -0.60383508961E+01 -0.47560304348E+01 -0.62528019337E+01  0.99085336485E+01  0.00000000000E+00 0. -1.
</event>
<event>
 7    1  0.2497395E-009  0.4778727E+02  0.7816164E-02  0.1312668E+00
        -11   -1    0    0    0    0  0.00000000000E+00  0.00000000000E+00  0.45593999997E+02  0.45594000000E+02  0.51100000000E-03 0.  1.
         11   -1    0    0    0    0 -0.00000000000E+00 -0.00000000000E+00 -0.45593999997E+02  0.45594000000E+02  0.51100000000E-03 0. -1.
    9900012    2    1    2    0    0  0.19863028844E+02  0.32469601596E+02  0.20852068196E+02  0.47787266242E+02  0.19999978105E+02 0.  0.
        -12    1    1    2    0    0 -0.19863028844E+02 -0.32469601596E+02 -0.20852068196E+02  0.43400733758E+02  0.00000000000E+00 0.  1.
         11    1    3    3    0    0  0.97344771404E+01  0.12018489053E+02  0.27802970847E+01  0.15714139380E+02  0.51100000000E-03 0. -1.
        -11    1    3    3    0    0 -0.14293578784E+01 -0.11120393756E+01  0.24461553178E+01  0.30435787517E+01  0.51100000000E-03 0.  1.
        -12    1    3    3    0    0  0.11557909582E+02  0.21563151918E+02  0.15625615794E+02  0.29029548110E+02  0.00000000000E+00 0.  1.
</event>
<event>
 7    1  0.2497395E-009  0.4778726E+02  0.7816164E-02  0.1312668E+00
        -11   -1    0    0    0    0  0.00000000000E+00  0.00000000000E+00  0.45593999997E+02  0.45594000000E+02  0.51100000000E-03 0.  1.
         11   -1    0    0    0    0 -0.00000000000E+00 -0.00000000000E+00 -0.45593999997E+02  0.45594000000E+02  0.51100000000E-03 0. -1.
    9900012    2    1    2    0    0  0.35756902189E+02  0.95343687637E+01 -0.22675188250E+02  0.47787258024E+02  0.19999940635E+02 0.  0.
        -12    1    1    2    0    0 -0.35756902189E+02 -0.95343687637E+01  0.22675188250E+02  0.43400741976E+02  0.00000000000E+00 0.  1.
         11    1    3    3    0    0  0.78033239845E+01  0.89169589228E+00 -0.42156262480E+01  0.89139492760E+01  0.51100000000E-03 0. -1.
        -11    1    3    3    0    0  0.18515052294E+02 -0.27358076313E+01 -0.14184826631E+02  0.23484060800E+02  0.51100000000E-03 0.  1.
        -12    1    3    3    0    0  0.94385259100E+01  0.11378480503E+02 -0.42747353712E+01  0.15389247948E+02  0.00000000000E+00 0.  1.
</event>
<event>
 7    1  0.2497395E-009  0.4778727E+02  0.7816164E-02  0.1312668E+00
        -11   -1    0    0    0    0  0.00000000000E+00  0.00000000000E+00  0.45593999997E+02  0.45594000000E+02  0.51100000000E-03 0.  1.
         11   -1    0    0    0    0 -0.00000000000E+00 -0.00000000000E+00 -0.45593999997E+02  0.45594000000E+02  0.51100000000E-03 0. -1.
    9900012    2    1    2    0    0 -0.17777641683E+02  0.11399064509E+02 -0.37916223943E+02  0.47787271278E+02  0.20000001067E+02 0.  0.
        -12    1    1    2    0    0  0.17777641683E+02 -0.11399064509E+02  0.37916223943E+02  0.43400728722E+02  0.00000000000E+00 0.  1.
         11    1    3    3    0    0 -0.29528509661E+00  0.29018687507E+01 -0.18679751546E+02  0.18906114186E+02  0.51100000000E-03 0. -1.
        -11    1    3    3    0    0 -0.14515447674E+02  0.10464408402E+02 -0.16967853482E+02  0.24659888816E+02  0.51100000000E-03 0.  1.
        -12    1    3    3    0    0 -0.29669089125E+01 -0.19672126434E+01 -0.22686189151E+01  0.42212682764E+01  0.00000000000E+00 0.  1.
</event>
<event>
 7    1  0.2497395E-009  0.4778726E+02  0.7816164E-02  0.1312668E+00
        -11   -1    0    0    0    0  0.00000000000E+00  0.00000000000E+00  0.45593999997E+02  0.45594000000E+02  0.51100000000E-03 0.  1.
         11   -1    0    0    0    0 -0.00000000000E+00 -0.00000000000E+00 -0.45593999997E+02  0.45594000000E+02  0.51100000000E-03 0. -1.
    9900012    2    1    2    0    0  0.37521735039E+02  0.21054230341E+02  0.56976011558E+01  0.47787264124E+02  0.19999968448E+02 0.  0.
        -12    1    1    2    0    0 -0.37521735039E+02 -0.21054230341E+02 -0.56976011558E+01  0.43400735876E+02  0.00000000000E+00 0.  1.
         11    1    3    3    0    0  0.97997436413E+01  0.11871115841E+02 -0.29647394284E+01  0.15676353112E+02  0.51100000000E-03 0. -1.
        -11    1    3    3    0    0  0.17919038821E+02  0.42005431657E+01  0.10143730917E+02  0.21015037290E+02  0.51100000000E-03 0.  1.
        -12    1    3    3    0    0  0.98029525776E+01  0.49825713344E+01 -0.14813903328E+01  0.11095873722E+02  0.00000000000E+00 0.  1.
</event>
<event>
 7    1  0.2497395E-009  0.4778727E+02  0.7816164E-02  0.1312668E+00
        -11   -1    0    0    0    0  0.00000000000E+00  0.00000000000E+00  0.45593999997E+02  0.45594000000E+02  0.51100000000E-03 0. -1.
         11   -1    0    0    0    0 -0.00000000000E+00 -0.00000000000E+00 -0.45593999997E+02  0.45594000000E+02  0.51100000000E-03 0.  1.
    9900012    2    1    2    0    0  0.23780762089E+02  0.95176356284E+01  0.35035887501E+02  0.47787269056E+02  0.19999990935E+02 0.  0.
        -12    1    1    2    0    0 -0.23780762089E+02 -0.95176356284E+01 -0.35035887501E+02  0.43400730944E+02  0.00000000000E+00 0.  1.
         11    1    3    3    0    0  0.19498864324E+02 -0.24115127578E+01  0.23020964620E+02  0.30265259226E+02  0.51100000000E-03 0. -1.
        -11    1    3    3    0    0  0.30504911042E+01  0.10062843418E+02  0.97636428256E+01  0.14349043003E+02  0.51100000000E-03 0.  1.
         12    1    3    3    0    0  0.12314066610E+01  0.18663049685E+01  0.22512800554E+01  0.31729668274E+01  0.00000000000E+00 0. -1.
</event>
<event>
 7    1  0.2497395E-009  0.4778728E+02  0.7816164E-02  0.1312668E+00
        -11   -1    0    0    0    0  0.00000000000E+00  0.00000000000E+00  0.45593999997E+02  0.45594000000E+02  0.51100000000E-03 0.  1.
         11   -1    0    0    0    0 -0.00000000000E+00 -0.00000000000E+00 -0.45593999997E+02  0.45594000000E+02  0.51100000000E-03 0. -1.
    9900012    2    1    2    0    0  0.30655631506E+02  0.21830651471E+02 -0.21616609423E+02  0.47787275471E+02  0.20000020183E+02 0.  0.
        -12    1    1    2    0    0 -0.30655631506E+02 -0.21830651471E+02  0.21616609423E+02  0.43400724529E+02  0.00000000000E+00 0.  1.
         11    1    3    3    0    0  0.26419813088E+02  0.13395301601E+02 -0.14348680057E+02  0.32913906608E+02  0.51100000000E-03 0. -1.
        -11    1    3    3    0    0  0.42711319802E+01  0.10245333627E+02 -0.56975743030E+01  0.12476849872E+02  0.51100000000E-03 0.  1.
         12    1    3    3    0    0 -0.35313562541E-01 -0.18099837572E+01 -0.15703550630E+01  0.23965189907E+01  0.00000000000E+00 0. -1.
</event>
<event>
 7    1  0.2497395E-009  0.4778727E+02  0.7816164E-02  0.1312668E+00
        -11   -1    0    0    0    0  0.00000000000E+00  0.00000000000E+00  0.45593999997E+02  0.45594000000E+02  0.51100000000E-03 0.  1.
         11   -1    0    0    0    0 -0.00000000000E+00 -0.00000000000E+00 -0.45593999997E+02  0.45594000000E+02  0.51100000000E-03 0. -1.
    9900012    2    1    2    0    0 -0.15825320757E+02  0.13736901477E+02 -0.38006316403E+02  0.47787270446E+02  0.19999997273E+02 0.  0.
        -12    1    1    2    0    0  0.15825320757E+02 -0.13736901477E+02  0.38006316403E+02  0.43400729554E+02  0.00000000000E+00 0.  1.
         11    1    3    3    0    0 -0.30327955298E+01  0.68451149959E+01 -0.85376710828E+01  0.11355407338E+02  0.51100000000E-03 0. -1.
        -11    1    3    3    0    0  0.37098423634E+01  0.63287202939E+00 -0.55803028155E+01  0.67307679458E+01  0.51100000000E-03 0.  1.
        -12    1    3    3    0    0 -0.16502367591E+02  0.62589144512E+01 -0.23888342505E+02  0.29701095162E+02  0.00000000000E+00 0.  1.
</event>
<event>
 7    1  0.2497395E-009  0.4778727E+02  0.7816164E-02  0.1312668E+00
        -11   -1    0    0    0    0  0.00000000000E+00  0.00000000000E+00  0.45593999997E+02  0.45594000000E+02  0.51100000000E-03 0.  1.
         11   -1    0    0    0    0 -0.00000000000E+00 -0.00000000000E+00 -0.45593999997E+02  0.45594000000E+02  0.51100000000E-03 0. -1.
    9900012    2    1    2    0    0 -0.23230271417E+02 -0.29057396940E+02 -0.22352752126E+02  0.47787270114E+02  0.19999995756E+02 0.  0.
        -12    1    1    2    0    0  0.23230271417E+02  0.29057396940E+02  0.22352752126E+02  0.43400729886E+02  0.00000000000E+00 0.  1.
         11    1    3    3    0    0 -0.19114282365E+02 -0.24647637509E+02 -0.18753593602E+02  0.36394492693E+02  0.51100000000E-03 0. -1.
        -11    1    3    3    0    0  0.15635573176E+01  0.11437500064E+01 -0.28060553074E+01  0.34098126359E+01  0.51100000000E-03 0.  1.
        -12    1    3    3    0    0 -0.56795463702E+01 -0.55535094376E+01 -0.79310321624E+00  0.79829647849E+01  0.00000000000E+00 0.  1.
</event>
<event>
 7    1  0.2497395E-009  0.4778728E+02  0.7816164E-02  0.1312668E+00
        -11   -1    0    0    0    0  0.00000000000E+00  0.00000000000E+00  0.45593999997E+02  0.45594000000E+02  0.51100000000E-03 0.  1.
         11   -1    0    0    0    0 -0.00000000000E+00 -0.00000000000E+00 -0.45593999997E+02  0.45594000000E+02  0.51100000000E-03 0. -1.
    9900012    2    1    2    0    0  0.24761434721E+02 -0.96471784856E+01 -0.34313642198E+02  0.47787277160E+02  0.20000027882E+02 0.  0.
        -12    1    1    2    0    0 -0.24761434721E+02  0.96471784856E+01  0.34313642198E+02  0.43400722840E+02  0.00000000000E+00 0.  1.
         11    1    3    3    0    0  0.18856029943E+02 -0.12694514492E+02 -0.17793380975E+02  0.28867022191E+02  0.51100000000E-03 0. -1.
        -11    1    3    3    0    0  0.33995691446E+01  0.46923873292E+01 -0.79257280548E+01  0.98179801729E+01  0.51100000000E-03 0.  1.
        -12    1    3    3    0    0  0.25058356328E+01 -0.16450513225E+01 -0.85945331685E+01  0.91022747957E+01  0.00000000000E+00 0.  1.
</event>
<event>
 7    1  0.2497395E-009  0.4778727E+02  0.7816164E-02  0.1312668E+00
        -11   -1    0    0    0    0  0.00000000000E+00  0.00000000000E+00  0.45593999997E+02  0.45594000000E+02  0.51100000000E-03 0.  1.
         11   -1    0    0    0    0 -0.00000000000E+00 -0.00000000000E+00 -0.45593999997E+02  0.45594000000E+02  0.51100000000E-03 0. -1.
    9900012    2    1    2    0    0 -0.12238039380E+02  0.31434678579E+02 -0.27307775349E+02  0.47787271668E+02  0.20000002842E+02 0.  0.
        -12    1    1    2    0    0  0.12238039380E+02 -0.31434678579E+02  0.27307775349E+02  0.43400728332E+02  0.00000000000E+00 0.  1.
         11    1    3    3    0    0 -0.54326890341E+01  0.53898768649E+01 -0.12236590623E+02  0.14432568486E+02  0.51100000000E-03 0. -1.
        -11    1    3    3    0    0 -0.59566242559E-01  0.64750063999E+01  0.17211877549E+01  0.67001301156E+01  0.51100000000E-03 0.  1.
         12    1    3    3    0    0 -0.67457841034E+01  0.19569795314E+02 -0.16792372481E+02  0.26654573067E+02  0.00000000000E+00 0. -1.
</event>
<event>
 7    1  0.2497395E-009  0.4778727E+02  0.7816164E-02  0.1312668E+00
        -11   -1    0    0    0    0  0.00000000000E+00  0.00000000000E+00  0.45593999997E+02  0.45594000000E+02  0.51100000000E-03 0. -1.
         11   -1    0    0    0    0 -0.00000000000E+00 -0.00000000000E+00 -0.45593999997E+02  0.45594000000E+02  0.51100000000E-03 0.  1.
    9900012    2    1    2    0    0  0.28546454348E+02 -0.15816734265E+02  0.28610381580E+02  0.47787273361E+02  0.20000010562E+02 0.  0.
        -12    1    1    2    0    0 -0.28546454348E+02  0.15816734265E+02 -0.28610381580E+02  0.43400726639E+02  0.00000000000E+00 0.  1.
         11    1    3    3    0    0  0.22109018348E+02 -0.42612392019E+01  0.24303724910E+02  0.33130618717E+02  0.51100000000E-03 0. -1.
        -11    1    3    3    0    0  0.63136396950E+01 -0.76757248435E+01  0.19895458503E+01  0.10135930693E+02  0.51100000000E-03 0.  1.
         12    1    3    3    0    0  0.12379630461E+00 -0.38797702194E+01  0.23171108203E+01  0.45207239502E+01  0.00000000000E+00 0. -1.
</event>
<event>
 7    1  0.2497395E-009  0.4778727E+02  0.7816164E-02  0.1312668E+00
        -11   -1    0    0    0    0  0.00000000000E+00  0.00000000000E+00  0.45593999997E+02  0.45594000000E+02  0.51100000000E-03 0.  1.
         11   -1    0    0    0    0 -0.00000000000E+00 -0.00000000000E+00 -0.45593999997E+02  0.45594000000E+02  0.51100000000E-03 0. -1.
    9900012    2    1    2    0    0 -0.17459984179E+02 -0.35478572876E+02 -0.17889753550E+02  0.47787268866E+02  0.19999990070E+02 0.  0.
        -12    1    1    2    0    0  0.17459984179E+02  0.35478572876E+02  0.17889753550E+02  0.43400731134E+02  0.00000000000E+00 0.  1.
         11    1    3    3    0    0 -0.82532161719E+01 -0.41415008725E+01 -0.45692061245E+01  0.10302681764E+02  0.51100000000E-03 0. -1.
        -11    1    3    3    0    0  0.19744742162E+01 -0.15412416959E+02 -0.68226960934E+01  0.16970277758E+02  0.51100000000E-03 0.  1.
        -12    1    3    3    0    0 -0.11181242224E+02 -0.15924655045E+02 -0.64978513323E+01  0.20514309345E+02  0.00000000000E+00 0.  1.
</event>
<event>
 7    1  0.2497395E-009  0.4778727E+02  0.7816164E-02  0.1312668E+00
        -11   -1    0    0    0    0  0.00000000000E+00  0.00000000000E+00  0.45593999997E+02  0.45594000000E+02  0.51100000000E-03 0.  1.
         11   -1    0    0    0    0 -0.00000000000E+00 -0.00000000000E+00 -0.45593999997E+02  0.45594000000E+02  0.51100000000E-03 0. -1.
    9900012    2    1    2    0    0  0.38264803899E+02 -0.18233970220E+02 -0.93247231993E+01  0.47787270165E+02  0.19999995991E+02 0.  0.
        -12    1    1    2    0    0 -0.38264803899E+02  0.18233970220E+02  0.93247231993E+01  0.43400729835E+02  0.00000000000E+00 0.  1.
         11    1    3    3    0    0  0.51092417557E+01 -0.64266646274E+01 -0.69045035007E+01  0.10727466542E+02  0.51100000000E-03 0. -1.
        -11    1    3    3    0    0  0.10436652715E+02  0.14419277553E+01  0.78601120987E+00  0.10565069305E+02  0.51100000000E-03 0.  1.
        -12    1    3    3    0    0  0.22718909429E+02 -0.13249233348E+02 -0.32062309085E+01  0.26494734318E+02  0.00000000000E+00 0.  1.
</event>
<event>
 7    1  0.2497395E-009  0.4778727E+02  0.7816164E-02  0.1312668E+00
        -11   -1    0    0    0    0  0.00000000000E+00  0.00000000000E+00  0.45593999997E+02  0.45594000000E+02  0.51100000000E-03 0.  1.
         11   -1    0    0    0    0 -0.00000000000E+00 -0.00000000000E+00 -0.45593999997E+02  0.45594000000E+02  0.51100000000E-03 0. -1.
    9900012    2    1    2    0    0  0.11652067588E+01  0.39441115635E+02 -0.18073850157E+02  0.47787269950E+02  0.19999995011E+02 0.  0.
        -12    1    1    2    0    0 -0.11652067588E+01 -0.39441115635E+02  0.18073850157E+02  0.43400730050E+02  0.00000000000E+00 0.  1.
         11    1    3    3    0    0  0.24006371433E+01  0.52801847636E+01 -0.46919333932E+01  0.74604054219E+01  0.51100000000E-03 0. -1.
        -11    1    3    3    0    0 -0.19803166287E+01  0.32084700337E+02 -0.16790617443E+02  0.36266713169E+02  0.51100000000E-03 0.  1.
        -12    1    3    3    0    0  0.74488624420E+00  0.20762305342E+01  0.34087006785E+01  0.40601513597E+01  0.00000000000E+00 0.  1.
</event>
<event>
 7    1  0.2497395E-009  0.4778727E+02  0.7816164E-02  0.1312668E+00
        -11   -1    0    0    0    0  0.00000000000E+00  0.00000000000E+00  0.45593999997E+02  0.45594000000E+02  0.51100000000E-03 0.  1.
         11   -1    0    0    0    0 -0.00000000000E+00 -0.00000000000E+00 -0.45593999997E+02  0.45594000000E+02  0.51100000000E-03 0. -1.
    9900012    2    1    2    0    0 -0.18895913760E+02 -0.76225895175E+01 -0.38320539950E+02  0.47787271782E+02  0.20000003363E+02 0.  0.
        -12    1    1    2    0    0  0.18895913760E+02  0.76225895175E+01  0.38320539950E+02  0.43400728218E+02  0.00000000000E+00 0.  1.
         11    1    3    3    0    0 -0.65300669729E+00 -0.10365987060E+01 -0.19034407112E+01  0.22636345611E+01  0.51100000000E-03 0. -1.
        -11    1    3    3    0    0 -0.41569396526E+01 -0.10880300870E+02 -0.10335341599E+02  0.15571781546E+02  0.51100000000E-03 0.  1.
        -12    1    3    3    0    0 -0.14085967410E+02  0.42943100585E+01 -0.26081757640E+02  0.29951855675E+02  0.00000000000E+00 0.  1.
</event>
<event>
 7    1  0.2497395E-009  0.4778726E+02  0.7816164E-02  0.1312668E+00
        -11   -1    0    0    0    0  0.00000000000E+00  0.00000000000E+00  0.45593999997E+02  0.45594000000E+02  0.51100000000E-03 0.  1.
         11   -1    0    0    0    0 -0.00000000000E+00 -0.00000000000E+00 -0.45593999997E+02  0.45594000000E+02  0.51100000000E-03 0. -1.
    9900012    2    1    2    0    0 -0.34130197122E+02  0.11332169549E+02 -0.24296822364E+02  0.47787262688E+02  0.19999961899E+02 0.  0.
        -12    1    1    2    0    0  0.34130197122E+02 -0.11332169549E+02  0.24296822364E+02  0.43400737312E+02  0.00000000000E+00 0.  1.
         11    1    3    3    0    0 -0.60129132256E+01  0.99304774540E+01 -0.64501267438E+01  0.13280573903E+02  0.51100000000E-03 0. -1.
        -11    1    3    3    0    0 -0.60265073600E+01  0.19230752568E+01 -0.37510509376E+00  0.63370114010E+01  0.51100000000E-03 0.  1.
         12    1    3    3    0    0 -0.22090776536E+02 -0.52138316205E+00 -0.17471590527E+02  0.28169677384E+02  0.00000000000E+00 0. -1.
</event>
<event>
 7    1  0.2497395E-009  0.4778727E+02  0.7816164E-02  0.1312668E+00
        -11   -1    0    0    0    0  0.00000000000E+00  0.00000000000E+00  0.45593999997E+02  0.45594000000E+02  0.51100000000E-03 0. -1.
         11   -1    0    0    0    0 -0.00000000000E+00 -0.00000000000E+00 -0.45593999997E+02  0.45594000000E+02  0.51100000000E-03 0.  1.
    9900012    2    1    2    0    0  0.38200249119E+02  0.39469979823E+01  0.20218441204E+02  0.47787272005E+02  0.20000004378E+02 0.  0.
        -12    1    1    2    0    0 -0.38200249119E+02 -0.39469979823E+01 -0.20218441204E+02  0.43400727995E+02  0.00000000000E+00 0.  1.
         11    1    3    3    0    0  0.30926727201E+02  0.87661400036E+01  0.16785373510E+02  0.36263706789E+02  0.51100000000E-03 0. -1.
        -11    1    3    3    0    0  0.30503117073E+01 -0.16234956552E+01 -0.19536276783E+01  0.39694837223E+01  0.51100000000E-03 0.  1.
         12    1    3    3    0    0  0.42232102104E+01 -0.31956463661E+01  0.53866953722E+01  0.75540814935E+01  0.00000000000E+00 0. -1.
</event>
<event>
 7    1  0.2497395E-009  0.4778727E+02  0.7816164E-02  0.1312668E+00
        -11   -1    0    0    0    0  0.00000000000E+00  0.00000000000E+00  0.45593999997E+02  0.45594000000E+02  0.51100000000E-03 0.  1.
         11   -1    0    0    0    0 -0.00000000000E+00 -0.00000000000E+00 -0.45593999997E+02  0.45594000000E+02  0.51100000000E-03 0. -1.
    9900012    2    1    2    0    0  0.42995437485E+02 -0.55646961256E+01  0.20123992105E+01  0.47787271457E+02  0.20000001882E+02 0.  0.
        -12    1    1    2    0    0 -0.42995437485E+02  0.55646961256E+01 -0.20123992105E+01  0.43400728543E+02  0.00000000000E+00 0.  1.
         11    1    3    3    0    0  0.12934479750E+02 -0.70521275910E+01 -0.22435796694E+00  0.14733757386E+02  0.51100000000E-03 0. -1.
        -11    1    3    3    0    0  0.20522802069E+01  0.41076502928E+01 -0.11102802166E+01  0.47241260987E+01  0.51100000000E-03 0.  1.
        -12    1    3    3    0    0  0.28008677528E+02 -0.26202188274E+01  0.33470373940E+01  0.28329387972E+02  0.00000000000E+00 0.  1.
</event>
<event>
 7    1  0.2497395E-009  0.4778727E+02  0.7816164E-02  0.1312668E+00
        -11   -1    0    0    0    0  0.00000000000E+00  0.00000000000E+00  0.45593999997E+02  0.45594000000E+02  0.51100000000E-03 0.  1.
         11   -1    0    0    0    0 -0.00000000000E+00 -0.00000000000E+00 -0.45593999997E+02  0.45594000000E+02  0.51100000000E-03 0. -1.
    9900012    2    1    2    0    0  0.39386808653E+02 -0.38491446941E+01  0.17818159883E+02  0.47787269219E+02  0.19999991677E+02 0.  0.
        -12    1    1    2    0    0 -0.39386808653E+02  0.38491446941E+01 -0.17818159883E+02  0.43400730781E+02  0.00000000000E+00 0.  1.
         11    1    3    3    0    0  0.10413560942E+02 -0.22268995583E+01  0.23089058444E+01  0.10896438849E+02  0.51100000000E-03 0. -1.
        -11    1    3    3    0    0  0.21284969301E+02  0.20061090563E+01  0.18090581647E+02  0.28006133905E+02  0.51100000000E-03 0.  1.
        -12    1    3    3    0    0  0.76882784099E+01 -0.36283541921E+01 -0.25813276092E+01  0.88846964651E+01  0.00000000000E+00 0.  1.
</event>
<event>
 7    1  0.2497395E-009  0.4778727E+02  0.7816164E-02  0.1312668E+00
        -11   -1    0    0    0    0  0.00000000000E+00  0.00000000000E+00  0.45593999997E+02  0.45594000000E+02  0.51100000000E-03 0.  1.
         11   -1    0    0    0    0 -0.00000000000E+00 -0.00000000000E+00 -0.45593999997E+02  0.45594000000E+02  0.51100000000E-03 0. -1.
    9900012    2    1    2    0    0 -0.27995540293E+02 -0.31503849491E+02  0.10362454140E+02  0.47787271149E+02  0.20000000475E+02 0.  0.
        -12    1    1    2    0    0  0.27995540293E+02  0.31503849491E+02 -0.10362454140E+02  0.43400728851E+02  0.00000000000E+00 0.  1.
         11    1    3    3    0    0 -0.17765291087E+02 -0.12808040536E+02  0.54617082654E+01  0.22571701912E+02  0.51100000000E-03 0. -1.
        -11    1    3    3    0    0 -0.55467426370E+00 -0.59340225333E+01 -0.37221564304E+01  0.70267158558E+01  0.51100000000E-03 0.  1.
        -12    1    3    3    0    0 -0.96755749421E+01 -0.12761786422E+02  0.86229023051E+01  0.18188853381E+02  0.00000000000E+00 0.  1.
</event>
<event>
 7    1  0.2497395E-009  0.4778727E+02  0.7816164E-02  0.1312668E+00
        -11   -1    0    0    0    0  0.00000000000E+00  0.00000000000E+00  0.45593999997E+02  0.45594000000E+02  0.51100000000E-03 0.  1.
         11   -1    0    0    0    0 -0.00000000000E+00 -0.00000000000E+00 -0.45593999997E+02  0.45594000000E+02  0.51100000000E-03 0. -1.
    9900012    2    1    2    0    0  0.19700548097E+02  0.14082169313E+02 -0.36016721328E+02  0.47787270708E+02  0.19999998467E+02 0.  0.
        -12    1    1    2    0    0 -0.19700548097E+02 -0.14082169313E+02  0.36016721328E+02  0.43400729292E+02  0.00000000000E+00 0.  1.
         11    1    3    3    0    0  0.91672542408E+01 -0.14608000579E+01 -0.17903397352E+02  0.20166906658E+02  0.51100000000E-03 0. -1.
        -11    1    3    3    0    0  0.67053371561E+01  0.12030397435E+02 -0.17673644589E+02  0.22406466078E+02  0.51100000000E-03 0.  1.
         12    1    3    3    0    0  0.38279566997E+01  0.35125719360E+01 -0.43967938643E+00  0.52138979721E+01  0.00000000000E+00 0. -1.
</event>
<event>
 7    1  0.2497395E-009  0.4778727E+02  0.7816164E-02  0.1312668E+00
        -11   -1    0    0    0    0  0.00000000000E+00  0.00000000000E+00  0.45593999997E+02  0.45594000000E+02  0.51100000000E-03 0.  1.
         11   -1    0    0    0    0 -0.00000000000E+00 -0.00000000000E+00 -0.45593999997E+02  0.45594000000E+02  0.51100000000E-03 0. -1.
    9900012    2    1    2    0    0 -0.62097058480E+01 -0.18706097998E+02 -0.38667101085E+02  0.47787271258E+02  0.20000000972E+02 0.  0.
        -12    1    1    2    0    0  0.62097058480E+01  0.18706097998E+02  0.38667101085E+02  0.43400728742E+02  0.00000000000E+00 0.  1.
         11    1    3    3    0    0  0.24989271514E+01 -0.16625593692E+02 -0.22267048392E+02  0.27901190779E+02  0.51100000000E-03 0.  1.
        -11    1    3    3    0    0 -0.96966134297E+01 -0.13418838194E+01 -0.15596080356E+02  0.18413654904E+02  0.51100000000E-03 0. -1.
         12    1    3    3    0    0  0.98798043035E+00 -0.73862048656E+00 -0.80397233706E+00  0.14724255746E+01  0.00000000000E+00 0. -1.
</event>
<event>
 7    1  0.2497395E-009  0.4778728E+02  0.7816164E-02  0.1312668E+00
        -11   -1    0    0    0    0  0.00000000000E+00  0.00000000000E+00  0.45593999997E+02  0.45594000000E+02  0.51100000000E-03 0.  1.
         11   -1    0    0    0    0 -0.00000000000E+00 -0.00000000000E+00 -0.45593999997E+02  0.45594000000E+02  0.51100000000E-03 0. -1.
    9900012    2    1    2    0    0  0.15287607105E+02  0.36171703808E+01 -0.40457728963E+02  0.47787277824E+02  0.20000030912E+02 0.  0.
        -12    1    1    2    0    0 -0.15287607105E+02 -0.36171703808E+01  0.40457728963E+02  0.43400722176E+02  0.00000000000E+00 0.  1.
         11    1    3    3    0    0  0.13380690639E+02  0.55146953673E+01 -0.35317094334E+02  0.38167419345E+02  0.51100000000E-03 0. -1.
        -11    1    3    3    0    0  0.24793949791E+00 -0.15684574884E+01  0.18439313811E+01  0.24334370933E+01  0.51100000000E-03 0.  1.
        -12    1    3    3    0    0  0.16589769682E+01 -0.32906749808E+00 -0.69845660097E+01  0.71864213864E+01  0.00000000000E+00 0.  1.
</event>
<event>
 7    1  0.2497395E-009  0.4778727E+02  0.7816164E-02  0.1312668E+00
        -11   -1    0    0    0    0  0.00000000000E+00  0.00000000000E+00  0.45593999997E+02  0.45594000000E+02  0.51100000000E-03 0.  1.
         11   -1    0    0    0    0 -0.00000000000E+00 -0.00000000000E+00 -0.45593999997E+02  0.45594000000E+02  0.51100000000E-03 0. -1.
    9900012    2    1    2    0    0 -0.17793469395E+02 -0.27954444523E+02 -0.28027934414E+02  0.47787266951E+02  0.19999981335E+02 0.  0.
        -12    1    1    2    0    0  0.17793469395E+02  0.27954444523E+02  0.28027934414E+02  0.43400733049E+02  0.00000000000E+00 0.  1.
         11    1    3    3    0    0 -0.39528900013E+01 -0.59682824086E+01 -0.17748025030E+02  0.19137349006E+02  0.51100000000E-03 0. -1.
        -11    1    3    3    0    0 -0.65368349740E+01 -0.80855530859E+01 -0.10865177925E+01  0.10454037562E+02  0.51100000000E-03 0.  1.
         12    1    3    3    0    0 -0.73037444199E+01 -0.13900609029E+02 -0.91933915916E+01  0.18195880382E+02  0.00000000000E+00 0. -1.
</event>
<event>
 7    1  0.2497395E-009  0.4778726E+02  0.7816164E-02  0.1312668E+00
        -11   -1    0    0    0    0  0.00000000000E+00  0.00000000000E+00  0.45593999997E+02  0.45594000000E+02  0.51100000000E-03 0.  1.
         11   -1    0    0    0    0 -0.00000000000E+00 -0.00000000000E+00 -0.45593999997E+02  0.45594000000E+02  0.51100000000E-03 0. -1.
    9900012    2    1    2    0    0 -0.40316855478E+01  0.36541975770E+02 -0.23066298391E+02  0.47787255732E+02  0.19999930185E+02 0.  0.
        -12    1    1    2    0    0  0.40316855478E+01 -0.36541975770E+02  0.23066298391E+02  0.43400744268E+02  0.00000000000E+00 0.  1.
         11    1    3    3    0    0 -0.18269006342E-01  0.91298497201E+01 -0.12273654103E+02  0.15296962933E+02  0.51100000000E-03 0. -1.
        -11    1    3    3    0    0 -0.24520339726E+01  0.17206236520E+01 -0.54258752614E+01  0.61978334092E+01  0.51100000000E-03 0.  1.
         12    1    3    3    0    0 -0.15613825688E+01  0.25691502398E+02 -0.53667690262E+01  0.26292459390E+02  0.00000000000E+00 0. -1.
</event>
<event>
 7    1  0.2497395E-009  0.4778727E+02  0.7816164E-02  0.1312668E+00
        -11   -1    0    0    0    0  0.00000000000E+00  0.00000000000E+00  0.45593999997E+02  0.45594000000E+02  0.51100000000E-03 0.  1.
         11   -1    0    0    0    0 -0.00000000000E+00 -0.00000000000E+00 -0.45593999997E+02  0.45594000000E+02  0.51100000000E-03 0. -1.
    9900012    2    1    2    0    0  0.22736525006E+01 -0.63486003109E+01 -0.42873638734E+02  0.47787272819E+02  0.20000008090E+02 0.  0.
        -12    1    1    2    0    0 -0.22736525006E+01  0.63486003109E+01  0.42873638734E+02  0.43400727181E+02  0.00000000000E+00 0.  1.
         11    1    3    3    0    0 -0.19226045238E+00  0.37278032934E+01 -0.25920231665E+02  0.26187628592E+02  0.51100000000E-03 0. -1.
        -11    1    3    3    0    0 -0.16065241245E+01  0.37189772289E+00 -0.56751109589E+00  0.17439314161E+01  0.51100000000E-03 0.  1.
         12    1    3    3    0    0  0.40724370775E+01 -0.10448301327E+02 -0.16385895973E+02  0.19855712810E+02  0.00000000000E+00 0. -1.
</event>
<event>
 7    1  0.2497395E-009  0.4778727E+02  0.7816164E-02  0.1312668E+00
        -11   -1    0    0    0    0  0.00000000000E+00  0.00000000000E+00  0.45593999997E+02  0.45594000000E+02  0.51100000000E-03 0.  1.
         11   -1    0    0    0    0 -0.00000000000E+00 -0.00000000000E+00 -0.45593999997E+02  0.45594000000E+02  0.51100000000E-03 0. -1.
    9900012    2    1    2    0    0  0.25198212323E+02  0.71831170182E+01 -0.34598787428E+02  0.47787272289E+02  0.20000005673E+02 0.  0.
        -12    1    1    2    0    0 -0.25198212323E+02 -0.71831170182E+01  0.34598787428E+02  0.43400727711E+02  0.00000000000E+00 0.  1.
         11    1    3    3    0    0  0.86477341271E+01 -0.24754173973E+00 -0.14334040558E+02  0.16742440127E+02  0.51100000000E-03 0. -1.
        -11    1    3    3    0    0  0.11164840395E+02  0.66103880706E+01 -0.21813957858E+02  0.25381088416E+02  0.51100000000E-03 0.  1.
        -12    1    3    3    0    0  0.53856378013E+01  0.82027068736E+00  0.15492109877E+01  0.56637437453E+01  0.00000000000E+00 0.  1.
</event>
<event>
 7    1  0.2497395E-009  0.4778727E+02  0.7816164E-02  0.1312668E+00
        -11   -1    0    0    0    0  0.00000000000E+00  0.00000000000E+00  0.45593999997E+02  0.45594000000E+02  0.51100000000E-03 0.  1.
         11   -1    0    0    0    0 -0.00000000000E+00 -0.00000000000E+00 -0.45593999997E+02  0.45594000000E+02  0.51100000000E-03 0. -1.
    9900012    2    1    2    0    0  0.18282546250E+00 -0.10763198626E+02 -0.42044541445E+02  0.47787270339E+02  0.19999996784E+02 0.  0.
        -12    1    1    2    0    0 -0.18282546250E+00  0.10763198626E+02  0.42044541445E+02  0.43400729661E+02  0.00000000000E+00 0.  1.
         11    1    3    3    0    0  0.29211662311E+01 -0.50278216692E+01 -0.11501942658E+02  0.12888246120E+02  0.51100000000E-03 0.  1.
        -11    1    3    3    0    0 -0.29981667420E+01 -0.85063106602E+01 -0.76175221878E+01  0.11805632952E+02  0.51100000000E-03 0. -1.
        -12    1    3    3    0    0  0.25982597340E+00  0.27709337036E+01 -0.22925076599E+02  0.23093391266E+02  0.00000000000E+00 0.  1.
</event>
<event>
 7    1  0.2497395E-009  0.4778727E+02  0.7816164E-02  0.1312668E+00
        -11   -1    0    0    0    0  0.00000000000E+00  0.00000000000E+00  0.45593999997E+02  0.45594000000E+02  0.51100000000E-03 0.  1.
         11   -1    0    0    0    0 -0.00000000000E+00 -0.00000000000E+00 -0.45593999997E+02  0.45594000000E+02  0.51100000000E-03 0. -1.
    9900012    2    1    2    0    0  0.46317113320E+01  0.28859959901E+02 -0.32082287806E+02  0.47787271593E+02  0.20000002503E+02 0.  0.
        -12    1    1    2    0    0 -0.46317113320E+01 -0.28859959901E+02  0.32082287806E+02  0.43400728407E+02  0.00000000000E+00 0.  1.
         11    1    3    3    0    0  0.39472766803E+01  0.21888984313E+02 -0.28966443010E+02  0.36520726284E+02  0.51100000000E-03 0. -1.
        -11    1    3    3    0    0  0.58420669048E+00  0.93388566000E+00  0.26796911151E+01  0.28972719266E+01  0.51100000000E-03 0.  1.
        -12    1    3    3    0    0  0.10022796121E+00  0.60370899288E+01 -0.57955359111E+01  0.83692733824E+01  0.00000000000E+00 0.  1.
</event>
<event>
 7    1  0.2497395E-009  0.4778727E+02  0.7816164E-02  0.1312668E+00
        -11   -1    0    0    0    0  0.00000000000E+00  0.00000000000E+00  0.45593999997E+02  0.45594000000E+02  0.51100000000E-03 0. -1.
         11   -1    0    0    0    0 -0.00000000000E+00 -0.00000000000E+00 -0.45593999997E+02  0.45594000000E+02  0.51100000000E-03 0.  1.
    9900012    2    1    2    0    0  0.37511186153E+02  0.19355727419E+01  0.21743681944E+02  0.47787271516E+02  0.20000002151E+02 0.  0.
        -12    1    1    2    0    0 -0.37511186153E+02 -0.19355727419E+01 -0.21743681944E+02  0.43400728484E+02  0.00000000000E+00 0.  1.
         11    1    3    3    0    0  0.29439327156E+02 -0.40233090674E+01  0.12293968523E+02  0.32155911767E+02  0.51100000000E-03 0. -1.
        -11    1    3    3    0    0  0.67767094037E+01  0.61999639488E+01  0.39886182961E+01  0.10013611710E+02  0.51100000000E-03 0.  1.
        -12    1    3    3    0    0  0.12951495931E+01 -0.24108213952E+00  0.54610951252E+01  0.56177480393E+01  0.00000000000E+00 0.  1.
</event>
<event>
 7    1  0.2497395E-009  0.4778727E+02  0.7816164E-02  0.1312668E+00
        -11   -1    0    0    0    0  0.00000000000E+00  0.00000000000E+00  0.45593999997E+02  0.45594000000E+02  0.51100000000E-03 0.  1.
         11   -1    0    0    0    0 -0.00000000000E+00 -0.00000000000E+00 -0.45593999997E+02  0.45594000000E+02  0.51100000000E-03 0. -1.
    9900012    2    1    2    0    0  0.16385001782E+02 -0.25619280537E+02 -0.30964617351E+02  0.47787270210E+02  0.19999996193E+02 0.  0.
        -12    1    1    2    0    0 -0.16385001782E+02  0.25619280537E+02  0.30964617351E+02  0.43400729790E+02  0.00000000000E+00 0.  1.
         11    1    3    3    0    0 -0.47576562467E+00 -0.52475313392E+01  0.60620737233E+00  0.53038123765E+01  0.51100000000E-03 0. -1.
        -11    1    3    3    0    0  0.34743363881E+00 -0.55704138730E+01 -0.30643658028E+01  0.63671468402E+01  0.51100000000E-03 0.  1.
         12    1    3    3    0    0  0.16513333768E+02 -0.14801335325E+02 -0.28506458921E+02  0.36116310993E+02  0.00000000000E+00 0. -1.
</event>
<event>
 7    1  0.2497395E-009  0.4778728E+02  0.7816164E-02  0.1312668E+00
        -11   -1    0    0    0    0  0.00000000000E+00  0.00000000000E+00  0.45593999997E+02  0.45594000000E+02  0.51100000000E-03 0.  1.
         11   -1    0    0    0    0 -0.00000000000E+00 -0.00000000000E+00 -0.45593999997E+02  0.45594000000E+02  0.51100000000E-03 0. -1.
    9900012    2    1    2    0    0  0.20126370865E+02  0.22097469755E+02 -0.31468296491E+02  0.47787278142E+02  0.20000032359E+02 0.  0.
        -12    1    1    2    0    0 -0.20126370865E+02 -0.22097469755E+02  0.31468296491E+02  0.43400721858E+02  0.00000000000E+00 0.  1.
         11    1    3    3    0    0  0.19542057285E+02  0.19072463118E+02 -0.29440405369E+02  0.40154555419E+02  0.51100000000E-03 0. -1.
        -11    1    3    3    0    0  0.18713535792E+01  0.44788712933E+01 -0.40523649394E-01  0.48542656198E+01  0.51100000000E-03 0.  1.
         12    1    3    3    0    0 -0.12870399999E+01 -0.14538646566E+01 -0.19873674731E+01  0.27784571032E+01  0.00000000000E+00 0. -1.
</event>
<event>
 7    1  0.2497395E-009  0.4778727E+02  0.7816164E-02  0.1312668E+00
        -11   -1    0    0    0    0  0.00000000000E+00  0.00000000000E+00  0.45593999997E+02  0.45594000000E+02  0.51100000000E-03 0. -1.
         11   -1    0    0    0    0 -0.00000000000E+00 -0.00000000000E+00 -0.45593999997E+02  0.45594000000E+02  0.51100000000E-03 0.  1.
    9900012    2    1    2    0    0  0.41973663894E+02 -0.24051408037E+01  0.10772644558E+02  0.47787273811E+02  0.20000012614E+02 0.  0.
        -12    1    1    2    0    0 -0.41973663894E+02  0.24051408037E+01 -0.10772644558E+02  0.43400726189E+02  0.00000000000E+00 0.  1.
         11    1    3    3    0    0  0.19345805405E+02  0.85483579111E+00 -0.20937228803E+01  0.19477541086E+02  0.51100000000E-03 0. -1.
        -11    1    3    3    0    0  0.54271996881E+01  0.51663854468E+00 -0.14194938716E+01  0.56335046776E+01  0.51100000000E-03 0.  1.
         12    1    3    3    0    0  0.17200658801E+02 -0.37766151395E+01  0.14285861310E+02  0.22676228047E+02  0.00000000000E+00 0. -1.
</event>
<event>
 7    1  0.2497395E-009  0.4778727E+02  0.7816164E-02  0.1312668E+00
        -11   -1    0    0    0    0  0.00000000000E+00  0.00000000000E+00  0.45593999997E+02  0.45594000000E+02  0.51100000000E-03 0.  1.
         11   -1    0    0    0    0 -0.00000000000E+00 -0.00000000000E+00 -0.45593999997E+02  0.45594000000E+02  0.51100000000E-03 0. -1.
    9900012    2    1    2    0    0 -0.32335295709E+02 -0.26309479661E+02 -0.12077387074E+02  0.47787270200E+02  0.19999996151E+02 0.  0.
        -12    1    1    2    0    0  0.32335295709E+02  0.26309479661E+02  0.12077387074E+02  0.43400729800E+02  0.00000000000E+00 0.  1.
         11    1    3    3    0    0 -0.15036997006E+02 -0.99360699244E+01  0.12869531637E+01  0.18069117665E+02  0.51100000000E-03 0. -1.
        -11    1    3    3    0    0 -0.13699977901E+02 -0.58314771439E+01 -0.10491651165E+02  0.18214561883E+02  0.51100000000E-03 0.  1.
        -12    1    3    3    0    0 -0.35983208027E+01 -0.10541932592E+02 -0.28726890722E+01  0.11503590652E+02  0.00000000000E+00 0.  1.
</event>
<event>
 7    1  0.2497395E-009  0.4778727E+02  0.7816164E-02  0.1312668E+00
        -11   -1    0    0    0    0  0.00000000000E+00  0.00000000000E+00  0.45593999997E+02  0.45594000000E+02  0.51100000000E-03 0. -1.
         11   -1    0    0    0    0 -0.00000000000E+00 -0.00000000000E+00 -0.45593999997E+02  0.45594000000E+02  0.51100000000E-03 0.  1.
    9900012    2    1    2    0    0 -0.28466187845E+02  0.22185945954E+02  0.24105666930E+02  0.47787271592E+02  0.20000002494E+02 0.  0.
        -12    1    1    2    0    0  0.28466187845E+02 -0.22185945954E+02 -0.24105666930E+02  0.43400728408E+02  0.00000000000E+00 0.  1.
         11    1    3    3    0    0 -0.26053089209E+01  0.10419436484E+02  0.70514128952E+01  0.12848140538E+02  0.51100000000E-03 0. -1.
        -11    1    3    3    0    0 -0.23627474637E+02  0.61267126265E+01  0.13155824941E+02  0.27728503304E+02  0.51100000000E-03 0.  1.
        -12    1    3    3    0    0 -0.22334042865E+01  0.56397968432E+01  0.38984290936E+01  0.72106277491E+01  0.00000000000E+00 0.  1.
</event>
<event>
 7    1  0.2497395E-009  0.4778727E+02  0.7816164E-02  0.1312668E+00
        -11   -1    0    0    0    0  0.00000000000E+00  0.00000000000E+00  0.45593999997E+02  0.45594000000E+02  0.51100000000E-03 0.  1.
         11   -1    0    0    0    0 -0.00000000000E+00 -0.00000000000E+00 -0.45593999997E+02  0.45594000000E+02  0.51100000000E-03 0. -1.
    9900012    2    1    2    0    0 -0.43395649801E+01  0.41956292968E+02 -0.10220606260E+02  0.47787272631E+02  0.20000007235E+02 0.  0.
        -12    1    1    2    0    0  0.43395649801E+01 -0.41956292968E+02  0.10220606260E+02  0.43400727369E+02  0.00000000000E+00 0.  1.
         11    1    3    3    0    0 -0.23603437541E+01  0.14987037337E+01 -0.51778972646E+01  0.58845523078E+01  0.51100000000E-03 0. -1.
        -11    1    3    3    0    0  0.25909989300E+01  0.47003166649E+01 -0.19951127177E+01  0.57259695443E+01  0.51100000000E-03 0.  1.
         12    1    3    3    0    0 -0.45702201560E+01  0.35757272569E+02 -0.30475962776E+01  0.36176750779E+02  0.00000000000E+00 0. -1.
</event>
<event>
 7    1  0.2497395E-009  0.4778727E+02  0.7816164E-02  0.1312668E+00
        -11   -1    0    0    0    0  0.00000000000E+00  0.00000000000E+00  0.45593999997E+02  0.45594000000E+02  0.51100000000E-03 0.  1.
         11   -1    0    0    0    0 -0.00000000000E+00 -0.00000000000E+00 -0.45593999997E+02  0.45594000000E+02  0.51100000000E-03 0. -1.
    9900012    2    1    2    0    0 -0.15353403890E+02 -0.13286401194E+02 -0.38358409622E+02  0.47787273550E+02  0.20000011423E+02 0.  0.
        -12    1    1    2    0    0  0.15353403890E+02  0.13286401194E+02  0.38358409622E+02  0.43400726450E+02  0.00000000000E+00 0.  1.
         11    1    3    3    0    0  0.14653123734E+01 -0.25082743424E+01 -0.15611257607E+02  0.15879229983E+02  0.51100000000E-03 0. -1.
        -11    1    3    3    0    0 -0.86485925562E+01 -0.10232535932E+02 -0.98419008893E+01  0.16624258124E+02  0.51100000000E-03 0.  1.
         12    1    3    3    0    0 -0.81701237071E+01 -0.54559091988E+00 -0.12905251125E+02  0.15283785442E+02  0.00000000000E+00 0. -1.
</event>
<event>
 7    1  0.2497395E-009  0.4778728E+02  0.7816164E-02  0.1312668E+00
        -11   -1    0    0    0    0  0.00000000000E+00  0.00000000000E+00  0.45593999997E+02  0.45594000000E+02  0.51100000000E-03 0.  1.
         11   -1    0    0    0    0 -0.00000000000E+00 -0.00000000000E+00 -0.45593999997E+02  0.45594000000E+02  0.51100000000E-03 0. -1.
    9900012    2    1    2    0    0 -0.21796526056E+02 -0.45717027112E+01 -0.37250951465E+02  0.47787281126E+02  0.20000045965E+02 0.  0.
        -12    1    1    2    0    0  0.21796526056E+02  0.45717027112E+01  0.37250951465E+02  0.43400718874E+02  0.00000000000E+00 0.  1.
         11    1    3    3    0    0 -0.18892538902E+02 -0.22599905247E+01 -0.29599200497E+02  0.35187330869E+02  0.51100000000E-03 0. -1.
        -11    1    3    3    0    0  0.29542955337E+01  0.83761896158E+00 -0.38993660832E+01  0.49633178155E+01  0.51100000000E-03 0.  1.
        -12    1    3    3    0    0 -0.58582826872E+01 -0.31493311481E+01 -0.37523848841E+01  0.76366324412E+01  0.00000000000E+00 0.  1.
</event>
<event>
 7    1  0.2497395E-009  0.4778726E+02  0.7816164E-02  0.1312668E+00
        -11   -1    0    0    0    0  0.00000000000E+00  0.00000000000E+00  0.45593999997E+02  0.45594000000E+02  0.51100000000E-03 0. -1.
         11   -1    0    0    0    0 -0.00000000000E+00 -0.00000000000E+00 -0.45593999997E+02  0.45594000000E+02  0.51100000000E-03 0.  1.
    9900012    2    1    2    0    0 -0.33101039205E+02  0.16886704079E+01  0.28019520201E+02  0.47787263641E+02  0.19999966245E+02 0.  0.
        -12    1    1    2    0    0  0.33101039205E+02 -0.16886704079E+01 -0.28019520201E+02  0.43400736359E+02  0.00000000000E+00 0.  1.
         11    1    3    3    0    0 -0.81039326109E+01 -0.42390731112E+01  0.27128189001E+01  0.95395414591E+01  0.51100000000E-03 0. -1.
        -11    1    3    3    0    0 -0.22147385657E+02  0.62766067583E+01  0.26531995259E+02  0.35126190464E+02  0.51100000000E-03 0.  1.
        -12    1    3    3    0    0 -0.28497209372E+01 -0.34886323916E+00 -0.12252939583E+01  0.31215317176E+01  0.00000000000E+00 0.  1.
</event>
<event>
 7    1  0.2497395E-009  0.4778727E+02  0.7816164E-02  0.1312668E+00
        -11   -1    0    0    0    0  0.00000000000E+00  0.00000000000E+00  0.45593999997E+02  0.45594000000E+02  0.51100000000E-03 0.  1.
         11   -1    0    0    0    0 -0.00000000000E+00 -0.00000000000E+00 -0.45593999997E+02  0.45594000000E+02  0.51100000000E-03 0. -1.
    9900012    2    1    2    0    0  0.99900963429E+01  0.74813398691E+00 -0.42228684362E+02  0.47787268297E+02  0.19999987472E+02 0.  0.
        -12    1    1    2    0    0 -0.99900963429E+01 -0.74813398691E+00  0.42228684362E+02  0.43400731703E+02  0.00000000000E+00 0.  1.
         11    1    3    3    0    0  0.68671886542E+01  0.40508376422E-01 -0.10915934947E+02  0.12896416439E+02  0.51100000000E-03 0. -1.
        -11    1    3    3    0    0  0.78331096776E+01  0.27396784872E+01 -0.10126202039E+02  0.13092112642E+02  0.51100000000E-03 0.  1.
        -12    1    3    3    0    0 -0.47102019889E+01 -0.20320528768E+01 -0.21186547376E+02  0.21798739215E+02  0.00000000000E+00 0.  1.
</event>
<event>
 7    1  0.2497395E-009  0.4778727E+02  0.7816164E-02  0.1312668E+00
        -11   -1    0    0    0    0  0.00000000000E+00  0.00000000000E+00  0.45593999997E+02  0.45594000000E+02  0.51100000000E-03 0.  1.
         11   -1    0    0    0    0 -0.00000000000E+00 -0.00000000000E+00 -0.45593999997E+02  0.45594000000E+02  0.51100000000E-03 0. -1.
    9900012    2    1    2    0    0 -0.15503170282E+02  0.23269002390E+02 -0.33193800232E+02  0.47787272646E+02  0.20000007300E+02 0.  0.
        -12    1    1    2    0    0  0.15503170282E+02 -0.23269002390E+02  0.33193800232E+02  0.43400727354E+02  0.00000000000E+00 0.  1.
         11    1    3    3    0    0 -0.12430480203E+02  0.24601018552E+02 -0.32089169478E+02  0.42301793697E+02  0.51100000000E-03 0. -1.
        -11    1    3    3    0    0 -0.93260262471E+00 -0.64144256818E+00  0.16051774100E+01  0.19641260150E+01  0.51100000000E-03 0.  1.
         12    1    3    3    0    0 -0.21400874541E+01 -0.69057359391E+00 -0.27098081641E+01  0.35213529340E+01  0.00000000000E+00 0. -1.
</event>
<event>
 7    1  0.2497395E-009  0.4778727E+02  0.7816164E-02  0.1312668E+00
        -11   -1    0    0    0    0  0.00000000000E+00  0.00000000000E+00  0.45593999997E+02  0.45594000000E+02  0.51100000000E-03 0.  1.
         11   -1    0    0    0    0 -0.00000000000E+00 -0.00000000000E+00 -0.45593999997E+02  0.45594000000E+02  0.51100000000E-03 0. -1.
    9900012    2    1    2    0    0 -0.27812209016E+02  0.33171428563E+02  0.31242032270E+01  0.47787270869E+02  0.19999999201E+02 0.  0.
        -12    1    1    2    0    0  0.27812209016E+02 -0.33171428563E+02 -0.31242032270E+01  0.43400729131E+02  0.00000000000E+00 0.  1.
         11    1    3    3    0    0 -0.12323669725E+02  0.46652251835E+01 -0.29401953161E+01  0.13501181810E+02  0.51100000000E-03 0. -1.
        -11    1    3    3    0    0  0.10885696950E+01  0.20532259089E+01 -0.51976326114E+00  0.23813598474E+01  0.51100000000E-03 0.  1.
         12    1    3    3    0    0 -0.16577108985E+02  0.26452977471E+02  0.65841618043E+01  0.31904729212E+02  0.00000000000E+00 0. -1.
</event>
<event>
 7    1  0.2497395E-009  0.4778728E+02  0.7816164E-02  0.1312668E+00
        -11   -1    0    0    0    0  0.00000000000E+00  0.00000000000E+00  0.45593999997E+02  0.45594000000E+02  0.51100000000E-03 0.  1.
         11   -1    0    0    0    0 -0.00000000000E+00 -0.00000000000E+00 -0.45593999997E+02  0.45594000000E+02  0.51100000000E-03 0. -1.
    9900012    2    1    2    0    0  0.26745990011E+02 -0.32767272375E+02 -0.97252401159E+01  0.47787280929E+02  0.20000045067E+02 0.  0.
        -12    1    1    2    0    0 -0.26745990011E+02  0.32767272375E+02  0.97252401159E+01  0.43400719071E+02  0.00000000000E+00 0.  1.
         11    1    3    3    0    0  0.99078267564E+01 -0.24994392804E+01 -0.24742493866E+01  0.10513521676E+02  0.51100000000E-03 0.  1.
        -11    1    3    3    0    0  0.94866580839E+01 -0.24440993977E+02 -0.14782573828E+01  0.26259171985E+02  0.51100000000E-03 0. -1.
         12    1    3    3    0    0  0.73515051710E+01 -0.58268391176E+01 -0.57727333464E+01  0.11014587267E+02  0.00000000000E+00 0. -1.
</event>
<event>
 7    1  0.2497395E-009  0.4778730E+02  0.7816164E-02  0.1312668E+00
        -11   -1    0    0    0    0  0.00000000000E+00  0.00000000000E+00  0.45593999997E+02  0.45594000000E+02  0.51100000000E-03 0.  1.
         11   -1    0    0    0    0 -0.00000000000E+00 -0.00000000000E+00 -0.45593999997E+02  0.45594000000E+02  0.51100000000E-03 0. -1.
    9900012    2    1    2    0    0 -0.60098192908E+00  0.37979583128E+02  0.20995504313E+02  0.47787295913E+02  0.20000113386E+02 0.  0.
        -12    1    1    2    0    0  0.60098192908E+00 -0.37979583128E+02 -0.20995504313E+02  0.43400704087E+02  0.00000000000E+00 0.  1.
         11    1    3    3    0    0  0.21875964714E+01  0.21089765785E+02  0.19320472489E+02  0.28685265497E+02  0.51100000000E-03 0. -1.
        -11    1    3    3    0    0 -0.24542329854E+01  0.15748558245E+02 -0.12070005254E+01  0.15984279680E+02  0.51100000000E-03 0.  1.
        -12    1    3    3    0    0 -0.33434541508E+00  0.11412590974E+01  0.28820323500E+01  0.31177507358E+01  0.00000000000E+00 0.  1.
</event>
<event>
 7    1  0.2497395E-009  0.4778727E+02  0.7816164E-02  0.1312668E+00
        -11   -1    0    0    0    0  0.00000000000E+00  0.00000000000E+00  0.45593999997E+02  0.45594000000E+02  0.51100000000E-03 0.  1.
         11   -1    0    0    0    0 -0.00000000000E+00 -0.00000000000E+00 -0.45593999997E+02  0.45594000000E+02  0.51100000000E-03 0. -1.
    9900012    2    1    2    0    0 -0.21690923251E+02  0.16357018221E+02 -0.33846347069E+02  0.47787269517E+02  0.19999993035E+02 0.  0.
        -12    1    1    2    0    0  0.21690923251E+02 -0.16357018221E+02  0.33846347069E+02  0.43400730483E+02  0.00000000000E+00 0.  1.
         11    1    3    3    0    0  0.28970645463E+01  0.30887806219E+01 -0.34779379210E+01  0.54799271126E+01  0.51100000000E-03 0.  1.
        -11    1    3    3    0    0 -0.16837687963E+02  0.41356504349E+01 -0.15907443676E+02  0.23529940608E+02  0.51100000000E-03 0. -1.
         12    1    3    3    0    0 -0.77502998348E+01  0.91325871637E+01 -0.14460965472E+02  0.18777401796E+02  0.00000000000E+00 0. -1.
</event>
<event>
 7    1  0.2497395E-009  0.4778731E+02  0.7816164E-02  0.1312668E+00
        -11   -1    0    0    0    0  0.00000000000E+00  0.00000000000E+00  0.45593999997E+02  0.45594000000E+02  0.51100000000E-03 0.  1.
         11   -1    0    0    0    0 -0.00000000000E+00 -0.00000000000E+00 -0.45593999997E+02  0.45594000000E+02  0.51100000000E-03 0. -1.
    9900012    2    1    2    0    0  0.13778650642E+02  0.28887786467E+02 -0.29313210207E+02  0.47787312066E+02  0.20000187034E+02 0.  0.
        -12    1    1    2    0    0 -0.13778650642E+02 -0.28887786467E+02  0.29313210207E+02  0.43400687934E+02  0.00000000000E+00 0.  1.
         11    1    3    3    0    0  0.55226574605E+01  0.14040946221E+02 -0.21343980177E+02  0.26138351253E+02  0.51100000000E-03 0. -1.
        -11    1    3    3    0    0  0.46319155470E+01  0.28368096052E+00  0.34556747904E-01  0.46407231066E+01  0.51100000000E-03 0.  1.
         12    1    3    3    0    0  0.36240776349E+01  0.14563159286E+02 -0.80037867782E+01  0.17008237706E+02  0.00000000000E+00 0. -1.
</event>
<event>
 7    1  0.2497395E-009  0.4778727E+02  0.7816164E-02  0.1312668E+00
        -11   -1    0    0    0    0  0.00000000000E+00  0.00000000000E+00  0.45593999997E+02  0.45594000000E+02  0.51100000000E-03 0. -1.
         11   -1    0    0    0    0 -0.00000000000E+00 -0.00000000000E+00 -0.45593999997E+02  0.45594000000E+02  0.51100000000E-03 0.  1.
    9900012    2    1    2    0    0  0.77978958022E+01 -0.38712824445E+02  0.18003711124E+02  0.47787267637E+02  0.19999984464E+02 0.  0.
        -12    1    1    2    0    0 -0.77978958022E+01  0.38712824445E+02 -0.18003711124E+02  0.43400732363E+02  0.00000000000E+00 0.  1.
         11    1    3    3    0    0  0.86988510469E+01 -0.28671437322E+02  0.91085657965E+01  0.31315927238E+02  0.51100000000E-03 0. -1.
        -11    1    3    3    0    0 -0.49667150548E+01 -0.76708137874E+01  0.62674353907E+01  0.11081082494E+02  0.51100000000E-03 0.  1.
         12    1    3    3    0    0  0.40657598102E+01 -0.23705733348E+01  0.26277099365E+01  0.53902579048E+01  0.00000000000E+00 0. -1.
</event>
<event>
 7    1  0.2497395E-009  0.4778727E+02  0.7816164E-02  0.1312668E+00
        -11   -1    0    0    0    0  0.00000000000E+00  0.00000000000E+00  0.45593999997E+02  0.45594000000E+02  0.51100000000E-03 0. -1.
         11   -1    0    0    0    0 -0.00000000000E+00 -0.00000000000E+00 -0.45593999997E+02  0.45594000000E+02  0.51100000000E-03 0.  1.
    9900012    2    1    2    0    0 -0.13544363364E+01  0.41318337314E+02 -0.13213013489E+02  0.47787271647E+02  0.20000002746E+02 0.  0.
        -12    1    1    2    0    0  0.13544363364E+01 -0.41318337314E+02  0.13213013489E+02  0.43400728353E+02  0.00000000000E+00 0.  1.
         11    1    3    3    0    0  0.39575992369E+01  0.10288531341E+02 -0.63225972991E+01  0.12707938690E+02  0.51100000000E-03 0. -1.
        -11    1    3    3    0    0 -0.56669900901E+01  0.27067523608E+02 -0.62961365057E+00  0.27661562222E+02  0.51100000000E-03 0.  1.
        -12    1    3    3    0    0  0.35495451674E+00  0.39622823647E+01 -0.62608025389E+01  0.74177707350E+01  0.00000000000E+00 0.  1.
</event>
<event>
 7    1  0.2497395E-009  0.4778727E+02  0.7816164E-02  0.1312668E+00
        -11   -1    0    0    0    0  0.00000000000E+00  0.00000000000E+00  0.45593999997E+02  0.45594000000E+02  0.51100000000E-03 0. -1.
         11   -1    0    0    0    0 -0.00000000000E+00 -0.00000000000E+00 -0.45593999997E+02  0.45594000000E+02  0.51100000000E-03 0.  1.
    9900012    2    1    2    0    0 -0.33568315837E+02  0.32850380803E+01  0.27312998839E+02  0.47787271793E+02  0.20000003413E+02 0.  0.
        -12    1    1    2    0    0  0.33568315837E+02 -0.32850380803E+01 -0.27312998839E+02  0.43400728207E+02  0.00000000000E+00 0.  1.
         11    1    3    3    0    0 -0.19748382314E+02 -0.12194371855E+01  0.16009076706E+02  0.25451447273E+02  0.51100000000E-03 0. -1.
        -11    1    3    3    0    0 -0.10054139408E+02  0.84869115161E+01  0.52409532298E+01  0.14162661379E+02  0.51100000000E-03 0.  1.
        -12    1    3    3    0    0 -0.37657941153E+01 -0.39824362504E+01  0.60629689035E+01  0.81731631412E+01  0.00000000000E+00 0.  1.
</event>
<event>
 7    1  0.2497395E-009  0.4778728E+02  0.7816164E-02  0.1312668E+00
        -11   -1    0    0    0    0  0.00000000000E+00  0.00000000000E+00  0.45593999997E+02  0.45594000000E+02  0.51100000000E-03 0.  1.
         11   -1    0    0    0    0 -0.00000000000E+00 -0.00000000000E+00 -0.45593999997E+02  0.45594000000E+02  0.51100000000E-03 0. -1.
    9900012    2    1    2    0    0 -0.50102762429E+01  0.23417259588E+02 -0.36196022038E+02  0.47787275052E+02  0.20000018272E+02 0.  0.
        -12    1    1    2    0    0  0.50102762429E+01 -0.23417259588E+02  0.36196022038E+02  0.43400724948E+02  0.00000000000E+00 0.  1.
         11    1    3    3    0    0  0.44297405949E+00  0.10636080055E+02 -0.35948338789E+01  0.11235891412E+02  0.51100000000E-03 0. -1.
        -11    1    3    3    0    0 -0.44164189948E+01  0.20351202634E+01 -0.52983825556E+01  0.71916152004E+01  0.51100000000E-03 0.  1.
         12    1    3    3    0    0 -0.10368313076E+01  0.10746059270E+02 -0.27302805604E+02  0.29359768439E+02  0.00000000000E+00 0. -1.
</event>
<event>
 7    1  0.2497395E-009  0.4778726E+02  0.7816164E-02  0.1312668E+00
        -11   -1    0    0    0    0  0.00000000000E+00  0.00000000000E+00  0.45593999997E+02  0.45594000000E+02  0.51100000000E-03 0. -1.
         11   -1    0    0    0    0 -0.00000000000E+00 -0.00000000000E+00 -0.45593999997E+02  0.45594000000E+02  0.51100000000E-03 0.  1.
    9900012    2    1    2    0    0 -0.16055392601E+02  0.39735099365E+02  0.68534857363E+01  0.47787262450E+02  0.19999960816E+02 0.  0.
        -12    1    1    2    0    0  0.16055392601E+02 -0.39735099365E+02 -0.68534857363E+01  0.43400737550E+02  0.00000000000E+00 0.  1.
         11    1    3    3    0    0 -0.85688656822E+01  0.14768158139E+02  0.66982752457E+01  0.18340960865E+02  0.51100000000E-03 0. -1.
        -11    1    3    3    0    0 -0.92517375629E+00  0.14330483499E+02  0.61058521556E+01  0.15604490847E+02  0.51100000000E-03 0.  1.
        -12    1    3    3    0    0 -0.65613531627E+01  0.10636457727E+02 -0.59506416650E+01  0.13841810739E+02  0.00000000000E+00 0.  1.
</event>
<event>
 7    1  0.2497395E-009  0.4778727E+02  0.7816164E-02  0.1312668E+00
        -11   -1    0    0    0    0  0.00000000000E+00  0.00000000000E+00  0.45593999997E+02  0.45594000000E+02  0.51100000000E-03 0.  1.
         11   -1    0    0    0    0 -0.00000000000E+00 -0.00000000000E+00 -0.45593999997E+02  0.45594000000E+02  0.51100000000E-03 0. -1.
    9900012    2    1    2    0    0  0.26479258062E+02  0.28224390187E+02 -0.19643214783E+02  0.47787271943E+02  0.20000004096E+02 0.  0.
        -12    1    1    2    0    0 -0.26479258062E+02 -0.28224390187E+02  0.19643214783E+02  0.43400728057E+02  0.00000000000E+00 0.  1.
         11    1    3    3    0    0 -0.15526396267E+01  0.68459852623E+01 -0.57865002111E+01  0.90973506570E+01  0.51100000000E-03 0.  1.
        -11    1    3    3    0    0  0.91222143202E+01  0.39452591551E+01 -0.11570927702E+01  0.10005934631E+02  0.51100000000E-03 0. -1.
         12    1    3    3    0    0  0.18909683368E+02  0.17433145769E+02 -0.12699621801E+02  0.28683986654E+02  0.00000000000E+00 0. -1.
</event>
<event>
 7    1  0.2497395E-009  0.4778727E+02  0.7816164E-02  0.1312668E+00
        -11   -1    0    0    0    0  0.00000000000E+00  0.00000000000E+00  0.45593999997E+02  0.45594000000E+02  0.51100000000E-03 0.  1.
         11   -1    0    0    0    0 -0.00000000000E+00 -0.00000000000E+00 -0.45593999997E+02  0.45594000000E+02  0.51100000000E-03 0. -1.
    9900012    2    1    2    0    0 -0.15412150524E+01  0.13121189724E+02 -0.41341044986E+02  0.47787274612E+02  0.20000016268E+02 0.  0.
        -12    1    1    2    0    0  0.15412150524E+01 -0.13121189724E+02  0.41341044986E+02  0.43400725388E+02  0.00000000000E+00 0.  1.
         11    1    3    3    0    0 -0.64789109528E+01  0.78457464688E+01 -0.12179443742E+02  0.15870440287E+02  0.51100000000E-03 0.  1.
        -11    1    3    3    0    0 -0.27235124830E+01  0.30955849953E+01 -0.50260080135E+01  0.65008402165E+01  0.51100000000E-03 0. -1.
         12    1    3    3    0    0  0.76612083834E+01  0.21798582599E+01 -0.24135593231E+02  0.25415994109E+02  0.00000000000E+00 0. -1.
</event>
<event>
 7    1  0.2497395E-009  0.4778726E+02  0.7816164E-02  0.1312668E+00
        -11   -1    0    0    0    0  0.00000000000E+00  0.00000000000E+00  0.45593999997E+02  0.45594000000E+02  0.51100000000E-03 0. -1.
         11   -1    0    0    0    0 -0.00000000000E+00 -0.00000000000E+00 -0.45593999997E+02  0.45594000000E+02  0.51100000000E-03 0.  1.
    9900012    2    1    2    0    0  0.10408880695E+02  0.12320182124E+02  0.40292586247E+02  0.47787260474E+02  0.19999951807E+02 0.  0.
        -12    1    1    2    0    0 -0.10408880695E+02 -0.12320182124E+02 -0.40292586247E+02  0.43400739526E+02  0.00000000000E+00 0.  1.
         11    1    3    3    0    0  0.45521595389E+01  0.12690946624E+02  0.25863496748E+02  0.29166808996E+02  0.51100000000E-03 0. -1.
        -11    1    3    3    0    0 -0.14787293029E+00 -0.20817756162E+01 -0.74185983579E+00  0.22149520078E+01  0.51100000000E-03 0.  1.
        -12    1    3    3    0    0  0.60045940860E+01  0.17110111163E+01  0.15170949335E+02  0.16405499471E+02  0.00000000000E+00 0.  1.
</event>
<event>
 7    1  0.2497395E-009  0.4778726E+02  0.7816164E-02  0.1312668E+00
        -11   -1    0    0    0    0  0.00000000000E+00  0.00000000000E+00  0.45593999997E+02  0.45594000000E+02  0.51100000000E-03 0.  1.
         11   -1    0    0    0    0 -0.00000000000E+00 -0.00000000000E+00 -0.45593999997E+02  0.45594000000E+02  0.51100000000E-03 0. -1.
    9900012    2    1    2    0    0  0.79955046505E+01 -0.42657808716E+02  0.85596581180E-01  0.47787261921E+02  0.19999958402E+02 0.  0.
        -12    1    1    2    0    0 -0.79955046505E+01  0.42657808716E+02 -0.85596581180E-01  0.43400738079E+02  0.00000000000E+00 0.  1.
         11    1    3    3    0    0  0.81397808832E+01 -0.15681956807E+02  0.12346444941E+01  0.17711695272E+02  0.51100000000E-03 0.  1.
        -11    1    3    3    0    0 -0.59691594752E+01 -0.17519574876E+02 -0.31952207700E+01  0.18782326925E+02  0.51100000000E-03 0. -1.
         12    1    3    3    0    0  0.58248832424E+01 -0.94562770319E+01  0.20461728570E+01  0.11293239724E+02  0.00000000000E+00 0. -1.
</event>
<event>
 7    1  0.2497395E-009  0.4778730E+02  0.7816164E-02  0.1312668E+00
        -11   -1    0    0    0    0  0.00000000000E+00  0.00000000000E+00  0.45593999997E+02  0.45594000000E+02  0.51100000000E-03 0.  1.
         11   -1    0    0    0    0 -0.00000000000E+00 -0.00000000000E+00 -0.45593999997E+02  0.45594000000E+02  0.51100000000E-03 0. -1.
    9900012    2    1    2    0    0 -0.22326453306E+02  0.34930663160E+02 -0.12845197939E+02  0.47787298898E+02  0.20000126997E+02 0.  0.
        -12    1    1    2    0    0  0.22326453306E+02 -0.34930663160E+02  0.12845197939E+02  0.43400701102E+02  0.00000000000E+00 0.  1.
         11    1    3    3    0    0 -0.20909704618E+01  0.13316468574E+02 -0.11110556797E+02  0.17468399050E+02  0.51100000000E-03 0. -1.
        -11    1    3    3    0    0 -0.36274696789E+00 -0.40688397520E+00 -0.29929698671E+00  0.62186725221E+00  0.51100000000E-03 0.  1.
         12    1    3    3    0    0 -0.19872735876E+02  0.22021078561E+02 -0.14353441556E+01  0.29697032597E+02  0.00000000000E+00 0. -1.
</event>
<event>
 7    1  0.2497395E-009  0.4778727E+02  0.7816164E-02  0.1312668E+00
        -11   -1    0    0    0    0  0.00000000000E+00  0.00000000000E+00  0.45593999997E+02  0.45594000000E+02  0.51100000000E-03 0.  1.
         11   -1    0    0    0    0 -0.00000000000E+00 -0.00000000000E+00 -0.45593999997E+02  0.45594000000E+02  0.51100000000E-03 0. -1.
    9900012    2    1    2    0    0 -0.52779413822E+00  0.41215187334E+02 -0.13588722197E+02  0.47787267235E+02  0.19999982631E+02 0.  0.
        -12    1    1    2    0    0  0.52779413822E+00 -0.41215187334E+02  0.13588722197E+02  0.43400732765E+02  0.00000000000E+00 0.  1.
         11    1    3    3    0    0  0.26036191399E+01  0.31878048103E+01 -0.67524703505E-01  0.41164902503E+01  0.51100000000E-03 0. -1.
        -11    1    3    3    0    0 -0.34475673069E+01  0.10310951621E+01  0.12842086969E+01  0.38207420493E+01  0.51100000000E-03 0.  1.
        -12    1    3    3    0    0  0.31615402878E+00  0.36996287361E+02 -0.14805406190E+02  0.39850034935E+02  0.00000000000E+00 0.  1.
</event>
<event>
 7    1  0.2497395E-009  0.4778727E+02  0.7816164E-02  0.1312668E+00
        -11   -1    0    0    0    0  0.00000000000E+00  0.00000000000E+00  0.45593999997E+02  0.45594000000E+02  0.51100000000E-03 0.  1.
         11   -1    0    0    0    0 -0.00000000000E+00 -0.00000000000E+00 -0.45593999997E+02  0.45594000000E+02  0.51100000000E-03 0. -1.
    9900012    2    1    2    0    0  0.25814896799E+02  0.20297399002E+01 -0.34829504183E+02  0.47787273019E+02  0.20000009005E+02 0.  0.
        -12    1    1    2    0    0 -0.25814896799E+02 -0.20297399002E+01  0.34829504183E+02  0.43400726981E+02  0.00000000000E+00 0.  1.
         11    1    3    3    0    0  0.22407572415E+02  0.47456990491E+01 -0.20978486504E+02  0.31059907554E+02  0.51100000000E-03 0. -1.
        -11    1    3    3    0    0  0.57820643038E+01 -0.26147791904E+01 -0.68678312012E+01  0.93507456118E+01  0.51100000000E-03 0.  1.
         12    1    3    3    0    0 -0.23747399206E+01 -0.10117995845E+00 -0.69831864778E+01  0.73766198532E+01  0.00000000000E+00 0. -1.
</event>
<event>
 7    1  0.2497395E-009  0.4778726E+02  0.7816164E-02  0.1312668E+00
        -11   -1    0    0    0    0  0.00000000000E+00  0.00000000000E+00  0.45593999997E+02  0.45594000000E+02  0.51100000000E-03 0.  1.
         11   -1    0    0    0    0 -0.00000000000E+00 -0.00000000000E+00 -0.45593999997E+02  0.45594000000E+02  0.51100000000E-03 0. -1.
    9900012    2    1    2    0    0 -0.15492516832E+02  0.37017472434E+02 -0.16532176025E+02  0.47787260521E+02  0.19999952020E+02 0.  0.
        -12    1    1    2    0    0  0.15492516832E+02 -0.37017472434E+02  0.16532176025E+02  0.43400739479E+02  0.00000000000E+00 0.  1.
         11    1    3    3    0    0 -0.79244595039E+01  0.72826726254E+01 -0.10037059735E+02  0.14716553516E+02  0.51100000000E-03 0. -1.
        -11    1    3    3    0    0  0.16691949490E+01  0.14590043884E+02 -0.27645342999E+01  0.14943167083E+02  0.51100000000E-03 0.  1.
         12    1    3    3    0    0 -0.92372522770E+01  0.15144755925E+02 -0.37305819900E+01  0.18127539922E+02  0.00000000000E+00 0. -1.
</event>
<event>
 7    1  0.2497395E-009  0.4778727E+02  0.7816164E-02  0.1312668E+00
        -11   -1    0    0    0    0  0.00000000000E+00  0.00000000000E+00  0.45593999997E+02  0.45594000000E+02  0.51100000000E-03 0.  1.
         11   -1    0    0    0    0 -0.00000000000E+00 -0.00000000000E+00 -0.45593999997E+02  0.45594000000E+02  0.51100000000E-03 0. -1.
    9900012    2    1    2    0    0 -0.38293333761E+02  0.34804084923E+01 -0.20127866300E+02  0.47787266647E+02  0.19999979948E+02 0.  0.
        -12    1    1    2    0    0  0.38293333761E+02 -0.34804084923E+01  0.20127866300E+02  0.43400733353E+02  0.00000000000E+00 0.  1.
         11    1    3    3    0    0 -0.14935032164E+02 -0.53984293860E+01 -0.78941664475E+01  0.17734601482E+02  0.51100000000E-03 0.  1.
        -11    1    3    3    0    0 -0.22823598658E+02  0.88500597265E+01 -0.79534180371E+01  0.25739018467E+02  0.51100000000E-03 0. -1.
        -12    1    3    3    0    0 -0.53470293923E+00  0.28778151763E-01 -0.42802818155E+01  0.43136466980E+01  0.00000000000E+00 0.  1.
</event>
<event>
 7    1  0.2497395E-009  0.4778727E+02  0.7816164E-02  0.1312668E+00
        -11   -1    0    0    0    0  0.00000000000E+00  0.00000000000E+00  0.45593999997E+02  0.45594000000E+02  0.51100000000E-03 0.  1.
         11   -1    0    0    0    0 -0.00000000000E+00 -0.00000000000E+00 -0.45593999997E+02  0.45594000000E+02  0.51100000000E-03 0. -1.
    9900012    2    1    2    0    0 -0.16770879226E+02 -0.22796199622E+02 -0.32904317127E+02  0.47787271978E+02  0.20000004259E+02 0.  0.
        -12    1    1    2    0    0  0.16770879226E+02  0.22796199622E+02  0.32904317127E+02  0.43400728022E+02  0.00000000000E+00 0.  1.
         11    1    3    3    0    0 -0.57844515502E+01 -0.39725149429E+01 -0.54257077573E+01  0.88701217374E+01  0.51100000000E-03 0. -1.
        -11    1    3    3    0    0 -0.11860358743E+02 -0.21401601507E+02 -0.22488729600E+02  0.33233110235E+02  0.51100000000E-03 0.  1.
        -12    1    3    3    0    0  0.87393106712E+00  0.25779168280E+01 -0.49898797693E+01  0.56840400064E+01  0.00000000000E+00 0.  1.
</event>
<event>
 7    1  0.2497395E-009  0.4778727E+02  0.7816164E-02  0.1312668E+00
        -11   -1    0    0    0    0  0.00000000000E+00  0.00000000000E+00  0.45593999997E+02  0.45594000000E+02  0.51100000000E-03 0.  1.
         11   -1    0    0    0    0 -0.00000000000E+00 -0.00000000000E+00 -0.45593999997E+02  0.45594000000E+02  0.51100000000E-03 0. -1.
    9900012    2    1    2    0    0 -0.23751144180E+02 -0.20267915497E+02 -0.30144949106E+02  0.47787271837E+02  0.20000003615E+02 0.  0.
        -12    1    1    2    0    0  0.23751144180E+02  0.20267915497E+02  0.30144949106E+02  0.43400728163E+02  0.00000000000E+00 0.  1.
         11    1    3    3    0    0  0.28717187171E+01 -0.17235635418E+01 -0.33526925369E+01  0.47389858810E+01  0.51100000000E-03 0.  1.
        -11    1    3    3    0    0  0.48113663002E+00  0.38040039744E+00 -0.28645318793E+00  0.67694357898E+00  0.51100000000E-03 0. -1.
         12    1    3    3    0    0 -0.27103999527E+02 -0.18924752353E+02 -0.26505803381E+02  0.42371342377E+02  0.00000000000E+00 0. -1.
</event>
<event>
 7    1  0.2497395E-009  0.4778727E+02  0.7816164E-02  0.1312668E+00
        -11   -1    0    0    0    0  0.00000000000E+00  0.00000000000E+00  0.45593999997E+02  0.45594000000E+02  0.51100000000E-03 0.  1.
         11   -1    0    0    0    0 -0.00000000000E+00 -0.00000000000E+00 -0.45593999997E+02  0.45594000000E+02  0.51100000000E-03 0. -1.
    9900012    2    1    2    0    0 -0.34176218098E+02 -0.53615110247E+01 -0.26208084589E+02  0.47787269801E+02  0.19999994332E+02 0.  0.
        -12    1    1    2    0    0  0.34176218098E+02  0.53615110247E+01  0.26208084589E+02  0.43400730199E+02  0.00000000000E+00 0.  1.
         11    1    3    3    0    0 -0.17025317928E+02  0.45772446643E+01 -0.63644459585E+01  0.18743499990E+02  0.51100000000E-03 0. -1.
        -11    1    3    3    0    0 -0.67259859943E+01 -0.58354650000E+01 -0.13490740623E+02  0.16164517382E+02  0.51100000000E-03 0.  1.
         12    1    3    3    0    0 -0.10424914176E+02 -0.41032906891E+01 -0.63528980074E+01  0.12879252430E+02  0.00000000000E+00 0. -1.
</event>
<event>
 7    1  0.2497395E-009  0.4778727E+02  0.7816164E-02  0.1312668E+00
        -11   -1    0    0    0    0  0.00000000000E+00  0.00000000000E+00  0.45593999997E+02  0.45594000000E+02  0.51100000000E-03 0.  1.
         11   -1    0    0    0    0 -0.00000000000E+00 -0.00000000000E+00 -0.45593999997E+02  0.45594000000E+02  0.51100000000E-03 0. -1.
    9900012    2    1    2    0    0  0.33164048855E+02  0.18602030180E+02  0.20922085526E+02  0.47787270443E+02  0.19999997258E+02 0.  0.
        -12    1    1    2    0    0 -0.33164048855E+02 -0.18602030180E+02 -0.20922085526E+02  0.43400729557E+02  0.00000000000E+00 0.  1.
         11    1    3    3    0    0  0.97968322662E+01  0.29560123505E+01  0.13896445971E+02  0.17257669088E+02  0.51100000000E-03 0. -1.
        -11    1    3    3    0    0  0.47950133145E+01  0.12852799550E+01 -0.20348550729E+01  0.53651405087E+01  0.51100000000E-03 0.  1.
         12    1    3    3    0    0  0.18572203275E+02  0.14360737875E+02  0.90604946287E+01  0.25164460846E+02  0.00000000000E+00 0. -1.
</event>
<event>
 7    1  0.2497395E-009  0.4778727E+02  0.7816164E-02  0.1312668E+00
        -11   -1    0    0    0    0  0.00000000000E+00  0.00000000000E+00  0.45593999997E+02  0.45594000000E+02  0.51100000000E-03 0.  1.
         11   -1    0    0    0    0 -0.00000000000E+00 -0.00000000000E+00 -0.45593999997E+02  0.45594000000E+02  0.51100000000E-03 0. -1.
    9900012    2    1    2    0    0 -0.16821267727E+02  0.36273519609E+02 -0.16878983508E+02  0.47787270086E+02  0.19999995630E+02 0.  0.
        -12    1    1    2    0    0  0.16821267727E+02 -0.36273519609E+02  0.16878983508E+02  0.43400729914E+02  0.00000000000E+00 0.  1.
         11    1    3    3    0    0 -0.97773901448E+01  0.71471400771E+01 -0.71004541694E+01  0.14039067597E+02  0.51100000000E-03 0. -1.
        -11    1    3    3    0    0 -0.52172557056E+01  0.29749952035E+02 -0.83198864280E+01  0.31328899017E+02  0.51100000000E-03 0.  1.
        -12    1    3    3    0    0 -0.18266218769E+01 -0.62357250281E+00 -0.14586429110E+01  0.24193034719E+01  0.00000000000E+00 0.  1.
</event>
<event>
 7    1  0.2497395E-009  0.4778727E+02  0.7816164E-02  0.1312668E+00
        -11   -1    0    0    0    0  0.00000000000E+00  0.00000000000E+00  0.45593999997E+02  0.45594000000E+02  0.51100000000E-03 0. -1.
         11   -1    0    0    0    0 -0.00000000000E+00 -0.00000000000E+00 -0.45593999997E+02  0.45594000000E+02  0.51100000000E-03 0.  1.
    9900012    2    1    2    0    0 -0.10963014617E+02  0.30964873837E+02  0.28365694812E+02  0.47787265635E+02  0.19999975338E+02 0.  0.
        -12    1    1    2    0    0  0.10963014617E+02 -0.30964873837E+02 -0.28365694812E+02  0.43400734365E+02  0.00000000000E+00 0.  1.
         11    1    3    3    0    0 -0.27076887551E+00  0.14322745898E+02  0.45376392465E+01  0.15026793937E+02  0.51100000000E-03 0. -1.
        -11    1    3    3    0    0 -0.11693156707E+02  0.15367809749E+02  0.24331942055E+02  0.31063529978E+02  0.51100000000E-03 0.  1.
        -12    1    3    3    0    0  0.10009109656E+01  0.12743181899E+01 -0.50388648908E+00  0.16969417209E+01  0.00000000000E+00 0.  1.
</event>
<event>
 7    1  0.2497395E-009  0.4778727E+02  0.7816164E-02  0.1312668E+00
        -11   -1    0    0    0    0  0.00000000000E+00  0.00000000000E+00  0.45593999997E+02  0.45594000000E+02  0.51100000000E-03 0.  1.
         11   -1    0    0    0    0 -0.00000000000E+00 -0.00000000000E+00 -0.45593999997E+02  0.45594000000E+02  0.51100000000E-03 0. -1.
    9900012    2    1    2    0    0 -0.13761769153E+02 -0.92207221036E+01 -0.40115025673E+02  0.47787270846E+02  0.19999999097E+02 0.  0.
        -12    1    1    2    0    0  0.13761769153E+02  0.92207221036E+01  0.40115025673E+02  0.43400729154E+02  0.00000000000E+00 0.  1.
         11    1    3    3    0    0 -0.23860512198E+01 -0.10041067934E+02 -0.81388914212E+01  0.13143737653E+02  0.51100000000E-03 0. -1.
        -11    1    3    3    0    0 -0.92362060953E+00  0.78815409704E+00 -0.12333564476E+02  0.12393186630E+02  0.51100000000E-03 0.  1.
         12    1    3    3    0    0 -0.10452097324E+02  0.32191732880E-01 -0.19642569776E+02  0.22250346563E+02  0.00000000000E+00 0. -1.
</event>
<event>
 7    1  0.2497395E-009  0.4778727E+02  0.7816164E-02  0.1312668E+00
        -11   -1    0    0    0    0  0.00000000000E+00  0.00000000000E+00  0.45593999997E+02  0.45594000000E+02  0.51100000000E-03 0. -1.
         11   -1    0    0    0    0 -0.00000000000E+00 -0.00000000000E+00 -0.45593999997E+02  0.45594000000E+02  0.51100000000E-03 0.  1.
    9900012    2    1    2    0    0 -0.69801817508E+01 -0.24436236042E+02  0.35181973000E+02  0.47787265060E+02  0.19999972715E+02 0.  0.
        -12    1    1    2    0    0  0.69801817508E+01  0.24436236042E+02 -0.35181973000E+02  0.43400734940E+02  0.00000000000E+00 0.  1.
         11    1    3    3    0    0 -0.37205752399E+01 -0.12034456578E+02  0.13493810258E+02  0.18459516266E+02  0.51100000000E-03 0. -1.
        -11    1    3    3    0    0 -0.34004068964E+01 -0.86663620398E+01  0.23424079856E+02  0.25206271351E+02  0.51100000000E-03 0.  1.
        -12    1    3    3    0    0  0.14080038550E+00 -0.37354174239E+01 -0.17359171144E+01  0.41214774423E+01  0.00000000000E+00 0.  1.
</event>
<event>
 7    1  0.2497395E-009  0.4778727E+02  0.7816164E-02  0.1312668E+00
        -11   -1    0    0    0    0  0.00000000000E+00  0.00000000000E+00  0.45593999997E+02  0.45594000000E+02  0.51100000000E-03 0.  1.
         11   -1    0    0    0    0 -0.00000000000E+00 -0.00000000000E+00 -0.45593999997E+02  0.45594000000E+02  0.51100000000E-03 0. -1.
    9900012    2    1    2    0    0  0.16648357219E+01 -0.36683396330E+02  0.23133965560E+02  0.47787267208E+02  0.19999982510E+02 0.  0.
        -12    1    1    2    0    0 -0.16648357219E+01  0.36683396330E+02 -0.23133965560E+02  0.43400732792E+02  0.00000000000E+00 0.  1.
         11    1    3    3    0    0  0.43005414423E+01 -0.26891088968E+02  0.11151435440E+02  0.29427535324E+02  0.51100000000E-03 0. -1.
        -11    1    3    3    0    0 -0.21928930319E+00  0.18873118233E+01  0.23942170746E+01  0.30565191604E+01  0.51100000000E-03 0.  1.
         12    1    3    3    0    0 -0.24164164172E+01 -0.11679619185E+02  0.95883130460E+01  0.15303212724E+02  0.00000000000E+00 0. -1.
</event>
<event>
 7    1  0.2497395E-009  0.4778727E+02  0.7816164E-02  0.1312668E+00
        -11   -1    0    0    0    0  0.00000000000E+00  0.00000000000E+00  0.45593999997E+02  0.45594000000E+02  0.51100000000E-03 0.  1.
         11   -1    0    0    0    0 -0.00000000000E+00 -0.00000000000E+00 -0.45593999997E+02  0.45594000000E+02  0.51100000000E-03 0. -1.
    9900012    2    1    2    0    0 -0.59293767671E+01 -0.12473569646E+01 -0.42975687553E+02  0.47787272715E+02  0.20000007615E+02 0.  0.
        -12    1    1    2    0    0  0.59293767671E+01  0.12473569646E+01  0.42975687553E+02  0.43400727285E+02  0.00000000000E+00 0.  1.
         11    1    3    3    0    0 -0.93145269009E+01 -0.27505754730E+01 -0.11328454329E+02  0.14921794616E+02  0.51100000000E-03 0. -1.
        -11    1    3    3    0    0  0.17074400826E+00  0.31683291597E+01 -0.46668125575E+01  0.56432794445E+01  0.51100000000E-03 0.  1.
         12    1    3    3    0    0  0.32144061255E+01 -0.16651106513E+01 -0.26980420667E+02  0.27222198654E+02  0.00000000000E+00 0. -1.
</event>
<event>
 7    1  0.2497395E-009  0.4778727E+02  0.7816164E-02  0.1312668E+00
        -11   -1    0    0    0    0  0.00000000000E+00  0.00000000000E+00  0.45593999997E+02  0.45594000000E+02  0.51100000000E-03 0.  1.
         11   -1    0    0    0    0 -0.00000000000E+00 -0.00000000000E+00 -0.45593999997E+02  0.45594000000E+02  0.51100000000E-03 0. -1.
    9900012    2    1    2    0    0  0.16882695557E+02 -0.43603028828E+01 -0.39744001856E+02  0.47787270352E+02  0.19999996842E+02 0.  0.
        -12    1    1    2    0    0 -0.16882695557E+02  0.43603028828E+01  0.39744001856E+02  0.43400729648E+02  0.00000000000E+00 0.  1.
         11    1    3    3    0    0  0.71537835065E+01 -0.42370082247E+01 -0.98478650486E+01  0.12888339824E+02  0.51100000000E-03 0. -1.
        -11    1    3    3    0    0  0.38944100052E+01  0.73886230080E+01 -0.11820870718E+02  0.14473809589E+02  0.51100000000E-03 0.  1.
        -12    1    3    3    0    0  0.58345020454E+01 -0.75119176661E+01 -0.18075266089E+02  0.20425120938E+02  0.00000000000E+00 0.  1.
</event>
<event>
 7    1  0.2497395E-009  0.4778727E+02  0.7816164E-02  0.1312668E+00
        -11   -1    0    0    0    0  0.00000000000E+00  0.00000000000E+00  0.45593999997E+02  0.45594000000E+02  0.51100000000E-03 0. -1.
         11   -1    0    0    0    0 -0.00000000000E+00 -0.00000000000E+00 -0.45593999997E+02  0.45594000000E+02  0.51100000000E-03 0.  1.
    9900012    2    1    2    0    0 -0.25915654929E+02  0.24531647012E+02  0.24702229863E+02  0.47787273788E+02  0.20000012510E+02 0.  0.
        -12    1    1    2    0    0  0.25915654929E+02 -0.24531647012E+02 -0.24702229863E+02  0.43400726212E+02  0.00000000000E+00 0.  1.
         11    1    3    3    0    0 -0.29902304407E+01 -0.22541944685E+01  0.51380689075E+01  0.63578788247E+01  0.51100000000E-03 0. -1.
        -11    1    3    3    0    0 -0.18306889327E+02  0.16087778629E+02  0.99555546452E+01  0.26326258500E+02  0.51100000000E-03 0.  1.
        -12    1    3    3    0    0 -0.46185351607E+01  0.10698062852E+02  0.96086063098E+01  0.15103136464E+02  0.00000000000E+00 0.  1.
</event>
<event>
 7    1  0.2497395E-009  0.4778727E+02  0.7816164E-02  0.1312668E+00
        -11   -1    0    0    0    0  0.00000000000E+00  0.00000000000E+00  0.45593999997E+02  0.45594000000E+02  0.51100000000E-03 0.  1.
         11   -1    0    0    0    0 -0.00000000000E+00 -0.00000000000E+00 -0.45593999997E+02  0.45594000000E+02  0.51100000000E-03 0. -1.
    9900012    2    1    2    0    0  0.10603253436E+02 -0.21751198025E+02 -0.36028874622E+02  0.47787269528E+02  0.19999993087E+02 0.  0.
        -12    1    1    2    0    0 -0.10603253436E+02  0.21751198025E+02  0.36028874622E+02  0.43400730472E+02  0.00000000000E+00 0.  1.
         11    1    3    3    0    0  0.50014325406E+01 -0.14185638060E+02 -0.24203771811E+02  0.28496828328E+02  0.51100000000E-03 0. -1.
        -11    1    3    3    0    0 -0.18326015001E+01  0.17085748507E+01  0.26001072121E-01  0.25056601118E+01  0.51100000000E-03 0.  1.
        -12    1    3    3    0    0  0.74344223955E+01 -0.92741348158E+01 -0.11851103883E+02  0.16784781088E+02  0.00000000000E+00 0.  1.
</event>
<event>
 7    1  0.2497395E-009  0.4778727E+02  0.7816164E-02  0.1312668E+00
        -11   -1    0    0    0    0  0.00000000000E+00  0.00000000000E+00  0.45593999997E+02  0.45594000000E+02  0.51100000000E-03 0.  1.
         11   -1    0    0    0    0 -0.00000000000E+00 -0.00000000000E+00 -0.45593999997E+02  0.45594000000E+02  0.51100000000E-03 0. -1.
    9900012    2    1    2    0    0 -0.23940842318E+02  0.12814609361E+02 -0.33856243318E+02  0.47787270103E+02  0.19999995706E+02 0.  0.
        -12    1    1    2    0    0  0.23940842318E+02 -0.12814609361E+02  0.33856243318E+02  0.43400729897E+02  0.00000000000E+00 0.  1.
         11    1    3    3    0    0 -0.48834608141E+01  0.10336687957E+02 -0.15054304196E+02  0.18903105103E+02  0.51100000000E-03 0. -1.
        -11    1    3    3    0    0 -0.36741700176E+01 -0.38196015218E+01 -0.47984994463E+01  0.71494390200E+01  0.51100000000E-03 0.  1.
        -12    1    3    3    0    0 -0.15383211487E+02  0.62975229258E+01 -0.14003439676E+02  0.21734725980E+02  0.00000000000E+00 0.  1.
</event>
<event>
 7    1  0.2497395E-009  0.4778727E+02  0.7816164E-02  0.1312668E+00
        -11   -1    0    0    0    0  0.00000000000E+00  0.00000000000E+00  0.45593999997E+02  0.45594000000E+02  0.51100000000E-03 0. -1.
         11   -1    0    0    0    0 -0.00000000000E+00 -0.00000000000E+00 -0.45593999997E+02  0.45594000000E+02  0.51100000000E-03 0.  1.
    9900012    2    1    2    0    0 -0.18852916805E+02 -0.81675154959E+01  0.38229340861E+02  0.47787270927E+02  0.19999999464E+02 0.  0.
        -12    1    1    2    0    0  0.18852916805E+02  0.81675154959E+01 -0.38229340861E+02  0.43400729073E+02  0.00000000000E+00 0.  1.
         11    1    3    3    0    0 -0.13207404315E+02 -0.93865451561E+01  0.19961064857E+02  0.25709664899E+02  0.51100000000E-03 0. -1.
        -11    1    3    3    0    0  0.15792948485E+01  0.33932506086E+01  0.10928218856E+02  0.11551376089E+02  0.51100000000E-03 0.  1.
        -12    1    3    3    0    0 -0.72248073388E+01 -0.21742209485E+01  0.73400571472E+01  0.10526229940E+02  0.00000000000E+00 0.  1.
</event>
<event>
 7    1  0.2497395E-009  0.4778727E+02  0.7816164E-02  0.1312668E+00
        -11   -1    0    0    0    0  0.00000000000E+00  0.00000000000E+00  0.45593999997E+02  0.45594000000E+02  0.51100000000E-03 0.  1.
         11   -1    0    0    0    0 -0.00000000000E+00 -0.00000000000E+00 -0.45593999997E+02  0.45594000000E+02  0.51100000000E-03 0. -1.
    9900012    2    1    2    0    0  0.35190858422E+01 -0.43134794042E+02 -0.32602247902E+01  0.47787268579E+02  0.19999988759E+02 0.  0.
        -12    1    1    2    0    0 -0.35190858422E+01  0.43134794042E+02  0.32602247902E+01  0.43400731421E+02  0.00000000000E+00 0.  1.
         11    1    3    3    0    0 -0.54813886914E+01 -0.14255480584E+02 -0.66352500384E+00  0.15287400510E+02  0.51100000000E-03 0.  1.
        -11    1    3    3    0    0  0.70619662898E+01 -0.27164631225E+02 -0.55097257773E+01  0.28603245198E+02  0.51100000000E-03 0. -1.
        -12    1    3    3    0    0  0.19385082437E+01 -0.17146822331E+01  0.29130259910E+01  0.38966228706E+01  0.00000000000E+00 0.  1.
</event>
<event>
 7    1  0.2497395E-009  0.4778727E+02  0.7816164E-02  0.1312668E+00
        -11   -1    0    0    0    0  0.00000000000E+00  0.00000000000E+00  0.45593999997E+02  0.45594000000E+02  0.51100000000E-03 0.  1.
         11   -1    0    0    0    0 -0.00000000000E+00 -0.00000000000E+00 -0.45593999997E+02  0.45594000000E+02  0.51100000000E-03 0. -1.
    9900012    2    1    2    0    0  0.28197225477E+01 -0.13137520763E+02 -0.41268368988E+02  0.47787267680E+02  0.19999984659E+02 0.  0.
        -12    1    1    2    0    0 -0.28197225477E+01  0.13137520763E+02  0.41268368988E+02  0.43400732320E+02  0.00000000000E+00 0.  1.
         11    1    3    3    0    0  0.58912517840E+01  0.16509868514E+01 -0.96656800915E+01  0.11439317159E+02  0.51100000000E-03 0. -1.
        -11    1    3    3    0    0 -0.10230556625E+01 -0.11320068766E+02 -0.12797929514E+02  0.17116588441E+02  0.51100000000E-03 0.  1.
         12    1    3    3    0    0 -0.20484735738E+01 -0.34684388481E+01 -0.18804759382E+02  0.19231362080E+02  0.00000000000E+00 0. -1.
</event>
<event>
 7    1  0.2497395E-009  0.4778727E+02  0.7816164E-02  0.1312668E+00
        -11   -1    0    0    0    0  0.00000000000E+00  0.00000000000E+00  0.45593999997E+02  0.45594000000E+02  0.51100000000E-03 0.  1.
         11   -1    0    0    0    0 -0.00000000000E+00 -0.00000000000E+00 -0.45593999997E+02  0.45594000000E+02  0.51100000000E-03 0. -1.
    9900012    2    1    2    0    0 -0.24390359099E+02  0.24086190586E+02 -0.26619337851E+02  0.47787270265E+02  0.19999996446E+02 0.  0.
        -12    1    1    2    0    0  0.24390359099E+02 -0.24086190586E+02  0.26619337851E+02  0.43400729735E+02  0.00000000000E+00 0.  1.
         11    1    3    3    0    0 -0.14650022154E+02  0.22804795159E+02 -0.16342386819E+02  0.31650520352E+02  0.51100000000E-03 0. -1.
        -11    1    3    3    0    0 -0.66712812869E+01 -0.21668590043E+00 -0.10785582870E+02  0.12683916780E+02  0.51100000000E-03 0.  1.
         12    1    3    3    0    0 -0.30690556581E+01  0.14980813270E+01  0.50863183747E+00  0.34528331325E+01  0.00000000000E+00 0. -1.
</event>
<event>
 7    1  0.2497395E-009  0.4778727E+02  0.7816164E-02  0.1312668E+00
        -11   -1    0    0    0    0  0.00000000000E+00  0.00000000000E+00  0.45593999997E+02  0.45594000000E+02  0.51100000000E-03 0.  1.
         11   -1    0    0    0    0 -0.00000000000E+00 -0.00000000000E+00 -0.45593999997E+02  0.45594000000E+02  0.51100000000E-03 0. -1.
    9900012    2    1    2    0    0 -0.36207538069E+02 -0.20453623578E+01 -0.23842270804E+02  0.47787271927E+02  0.20000004024E+02 0.  0.
        -12    1    1    2    0    0  0.36207538069E+02  0.20453623578E+01  0.23842270804E+02  0.43400728073E+02  0.00000000000E+00 0.  1.
         11    1    3    3    0    0 -0.20115852702E+02 -0.49013893510E+01 -0.21541943546E+02  0.29878528737E+02  0.51100000000E-03 0. -1.
        -11    1    3    3    0    0 -0.69800397154E+01  0.47632836340E+01 -0.11815479629E+01  0.85326362430E+01  0.51100000000E-03 0.  1.
         12    1    3    3    0    0 -0.91116456518E+01 -0.19072566408E+01 -0.11187792955E+01  0.93761069475E+01  0.00000000000E+00 0. -1.
</event>
<event>
 7    1  0.2497395E-009  0.4778728E+02  0.7816164E-02  0.1312668E+00
        -11   -1    0    0    0    0  0.00000000000E+00  0.00000000000E+00  0.45593999997E+02  0.45594000000E+02  0.51100000000E-03 0.  1.
         11   -1    0    0    0    0 -0.00000000000E+00 -0.00000000000E+00 -0.45593999997E+02  0.45594000000E+02  0.51100000000E-03 0. -1.
    9900012    2    1    2    0    0  0.30971229504E+02 -0.22608065745E+02 -0.20329316595E+02  0.47787276424E+02  0.20000024527E+02 0.  0.
        -12    1    1    2    0    0 -0.30971229504E+02  0.22608065745E+02  0.20329316595E+02  0.43400723576E+02  0.00000000000E+00 0.  1.
         11    1    3    3    0    0  0.98436334772E+01 -0.12571389399E+02  0.49870930408E-01  0.15966823066E+02  0.51100000000E-03 0. -1.
        -11    1    3    3    0    0  0.50825207030E+01 -0.45993422250E+01 -0.27937747651E+01  0.74021039778E+01  0.51100000000E-03 0.  1.
         12    1    3    3    0    0  0.16045075324E+02 -0.54373341207E+01 -0.17585412760E+02  0.24418349380E+02  0.00000000000E+00 0. -1.
</event>
<event>
 7    1  0.2497395E-009  0.4778727E+02  0.7816164E-02  0.1312668E+00
        -11   -1    0    0    0    0  0.00000000000E+00  0.00000000000E+00  0.45593999997E+02  0.45594000000E+02  0.51100000000E-03 0.  1.
         11   -1    0    0    0    0 -0.00000000000E+00 -0.00000000000E+00 -0.45593999997E+02  0.45594000000E+02  0.51100000000E-03 0. -1.
    9900012    2    1    2    0    0 -0.13507590657E+02  0.10934702967E+02 -0.39769340725E+02  0.47787271942E+02  0.20000004091E+02 0.  0.
        -12    1    1    2    0    0  0.13507590657E+02 -0.10934702967E+02  0.39769340725E+02  0.43400728058E+02  0.00000000000E+00 0.  1.
         11    1    3    3    0    0 -0.59220361498E+01  0.29185151693E+01 -0.10598386313E+02  0.12486554194E+02  0.51100000000E-03 0.  1.
        -11    1    3    3    0    0 -0.12550579839E+02  0.72214592688E+01 -0.24378170328E+02  0.28354218682E+02  0.51100000000E-03 0. -1.
        -12    1    3    3    0    0  0.49650253327E+01  0.79472852898E+00 -0.47927840839E+01  0.69464990653E+01  0.00000000000E+00 0.  1.
</event>
<event>
 7    1  0.2497395E-009  0.4778727E+02  0.7816164E-02  0.1312668E+00
        -11   -1    0    0    0    0  0.00000000000E+00  0.00000000000E+00  0.45593999997E+02  0.45594000000E+02  0.51100000000E-03 0. -1.
         11   -1    0    0    0    0 -0.00000000000E+00 -0.00000000000E+00 -0.45593999997E+02  0.45594000000E+02  0.51100000000E-03 0.  1.
    9900012    2    1    2    0    0 -0.32642995903E+02 -0.17180614676E+02  0.22866665967E+02  0.47787272879E+02  0.20000008365E+02 0.  0.
        -12    1    1    2    0    0  0.32642995903E+02  0.17180614676E+02 -0.22866665967E+02  0.43400727121E+02  0.00000000000E+00 0.  1.
         11    1    3    3    0    0 -0.65938387360E+01 -0.85353440987E+01  0.13626505966E+02  0.17378506071E+02  0.51100000000E-03 0. -1.
        -11    1    3    3    0    0 -0.77557474211E+01 -0.71574121512E+01  0.43470601021E+01  0.11413899358E+02  0.51100000000E-03 0.  1.
         12    1    3    3    0    0 -0.18293409746E+02 -0.14878584258E+01  0.48930998995E+01  0.18994867450E+02  0.00000000000E+00 0. -1.
</event>
<event>
 7    1  0.2497395E-009  0.4778727E+02  0.7816164E-02  0.1312668E+00
        -11   -1    0    0    0    0  0.00000000000E+00  0.00000000000E+00  0.45593999997E+02  0.45594000000E+02  0.51100000000E-03 0.  1.
         11   -1    0    0    0    0 -0.00000000000E+00 -0.00000000000E+00 -0.45593999997E+02  0.45594000000E+02  0.51100000000E-03 0. -1.
    9900012    2    1    2    0    0  0.37489205298E+01  0.40692695250E+02 -0.14617571149E+02  0.47787271456E+02  0.20000001876E+02 0.  0.
        -12    1    1    2    0    0 -0.37489205298E+01 -0.40692695250E+02  0.14617571149E+02  0.43400728544E+02  0.00000000000E+00 0.  1.
         11    1    3    3    0    0 -0.14533016640E+01  0.27344175942E+02 -0.75596298346E+00  0.27393202149E+02  0.51100000000E-03 0. -1.
        -11    1    3    3    0    0  0.37496910281E+01  0.11840392576E+02 -0.97859837046E+01  0.15812038341E+02  0.51100000000E-03 0.  1.
         12    1    3    3    0    0  0.14525311657E+01  0.15081267319E+01 -0.40756244614E+01  0.45820309664E+01  0.00000000000E+00 0. -1.
</event>
<event>
 7    1  0.2497395E-009  0.4778727E+02  0.7816164E-02  0.1312668E+00
        -11   -1    0    0    0    0  0.00000000000E+00  0.00000000000E+00  0.45593999997E+02  0.45594000000E+02  0.51100000000E-03 0.  1.
         11   -1    0    0    0    0 -0.00000000000E+00 -0.00000000000E+00 -0.45593999997E+02  0.45594000000E+02  0.51100000000E-03 0. -1.
    9900012    2    1    2    0    0  0.29911997908E+02 -0.59367246686E+01 -0.30881244972E+02  0.47787267176E+02  0.19999982361E+02 0.  0.
        -12    1    1    2    0    0 -0.29911997908E+02  0.59367246686E+01  0.30881244972E+02  0.43400732824E+02  0.00000000000E+00 0.  1.
         11    1    3    3    0    0  0.18125296842E+02 -0.49145622972E+01 -0.61921614301E+01  0.19774280559E+02  0.51100000000E-03 0. -1.
        -11    1    3    3    0    0  0.34877089062E+01  0.23757372584E+01 -0.90423931793E+01  0.99786329528E+01  0.51100000000E-03 0.  1.
         12    1    3    3    0    0  0.82989921598E+01 -0.33978996298E+01 -0.15646690363E+02  0.18034353664E+02  0.00000000000E+00 0. -1.
</event>
<event>
 7    1  0.2497395E-009  0.4778727E+02  0.7816164E-02  0.1312668E+00
        -11   -1    0    0    0    0  0.00000000000E+00  0.00000000000E+00  0.45593999997E+02  0.45594000000E+02  0.51100000000E-03 0.  1.
         11   -1    0    0    0    0 -0.00000000000E+00 -0.00000000000E+00 -0.45593999997E+02  0.45594000000E+02  0.51100000000E-03 0. -1.
    9900012    2    1    2    0    0 -0.19846021062E+02  0.19940431511E+02 -0.33047505031E+02  0.47787274780E+02  0.20000017031E+02 0.  0.
        -12    1    1    2    0    0  0.19846021062E+02 -0.19940431511E+02  0.33047505031E+02  0.43400725220E+02  0.00000000000E+00 0.  1.
         11    1    3    3    0    0 -0.23419376994E+01  0.64819646451E+01 -0.58181405508E+01  0.90194954171E+01  0.51100000000E-03 0. -1.
        -11    1    3    3    0    0 -0.82292821002E+01 -0.24272213844E+01 -0.50607632287E+01  0.99611150105E+01  0.51100000000E-03 0.  1.
        -12    1    3    3    0    0 -0.92748012619E+01  0.15885688251E+02 -0.22168601252E+02  0.28806664352E+02  0.00000000000E+00 0.  1.
</event>
<event>
 7    1  0.2497395E-009  0.4778727E+02  0.7816164E-02  0.1312668E+00
        -11   -1    0    0    0    0  0.00000000000E+00  0.00000000000E+00  0.45593999997E+02  0.45594000000E+02  0.51100000000E-03 0. -1.
         11   -1    0    0    0    0 -0.00000000000E+00 -0.00000000000E+00 -0.45593999997E+02  0.45594000000E+02  0.51100000000E-03 0.  1.
    9900012    2    1    2    0    0  0.27952865626E+02 -0.29791634092E+02 -0.14653302443E+02  0.47787269234E+02  0.19999991744E+02 0.  0.
        -12    1    1    2    0    0 -0.27952865626E+02  0.29791634092E+02  0.14653302443E+02  0.43400730766E+02  0.00000000000E+00 0.  1.
         11    1    3    3    0    0  0.40031131407E+01 -0.14930957205E+01  0.35283662959E+01  0.55410846075E+01  0.51100000000E-03 0.  1.
        -11    1    3    3    0    0  0.23856328503E+00 -0.37995748166E+01 -0.50027255748E+00  0.38397856868E+01  0.51100000000E-03 0. -1.
         12    1    3    3    0    0  0.23711189200E+02 -0.24498963555E+02 -0.17681396182E+02  0.38406398939E+02  0.00000000000E+00 0. -1.
</event>
<event>
 7    1  0.2497395E-009  0.4778728E+02  0.7816164E-02  0.1312668E+00
        -11   -1    0    0    0    0  0.00000000000E+00  0.00000000000E+00  0.45593999997E+02  0.45594000000E+02  0.51100000000E-03 0.  1.
         11   -1    0    0    0    0 -0.00000000000E+00 -0.00000000000E+00 -0.45593999997E+02  0.45594000000E+02  0.51100000000E-03 0. -1.
    9900012    2    1    2    0    0  0.24360248426E+02  0.34982836823E+02 -0.81487633393E+01  0.47787275127E+02  0.20000018613E+02 0.  0.
        -12    1    1    2    0    0 -0.24360248426E+02 -0.34982836823E+02  0.81487633393E+01  0.43400724873E+02  0.00000000000E+00 0.  1.
         11    1    3    3    0    0  0.76632420926E+01  0.11232454048E+02  0.63255442415E+01  0.14996860122E+02  0.51100000000E-03 0. -1.
        -11    1    3    3    0    0  0.71618389900E+01  0.81922064119E+01 -0.76811878148E+01  0.13319340454E+02  0.51100000000E-03 0.  1.
         12    1    3    3    0    0  0.95351673431E+01  0.15558176364E+02 -0.67931197660E+01  0.19471074551E+02  0.00000000000E+00 0. -1.
</event>
<event>
 7    1  0.2497395E-009  0.4778727E+02  0.7816164E-02  0.1312668E+00
        -11   -1    0    0    0    0  0.00000000000E+00  0.00000000000E+00  0.45593999997E+02  0.45594000000E+02  0.51100000000E-03 0.  1.
         11   -1    0    0    0    0 -0.00000000000E+00 -0.00000000000E+00 -0.45593999997E+02  0.45594000000E+02  0.51100000000E-03 0. -1.
    9900012    2    1    2    0    0 -0.43039585558E+01 -0.35669218850E+02 -0.24347601996E+02  0.47787274711E+02  0.20000016719E+02 0.  0.
        -12    1    1    2    0    0  0.43039585558E+01  0.35669218850E+02  0.24347601996E+02  0.43400725289E+02  0.00000000000E+00 0.  1.
         11    1    3    3    0    0  0.10504180917E+01 -0.98319220715E+01 -0.16450011617E+02  0.19193044372E+02  0.51100000000E-03 0. -1.
        -11    1    3    3    0    0 -0.24098698064E+01 -0.17931321693E+02 -0.17938445479E+01  0.18181244420E+02  0.51100000000E-03 0.  1.
         12    1    3    3    0    0 -0.29445068410E+01 -0.79059750857E+01 -0.61037458312E+01  0.10412985920E+02  0.00000000000E+00 0. -1.
</event>
<event>
 7    1  0.2497395E-009  0.4778727E+02  0.7816164E-02  0.1312668E+00
        -11   -1    0    0    0    0  0.00000000000E+00  0.00000000000E+00  0.45593999997E+02  0.45594000000E+02  0.51100000000E-03 0.  1.
         11   -1    0    0    0    0 -0.00000000000E+00 -0.00000000000E+00 -0.45593999997E+02  0.45594000000E+02  0.51100000000E-03 0. -1.
    9900012    2    1    2    0    0 -0.25421191222E+02 -0.27882820044E+02 -0.21446098431E+02  0.47787265506E+02  0.19999974747E+02 0.  0.
        -12    1    1    2    0    0  0.25421191222E+02  0.27882820044E+02  0.21446098431E+02  0.43400734494E+02  0.00000000000E+00 0.  1.
         11    1    3    3    0    0 -0.10882985022E+02 -0.11222492750E+02  0.62046863182E+00  0.15645085110E+02  0.51100000000E-03 0. -1.
        -11    1    3    3    0    0  0.88120276450E+00 -0.15348356293E+01 -0.17622937112E+01  0.24975824524E+01  0.51100000000E-03 0.  1.
         12    1    3    3    0    0 -0.15419408965E+02 -0.15125491665E+02 -0.20304273351E+02  0.29644597944E+02  0.00000000000E+00 0. -1.
</event>
<event>
 7    1  0.2497395E-009  0.4778727E+02  0.7816164E-02  0.1312668E+00
        -11   -1    0    0    0    0  0.00000000000E+00  0.00000000000E+00  0.45593999997E+02  0.45594000000E+02  0.51100000000E-03 0.  1.
         11   -1    0    0    0    0 -0.00000000000E+00 -0.00000000000E+00 -0.45593999997E+02  0.45594000000E+02  0.51100000000E-03 0. -1.
    9900012    2    1    2    0    0 -0.12278931674E+02  0.56092528773E+01 -0.41247879012E+02  0.47787269547E+02  0.19999993170E+02 0.  0.
        -12    1    1    2    0    0  0.12278931674E+02 -0.56092528773E+01  0.41247879012E+02  0.43400730453E+02  0.00000000000E+00 0.  1.
         11    1    3    3    0    0 -0.29252852047E+01  0.61929241100E+01 -0.34702982100E+01  0.76780578592E+01  0.51100000000E-03 0. -1.
        -11    1    3    3    0    0 -0.74117885439E+01 -0.44534833139E+01 -0.19591468195E+02  0.21414802108E+02  0.51100000000E-03 0.  1.
         12    1    3    3    0    0 -0.19418579256E+01  0.38698120812E+01 -0.18186112607E+02  0.18694409579E+02  0.00000000000E+00 0. -1.
</event>
<event>
 7    1  0.2497395E-009  0.4778727E+02  0.7816164E-02  0.1312668E+00
        -11   -1    0    0    0    0  0.00000000000E+00  0.00000000000E+00  0.45593999997E+02  0.45594000000E+02  0.51100000000E-03 0. -1.
         11   -1    0    0    0    0 -0.00000000000E+00 -0.00000000000E+00 -0.45593999997E+02  0.45594000000E+02  0.51100000000E-03 0.  1.
    9900012    2    1    2    0    0  0.24927031414E+02 -0.31672230842E+02  0.16097711422E+02  0.47787269422E+02  0.19999992605E+02 0.  0.
        -12    1    1    2    0    0 -0.24927031414E+02  0.31672230842E+02 -0.16097711422E+02  0.43400730578E+02  0.00000000000E+00 0.  1.
         11    1    3    3    0    0  0.15828320593E+02 -0.14209752377E+02  0.23277878553E+01  0.21397929619E+02  0.51100000000E-03 0. -1.
        -11    1    3    3    0    0  0.57808987552E+01 -0.16561742472E+02  0.14634185603E+02  0.22844463063E+02  0.51100000000E-03 0.  1.
        -12    1    3    3    0    0  0.33178120659E+01 -0.90073599285E+00 -0.86426203641E+00  0.35448767399E+01  0.00000000000E+00 0.  1.
</event>
<event>
 7    1  0.2497395E-009  0.4778727E+02  0.7816164E-02  0.1312668E+00
        -11   -1    0    0    0    0  0.00000000000E+00  0.00000000000E+00  0.45593999997E+02  0.45594000000E+02  0.51100000000E-03 0.  1.
         11   -1    0    0    0    0 -0.00000000000E+00 -0.00000000000E+00 -0.45593999997E+02  0.45594000000E+02  0.51100000000E-03 0. -1.
    9900012    2    1    2    0    0  0.13412822946E+01  0.20611505049E+02 -0.38170539269E+02  0.47787271358E+02  0.20000001428E+02 0.  0.
        -12    1    1    2    0    0 -0.13412822946E+01 -0.20611505049E+02  0.38170539269E+02  0.43400728642E+02  0.00000000000E+00 0.  1.
         11    1    3    3    0    0 -0.34167734436E+00  0.12950263282E+02 -0.32096247343E+02  0.34612066628E+02  0.51100000000E-03 0. -1.
        -11    1    3    3    0    0 -0.26825542575E+01  0.99940212838E-01 -0.28569896083E+00  0.26995758089E+01  0.51100000000E-03 0.  1.
         12    1    3    3    0    0  0.43655138964E+01  0.75613015543E+01 -0.57885929652E+01  0.10475628921E+02  0.00000000000E+00 0. -1.
</event>
<event>
 7    1  0.2497395E-009  0.4778726E+02  0.7816164E-02  0.1312668E+00
        -11   -1    0    0    0    0  0.00000000000E+00  0.00000000000E+00  0.45593999997E+02  0.45594000000E+02  0.51100000000E-03 0. -1.
         11   -1    0    0    0    0 -0.00000000000E+00 -0.00000000000E+00 -0.45593999997E+02  0.45594000000E+02  0.51100000000E-03 0.  1.
    9900012    2    1    2    0    0  0.87092885311E+00  0.41571156213E+02  0.12438032800E+02  0.47787260307E+02  0.19999951044E+02 0.  0.
        -12    1    1    2    0    0 -0.87092885311E+00 -0.41571156213E+02 -0.12438032800E+02  0.43400739693E+02  0.00000000000E+00 0.  1.
         11    1    3    3    0    0 -0.53407528291E+01  0.26691932157E+02  0.87873457821E+01  0.28604201251E+02  0.51100000000E-03 0. -1.
        -11    1    3    3    0    0  0.79619252857E+01  0.65387696172E+01  0.17274360888E+01  0.10446616585E+02  0.51100000000E-03 0.  1.
        -12    1    3    3    0    0 -0.17502436035E+01  0.83404544390E+01  0.19232509286E+01  0.87364424714E+01  0.00000000000E+00 0.  1.
</event>
<event>
 7    1  0.2497395E-009  0.4778727E+02  0.7816164E-02  0.1312668E+00
        -11   -1    0    0    0    0  0.00000000000E+00  0.00000000000E+00  0.45593999997E+02  0.45594000000E+02  0.51100000000E-03 0.  1.
         11   -1    0    0    0    0 -0.00000000000E+00 -0.00000000000E+00 -0.45593999997E+02  0.45594000000E+02  0.51100000000E-03 0. -1.
    9900012    2    1    2    0    0 -0.81001498014E+01 -0.35893949401E+02 -0.23013802718E+02  0.47787272518E+02  0.20000006721E+02 0.  0.
        -12    1    1    2    0    0  0.81001498014E+01  0.35893949401E+02  0.23013802718E+02  0.43400727482E+02  0.00000000000E+00 0.  1.
         11    1    3    3    0    0 -0.69826467240E+01 -0.17134274120E+02 -0.36804857364E+01  0.18864959062E+02  0.51100000000E-03 0. -1.
        -11    1    3    3    0    0  0.39993820349E+01 -0.78379844960E+01 -0.11734451032E+02  0.14667187832E+02  0.51100000000E-03 0.  1.
        -12    1    3    3    0    0 -0.51168851123E+01 -0.10921690785E+02 -0.75988659496E+01  0.14255125625E+02  0.00000000000E+00 0.  1.
</event>
<event>
 7    1  0.2497395E-009  0.4778727E+02  0.7816164E-02  0.1312668E+00
        -11   -1    0    0    0    0  0.00000000000E+00  0.00000000000E+00  0.45593999997E+02  0.45594000000E+02  0.51100000000E-03 0.  1.
         11   -1    0    0    0    0 -0.00000000000E+00 -0.00000000000E+00 -0.45593999997E+02  0.45594000000E+02  0.51100000000E-03 0. -1.
    9900012    2    1    2    0    0  0.13223789916E+02  0.40417969151E+02 -0.86684723598E+01  0.47787271169E+02  0.20000000566E+02 0.  0.
        -12    1    1    2    0    0 -0.13223789916E+02 -0.40417969151E+02  0.86684723598E+01  0.43400728831E+02  0.00000000000E+00 0.  1.
         11    1    3    3    0    0  0.23439501095E+01  0.20124267991E+02 -0.53372825921E+01  0.20951535743E+02  0.51100000000E-03 0. -1.
        -11    1    3    3    0    0  0.13240772145E+02  0.20049358810E+02 -0.40274757370E+01  0.24362171429E+02  0.51100000000E-03 0.  1.
        -12    1    3    3    0    0 -0.23609323385E+01  0.24434235053E+00  0.69628596923E+00  0.24735639959E+01  0.00000000000E+00 0.  1.
</event>
<event>
 7    1  0.2497395E-009  0.4778728E+02  0.7816164E-02  0.1312668E+00
        -11   -1    0    0    0    0  0.00000000000E+00  0.00000000000E+00  0.45593999997E+02  0.45594000000E+02  0.51100000000E-03 0.  1.
         11   -1    0    0    0    0 -0.00000000000E+00 -0.00000000000E+00 -0.45593999997E+02  0.45594000000E+02  0.51100000000E-03 0. -1.
    9900012    2    1    2    0    0  0.29564805790E+02 -0.89579676768E+00 -0.31760707731E+02  0.47787277093E+02  0.20000027579E+02 0.  0.
        -12    1    1    2    0    0 -0.29564805790E+02  0.89579676768E+00  0.31760707731E+02  0.43400722907E+02  0.00000000000E+00 0.  1.
         11    1    3    3    0    0  0.14601040909E+02 -0.75855167297E+01 -0.21576920527E+02  0.27134737135E+02  0.51100000000E-03 0. -1.
        -11    1    3    3    0    0  0.84698425519E+01  0.32840846988E+01 -0.13694960176E+01  0.91868909195E+01  0.51100000000E-03 0.  1.
         12    1    3    3    0    0  0.64939223296E+01  0.34056352633E+01 -0.88142911863E+01  0.11465649039E+02  0.00000000000E+00 0. -1.
</event>
<event>
 7    1  0.2497395E-009  0.4778727E+02  0.7816164E-02  0.1312668E+00
        -11   -1    0    0    0    0  0.00000000000E+00  0.00000000000E+00  0.45593999997E+02  0.45594000000E+02  0.51100000000E-03 0. -1.
         11   -1    0    0    0    0 -0.00000000000E+00 -0.00000000000E+00 -0.45593999997E+02  0.45594000000E+02  0.51100000000E-03 0.  1.
    9900012    2    1    2    0    0  0.21112081136E+02  0.15463459305E+01  0.37888150829E+02  0.47787272715E+02  0.20000007616E+02 0.  0.
        -12    1    1    2    0    0 -0.21112081136E+02 -0.15463459305E+01 -0.37888150829E+02  0.43400727285E+02  0.00000000000E+00 0.  1.
         11    1    3    3    0    0 -0.22727922275E+01 -0.46310509885E+00  0.10177877659E+02  0.10438833495E+02  0.51100000000E-03 0. -1.
        -11    1    3    3    0    0 -0.31028820070E+00  0.12984971127E+01  0.14669700731E+01  0.19835258949E+01  0.51100000000E-03 0.  1.
         12    1    3    3    0    0  0.23695161564E+02  0.71095391665E+00  0.26243303097E+02  0.35364913325E+02  0.00000000000E+00 0. -1.
</event>
<event>
 7    1  0.2497395E-009  0.4778727E+02  0.7816164E-02  0.1312668E+00
        -11   -1    0    0    0    0  0.00000000000E+00  0.00000000000E+00  0.45593999997E+02  0.45594000000E+02  0.51100000000E-03 0.  1.
         11   -1    0    0    0    0 -0.00000000000E+00 -0.00000000000E+00 -0.45593999997E+02  0.45594000000E+02  0.51100000000E-03 0. -1.
    9900012    2    1    2    0    0  0.25060403821E+02 -0.12962247223E+02 -0.32978473451E+02  0.47787269547E+02  0.19999993172E+02 0.  0.
        -12    1    1    2    0    0 -0.25060403821E+02  0.12962247223E+02  0.32978473451E+02  0.43400730453E+02  0.00000000000E+00 0.  1.
         11    1    3    3    0    0  0.17469951576E+02 -0.12250801555E+02 -0.25539865081E+02  0.33280115015E+02  0.51100000000E-03 0. -1.
        -11    1    3    3    0    0  0.24917234535E+01  0.38687693814E+01 -0.59005858137E+01  0.74828454148E+01  0.51100000000E-03 0.  1.
        -12    1    3    3    0    0  0.50987287913E+01 -0.45802150494E+01 -0.15380225558E+01  0.70243091168E+01  0.00000000000E+00 0.  1.
</event>
<event>
 7    1  0.2497395E-009  0.4778727E+02  0.7816164E-02  0.1312668E+00
        -11   -1    0    0    0    0  0.00000000000E+00  0.00000000000E+00  0.45593999997E+02  0.45594000000E+02  0.51100000000E-03 0.  1.
         11   -1    0    0    0    0 -0.00000000000E+00 -0.00000000000E+00 -0.45593999997E+02  0.45594000000E+02  0.51100000000E-03 0. -1.
    9900012    2    1    2    0    0  0.22895506070E+02 -0.33031487704E+02 -0.16381084185E+02  0.47787270775E+02  0.19999998773E+02 0.  0.
        -12    1    1    2    0    0 -0.22895506070E+02  0.33031487704E+02  0.16381084185E+02  0.43400729225E+02  0.00000000000E+00 0.  1.
         11    1    3    3    0    0  0.21358931304E+02 -0.31352580562E+02 -0.16657034484E+02  0.41432415479E+02  0.51100000000E-03 0. -1.
        -11    1    3    3    0    0 -0.39444774808E+00 -0.31365226720E+01  0.16568548060E+01  0.35691079568E+01  0.51100000000E-03 0.  1.
         12    1    3    3    0    0  0.19310225142E+01  0.14576155298E+01 -0.13809045070E+01  0.27857473396E+01  0.00000000000E+00 0. -1.
</event>
<event>
 7    1  0.2497395E-009  0.4778728E+02  0.7816164E-02  0.1312668E+00
        -11   -1    0    0    0    0  0.00000000000E+00  0.00000000000E+00  0.45593999997E+02  0.45594000000E+02  0.51100000000E-03 0.  1.
         11   -1    0    0    0    0 -0.00000000000E+00 -0.00000000000E+00 -0.45593999997E+02  0.45594000000E+02  0.51100000000E-03 0. -1.
    9900012    2    1    2    0    0  0.30966916477E+02 -0.47290955488E+01 -0.30038441860E+02  0.47787282838E+02  0.20000053770E+02 0.  0.
        -12    1    1    2    0    0 -0.30966916477E+02  0.47290955488E+01  0.30038441860E+02  0.43400717162E+02  0.00000000000E+00 0.  1.
         11    1    3    3    0    0  0.94871771709E+01 -0.95958274572E+01 -0.12403184623E+02  0.18328268449E+02  0.51100000000E-03 0. -1.
        -11    1    3    3    0    0  0.52057240553E+01 -0.14673763694E+01 -0.13359983649E+01  0.55711442488E+01  0.51100000000E-03 0.  1.
         12    1    3    3    0    0  0.16274015251E+02  0.63341082778E+01 -0.16299258872E+02  0.23887870140E+02  0.00000000000E+00 0. -1.
</event>
<event>
 7    1  0.2497395E-009  0.4778730E+02  0.7816164E-02  0.1312668E+00
        -11   -1    0    0    0    0  0.00000000000E+00  0.00000000000E+00  0.45593999997E+02  0.45594000000E+02  0.51100000000E-03 0.  1.
         11   -1    0    0    0    0 -0.00000000000E+00 -0.00000000000E+00 -0.45593999997E+02  0.45594000000E+02  0.51100000000E-03 0. -1.
    9900012    2    1    2    0    0  0.19149197263E+02  0.17511940203E+02 -0.34788807961E+02  0.47787297645E+02  0.20000121284E+02 0.  0.
        -12    1    1    2    0    0 -0.19149197263E+02 -0.17511940203E+02  0.34788807961E+02  0.43400702355E+02  0.00000000000E+00 0.  1.
         11    1    3    3    0    0  0.15545290737E+02  0.14381609749E+02 -0.24204159766E+02  0.32160971896E+02  0.51100000000E-03 0. -1.
        -11    1    3    3    0    0  0.26132362379E+01  0.65895275215E+01 -0.40438429636E+01  0.81610993602E+01  0.51100000000E-03 0.  1.
         12    1    3    3    0    0  0.99067028887E+00 -0.34591970666E+01 -0.65408052318E+01  0.74652263896E+01  0.00000000000E+00 0. -1.
</event>
<event>
 7    1  0.2497395E-009  0.4778727E+02  0.7816164E-02  0.1312668E+00
        -11   -1    0    0    0    0  0.00000000000E+00  0.00000000000E+00  0.45593999997E+02  0.45594000000E+02  0.51100000000E-03 0.  1.
         11   -1    0    0    0    0 -0.00000000000E+00 -0.00000000000E+00 -0.45593999997E+02  0.45594000000E+02  0.51100000000E-03 0. -1.
    9900012    2    1    2    0    0 -0.20411358386E+02  0.18723058217E+02 -0.33413272592E+02  0.47787271372E+02  0.20000001492E+02 0.  0.
        -12    1    1    2    0    0  0.20411358386E+02 -0.18723058217E+02  0.33413272592E+02  0.43400728628E+02  0.00000000000E+00 0.  1.
         11    1    3    3    0    0 -0.83657450133E+01  0.12408800076E+00 -0.64430786921E+01  0.10560035547E+02  0.51100000000E-03 0. -1.
        -11    1    3    3    0    0 -0.11983591505E+02  0.17905459724E+02 -0.17570251628E+02  0.27801541249E+02  0.51100000000E-03 0.  1.
        -12    1    3    3    0    0 -0.62021868153E-01  0.69351049162E+00 -0.93999422721E+01  0.94256945756E+01  0.00000000000E+00 0.  1.
</event>
<event>
 7    1  0.2497395E-009  0.4778727E+02  0.7816164E-02  0.1312668E+00
        -11   -1    0    0    0    0  0.00000000000E+00  0.00000000000E+00  0.45593999997E+02  0.45594000000E+02  0.51100000000E-03 0.  1.
         11   -1    0    0    0    0 -0.00000000000E+00 -0.00000000000E+00 -0.45593999997E+02  0.45594000000E+02  0.51100000000E-03 0. -1.
    9900012    2    1    2    0    0  0.95660058284E+01 -0.32115018002E+02 -0.27581521863E+02  0.47787271929E+02  0.20000004034E+02 0.  0.
        -12    1    1    2    0    0 -0.95660058284E+01  0.32115018002E+02  0.27581521863E+02  0.43400728071E+02  0.00000000000E+00 0.  1.
         11    1    3    3    0    0  0.10502968386E+02 -0.10297797986E+02 -0.11099125397E+02  0.18426816684E+02  0.51100000000E-03 0.  1.
        -11    1    3    3    0    0  0.39720902533E+00 -0.15304281222E+02 -0.50233478053E+01  0.16112505149E+02  0.51100000000E-03 0. -1.
         12    1    3    3    0    0 -0.13341715825E+01 -0.65129387944E+01 -0.11459048660E+02  0.13247950096E+02  0.00000000000E+00 0. -1.
</event>
<event>
 7    1  0.2497395E-009  0.4778728E+02  0.7816164E-02  0.1312668E+00
        -11   -1    0    0    0    0  0.00000000000E+00  0.00000000000E+00  0.45593999997E+02  0.45594000000E+02  0.51100000000E-03 0.  1.
         11   -1    0    0    0    0 -0.00000000000E+00 -0.00000000000E+00 -0.45593999997E+02  0.45594000000E+02  0.51100000000E-03 0. -1.
    9900012    2    1    2    0    0  0.38443814323E+02 -0.10182926557E+02 -0.17378256418E+02  0.47787278242E+02  0.20000032819E+02 0.  0.
        -12    1    1    2    0    0 -0.38443814323E+02  0.10182926557E+02  0.17378256418E+02  0.43400721758E+02  0.00000000000E+00 0.  1.
         11    1    3    3    0    0  0.18503897941E+02 -0.61743091901E-01 -0.29164369831E+01  0.18732422591E+02  0.51100000000E-03 0. -1.
        -11    1    3    3    0    0  0.49448519815E+01 -0.86061971865E+01 -0.39649194347E+01  0.10688254185E+02  0.51100000000E-03 0.  1.
        -12    1    3    3    0    0  0.14995064401E+02 -0.15149862782E+01 -0.10496900001E+02  0.18366601466E+02  0.00000000000E+00 0.  1.
</event>
<event>
 7    1  0.2497395E-009  0.4778727E+02  0.7816164E-02  0.1312668E+00
        -11   -1    0    0    0    0  0.00000000000E+00  0.00000000000E+00  0.45593999997E+02  0.45594000000E+02  0.51100000000E-03 0. -1.
         11   -1    0    0    0    0 -0.00000000000E+00 -0.00000000000E+00 -0.45593999997E+02  0.45594000000E+02  0.51100000000E-03 0.  1.
    9900012    2    1    2    0    0 -0.28612524978E+02 -0.23545590486E+02  0.22595392064E+02  0.47787272362E+02  0.20000006007E+02 0.  0.
        -12    1    1    2    0    0  0.28612524978E+02  0.23545590486E+02 -0.22595392064E+02  0.43400727638E+02  0.00000000000E+00 0.  1.
         11    1    3    3    0    0 -0.26485998605E+02 -0.12880138370E+02  0.15073790339E+02  0.33085121157E+02  0.51100000000E-03 0. -1.
        -11    1    3    3    0    0  0.27606233572E+00 -0.54322827582E+01  0.70782227533E+01  0.89267655949E+01  0.51100000000E-03 0.  1.
         12    1    3    3    0    0 -0.24025887089E+01 -0.52331693576E+01  0.44337897155E+00  0.57753856098E+01  0.00000000000E+00 0. -1.
</event>
<event>
 7    1  0.2497395E-009  0.4778727E+02  0.7816164E-02  0.1312668E+00
        -11   -1    0    0    0    0  0.00000000000E+00  0.00000000000E+00  0.45593999997E+02  0.45594000000E+02  0.51100000000E-03 0.  1.
         11   -1    0    0    0    0 -0.00000000000E+00 -0.00000000000E+00 -0.45593999997E+02  0.45594000000E+02  0.51100000000E-03 0. -1.
    9900012    2    1    2    0    0 -0.10131512360E+02  0.40770768620E+02 -0.10895881405E+02  0.47787270189E+02  0.19999996101E+02 0.  0.
        -12    1    1    2    0    0  0.10131512360E+02 -0.40770768620E+02  0.10895881405E+02  0.43400729811E+02  0.00000000000E+00 0.  1.
         11    1    3    3    0    0 -0.38362355122E+01  0.60841222546E+01 -0.83867249939E+01  0.11048547547E+02  0.51100000000E-03 0.  1.
        -11    1    3    3    0    0 -0.38497800493E+01  0.32609842783E+02 -0.42138970908E+01  0.33105582335E+02  0.51100000000E-03 0. -1.
         12    1    3    3    0    0 -0.24454967983E+01  0.20768035819E+01  0.17047406800E+01  0.36331403076E+01  0.00000000000E+00 0. -1.
</event>
<event>
 7    1  0.2497395E-009  0.4778727E+02  0.7816164E-02  0.1312668E+00
        -11   -1    0    0    0    0  0.00000000000E+00  0.00000000000E+00  0.45593999997E+02  0.45594000000E+02  0.51100000000E-03 0. -1.
         11   -1    0    0    0    0 -0.00000000000E+00 -0.00000000000E+00 -0.45593999997E+02  0.45594000000E+02  0.51100000000E-03 0.  1.
    9900012    2    1    2    0    0  0.32053987980E+02  0.55135631459E+00 -0.29255109023E+02  0.47787267942E+02  0.19999985856E+02 0.  0.
        -12    1    1    2    0    0 -0.32053987980E+02 -0.55135631459E+00  0.29255109023E+02  0.43400732058E+02  0.00000000000E+00 0.  1.
         11    1    3    3    0    0  0.12823924223E+02 -0.48846711806E+01 -0.38361180811E+01  0.14248819152E+02  0.51100000000E-03 0. -1.
        -11    1    3    3    0    0  0.98956382367E+01  0.71839280417E+01 -0.12312899687E+02  0.17353385179E+02  0.51100000000E-03 0.  1.
        -12    1    3    3    0    0  0.93344255195E+01 -0.17479005465E+01 -0.13106091256E+02  0.16185063611E+02  0.00000000000E+00 0.  1.
</event>
<event>
 7    1  0.2497395E-009  0.4778727E+02  0.7816164E-02  0.1312668E+00
        -11   -1    0    0    0    0  0.00000000000E+00  0.00000000000E+00  0.45593999997E+02  0.45594000000E+02  0.51100000000E-03 0.  1.
         11   -1    0    0    0    0 -0.00000000000E+00 -0.00000000000E+00 -0.45593999997E+02  0.45594000000E+02  0.51100000000E-03 0. -1.
    9900012    2    1    2    0    0 -0.26032942510E+02  0.91444163486E+00 -0.34714165851E+02  0.47787267172E+02  0.19999982346E+02 0.  0.
        -12    1    1    2    0    0  0.26032942510E+02 -0.91444163486E+00  0.34714165851E+02  0.43400732828E+02  0.00000000000E+00 0.  1.
         11    1    3    3    0    0 -0.17538735491E+02  0.79616723259E+00 -0.14132177433E+02  0.22537958296E+02  0.51100000000E-03 0. -1.
        -11    1    3    3    0    0  0.25080213864E+01 -0.21589918816E+01 -0.58593113256E+01  0.67292604862E+01  0.51100000000E-03 0.  1.
        -12    1    3    3    0    0 -0.11002228405E+02  0.22772662839E+01 -0.14722677092E+02  0.18520048390E+02  0.00000000000E+00 0.  1.
</event>
<event>
 7    1  0.2497395E-009  0.4778727E+02  0.7816164E-02  0.1312668E+00
        -11   -1    0    0    0    0  0.00000000000E+00  0.00000000000E+00  0.45593999997E+02  0.45594000000E+02  0.51100000000E-03 0.  1.
         11   -1    0    0    0    0 -0.00000000000E+00 -0.00000000000E+00 -0.45593999997E+02  0.45594000000E+02  0.51100000000E-03 0. -1.
    9900012    2    1    2    0    0 -0.30952673263E+02 -0.12707968173E+02 -0.27641692100E+02  0.47787267525E+02  0.19999983955E+02 0.  0.
        -12    1    1    2    0    0  0.30952673263E+02  0.12707968173E+02  0.27641692100E+02  0.43400732475E+02  0.00000000000E+00 0.  1.
         11    1    3    3    0    0 -0.22285665291E+02 -0.83632214890E+01 -0.98440955072E+01  0.25758504766E+02  0.51100000000E-03 0. -1.
        -11    1    3    3    0    0 -0.42944953320E+01 -0.53715704069E+01 -0.51049568991E+01  0.85648726783E+01  0.51100000000E-03 0.  1.
         12    1    3    3    0    0 -0.43725126394E+01  0.10268237226E+01 -0.12692639694E+02  0.13463890082E+02  0.00000000000E+00 0. -1.
</event>
<event>
 7    1  0.2497395E-009  0.4778727E+02  0.7816164E-02  0.1312668E+00
        -11   -1    0    0    0    0  0.00000000000E+00  0.00000000000E+00  0.45593999997E+02  0.45594000000E+02  0.51100000000E-03 0.  1.
         11   -1    0    0    0    0 -0.00000000000E+00 -0.00000000000E+00 -0.45593999997E+02  0.45594000000E+02  0.51100000000E-03 0. -1.
    9900012    2    1    2    0    0 -0.31835845832E+02 -0.16101167302E+02  0.24715473057E+02  0.47787271011E+02  0.19999999849E+02 0.  0.
        -12    1    1    2    0    0  0.31835845832E+02  0.16101167302E+02 -0.24715473057E+02  0.43400728989E+02  0.00000000000E+00 0.  1.
         11    1    3    3    0    0 -0.41817866293E+01 -0.19557663053E+01  0.75213031027E+00  0.46773990122E+01  0.51100000000E-03 0. -1.
        -11    1    3    3    0    0 -0.93076120839E+01 -0.14782941010E+02  0.12179638918E+02  0.21295788129E+02  0.51100000000E-03 0.  1.
        -12    1    3    3    0    0 -0.18346447119E+02  0.63754001392E+00  0.11783703829E+02  0.21814083870E+02  0.00000000000E+00 0.  1.
</event>
<event>
 7    1  0.2497395E-009  0.4778727E+02  0.7816164E-02  0.1312668E+00
        -11   -1    0    0    0    0  0.00000000000E+00  0.00000000000E+00  0.45593999997E+02  0.45594000000E+02  0.51100000000E-03 0.  1.
         11   -1    0    0    0    0 -0.00000000000E+00 -0.00000000000E+00 -0.45593999997E+02  0.45594000000E+02  0.51100000000E-03 0. -1.
    9900012    2    1    2    0    0  0.36144219551E+02  0.17707273012E+02 -0.16237953196E+02  0.47787271338E+02  0.20000001337E+02 0.  0.
        -12    1    1    2    0    0 -0.36144219551E+02 -0.17707273012E+02  0.16237953196E+02  0.43400728662E+02  0.00000000000E+00 0.  1.
         11    1    3    3    0    0  0.11179458079E+02  0.63504228744E+01 -0.11637424994E+01  0.12909781194E+02  0.51100000000E-03 0. -1.
        -11    1    3    3    0    0  0.26927916385E+02  0.90834376377E+01 -0.14064917284E+02  0.31708727799E+02  0.51100000000E-03 0.  1.
        -12    1    3    3    0    0 -0.19631549128E+01  0.22734124995E+01 -0.10092934128E+01  0.31687623448E+01  0.00000000000E+00 0.  1.
</event>
<event>
 7    1  0.2497395E-009  0.4778727E+02  0.7816164E-02  0.1312668E+00
        -11   -1    0    0    0    0  0.00000000000E+00  0.00000000000E+00  0.45593999997E+02  0.45594000000E+02  0.51100000000E-03 0.  1.
         11   -1    0    0    0    0 -0.00000000000E+00 -0.00000000000E+00 -0.45593999997E+02  0.45594000000E+02  0.51100000000E-03 0. -1.
    9900012    2    1    2    0    0 -0.96535179716E+01  0.23166901259E+02 -0.35408014297E+02  0.47787271899E+02  0.20000003897E+02 0.  0.
        -12    1    1    2    0    0  0.96535179716E+01 -0.23166901259E+02  0.35408014297E+02  0.43400728101E+02  0.00000000000E+00 0.  1.
         11    1    3    3    0    0 -0.66395061896E+01  0.19394104170E+02 -0.19186167471E+02  0.28077096386E+02  0.51100000000E-03 0. -1.
        -11    1    3    3    0    0 -0.26135609199E+01 -0.32110235616E+01 -0.50671547690E+01  0.65435029388E+01  0.51100000000E-03 0.  1.
         12    1    3    3    0    0 -0.40045086202E+00  0.69838206513E+01 -0.11154692058E+02  0.13166672574E+02  0.00000000000E+00 0. -1.
</event>
<event>
 7    1  0.2497395E-009  0.4778727E+02  0.7816164E-02  0.1312668E+00
        -11   -1    0    0    0    0  0.00000000000E+00  0.00000000000E+00  0.45593999997E+02  0.45594000000E+02  0.51100000000E-03 0.  1.
         11   -1    0    0    0    0 -0.00000000000E+00 -0.00000000000E+00 -0.45593999997E+02  0.45594000000E+02  0.51100000000E-03 0. -1.
    9900012    2    1    2    0    0 -0.34752834678E+02  0.25439137168E+02 -0.53585567282E+01  0.47787270188E+02  0.19999996095E+02 0.  0.
        -12    1    1    2    0    0  0.34752834678E+02 -0.25439137168E+02  0.53585567282E+01  0.43400729812E+02  0.00000000000E+00 0.  1.
         11    1    3    3    0    0 -0.22859568703E+02  0.25311728835E+02 -0.55182191218E+00  0.34110819479E+02  0.51100000000E-03 0. -1.
        -11    1    3    3    0    0 -0.11267088827E+02  0.19703514252E+00 -0.28540159095E+01  0.11624608405E+02  0.51100000000E-03 0.  1.
        -12    1    3    3    0    0 -0.62617714752E+00 -0.69626808665E-01 -0.19527189066E+01  0.20518423040E+01  0.00000000000E+00 0.  1.
</event>
<event>
 7    1  0.2497395E-009  0.4778727E+02  0.7816164E-02  0.1312668E+00
        -11   -1    0    0    0    0  0.00000000000E+00  0.00000000000E+00  0.45593999997E+02  0.45594000000E+02  0.51100000000E-03 0.  1.
         11   -1    0    0    0    0 -0.00000000000E+00 -0.00000000000E+00 -0.45593999997E+02  0.45594000000E+02  0.51100000000E-03 0. -1.
    9900012    2    1    2    0    0  0.77674839459E+01 -0.34447354196E+02 -0.25232304600E+02  0.47787271741E+02  0.20000003178E+02 0.  0.
        -12    1    1    2    0    0 -0.77674839459E+01  0.34447354196E+02  0.25232304600E+02  0.43400728259E+02  0.00000000000E+00 0.  1.
         11    1    3    3    0    0  0.39578507625E-01 -0.18358621303E+02 -0.10671854107E+02  0.21235089191E+02  0.51100000000E-03 0. -1.
        -11    1    3    3    0    0 -0.28591242711E+01 -0.72485453746E+01 -0.23698879673E+01  0.81444687294E+01  0.51100000000E-03 0.  1.
         12    1    3    3    0    0  0.10587029709E+02 -0.88401875183E+01 -0.12190562526E+02  0.18407713821E+02  0.00000000000E+00 0. -1.
</event>
<event>
 7    1  0.2497395E-009  0.4778727E+02  0.7816164E-02  0.1312668E+00
        -11   -1    0    0    0    0  0.00000000000E+00  0.00000000000E+00  0.45593999997E+02  0.45594000000E+02  0.51100000000E-03 0.  1.
         11   -1    0    0    0    0 -0.00000000000E+00 -0.00000000000E+00 -0.45593999997E+02  0.45594000000E+02  0.51100000000E-03 0. -1.
    9900012    2    1    2    0    0 -0.31284585715E+02 -0.91050165773E+01 -0.28670479990E+02  0.47787273588E+02  0.20000011597E+02 0.  0.
        -12    1    1    2    0    0  0.31284585715E+02  0.91050165773E+01  0.28670479990E+02  0.43400726412E+02  0.00000000000E+00 0.  1.
         11    1    3    3    0    0 -0.22201907040E+01 -0.38937470439E+01  0.13714070249E+01  0.46873521623E+01  0.51100000000E-03 0.  1.
        -11    1    3    3    0    0 -0.23819442212E+02 -0.39018743214E+01 -0.28755780484E+02  0.37543113377E+02  0.51100000000E-03 0. -1.
        -12    1    3    3    0    0 -0.52449527988E+01 -0.13093952119E+01 -0.12861065307E+01  0.55568080488E+01  0.00000000000E+00 0.  1.
</event>
<event>
 7    1  0.2497395E-009  0.4778727E+02  0.7816164E-02  0.1312668E+00
        -11   -1    0    0    0    0  0.00000000000E+00  0.00000000000E+00  0.45593999997E+02  0.45594000000E+02  0.51100000000E-03 0.  1.
         11   -1    0    0    0    0 -0.00000000000E+00 -0.00000000000E+00 -0.45593999997E+02  0.45594000000E+02  0.51100000000E-03 0. -1.
    9900012    2    1    2    0    0  0.23473699030E+02 -0.27381620128E+02 -0.24142404796E+02  0.47787269864E+02  0.19999994619E+02 0.  0.
        -12    1    1    2    0    0 -0.23473699030E+02  0.27381620128E+02  0.24142404796E+02  0.43400730136E+02  0.00000000000E+00 0.  1.
         11    1    3    3    0    0  0.54981388328E+01 -0.17182618056E+01  0.64664297701E+00  0.57965594673E+01  0.51100000000E-03 0.  1.
        -11    1    3    3    0    0  0.79353864015E+01 -0.20290647895E+02 -0.12024907769E+02  0.24885320100E+02  0.51100000000E-03 0. -1.
        -12    1    3    3    0    0  0.10040173795E+02 -0.53727104270E+01 -0.12764140004E+02  0.17105390297E+02  0.00000000000E+00 0.  1.
</event>
<event>
 7    1  0.2497395E-009  0.4778727E+02  0.7816164E-02  0.1312668E+00
        -11   -1    0    0    0    0  0.00000000000E+00  0.00000000000E+00  0.45593999997E+02  0.45594000000E+02  0.51100000000E-03 0. -1.
         11   -1    0    0    0    0 -0.00000000000E+00 -0.00000000000E+00 -0.45593999997E+02  0.45594000000E+02  0.51100000000E-03 0.  1.
    9900012    2    1    2    0    0 -0.19292077776E+02  0.38336898849E+02  0.64591754965E+01  0.47787273896E+02  0.20000013000E+02 0.  0.
        -12    1    1    2    0    0  0.19292077776E+02 -0.38336898849E+02 -0.64591754965E+01  0.43400726104E+02  0.00000000000E+00 0.  1.
         11    1    3    3    0    0 -0.42618977741E+01  0.38066979566E+01  0.72746320717E+01  0.92506753272E+01  0.51100000000E-03 0.  1.
        -11    1    3    3    0    0 -0.40576637145E+00  0.43876702767E+01 -0.23590449924E+01  0.49981386878E+01  0.51100000000E-03 0. -1.
         12    1    3    3    0    0 -0.14624413630E+02  0.30142530616E+02  0.15435884171E+01  0.33538459881E+02  0.00000000000E+00 0. -1.
</event>
<event>
 7    1  0.2497395E-009  0.4778727E+02  0.7816164E-02  0.1312668E+00
        -11   -1    0    0    0    0  0.00000000000E+00  0.00000000000E+00  0.45593999997E+02  0.45594000000E+02  0.51100000000E-03 0.  1.
         11   -1    0    0    0    0 -0.00000000000E+00 -0.00000000000E+00 -0.45593999997E+02  0.45594000000E+02  0.51100000000E-03 0. -1.
    9900012    2    1    2    0    0  0.23895454079E+02  0.19368569105E+02 -0.30618448779E+02  0.47787267282E+02  0.19999982845E+02 0.  0.
        -12    1    1    2    0    0 -0.23895454079E+02 -0.19368569105E+02  0.30618448779E+02  0.43400732718E+02  0.00000000000E+00 0.  1.
         11    1    3    3    0    0  0.15037142843E+02  0.63689020011E+01 -0.12165758026E+02  0.20363797441E+02  0.51100000000E-03 0. -1.
        -11    1    3    3    0    0  0.11005582377E+02  0.11440380464E+02 -0.18953129644E+02  0.24722990762E+02  0.51100000000E-03 0.  1.
        -12    1    3    3    0    0 -0.21472711408E+01  0.15592866396E+01  0.50043889135E+00  0.27004790798E+01  0.00000000000E+00 0.  1.
</event>
<event>
 7    1  0.2497395E-009  0.4778727E+02  0.7816164E-02  0.1312668E+00
        -11   -1    0    0    0    0  0.00000000000E+00  0.00000000000E+00  0.45593999997E+02  0.45594000000E+02  0.51100000000E-03 0.  1.
         11   -1    0    0    0    0 -0.00000000000E+00 -0.00000000000E+00 -0.45593999997E+02  0.45594000000E+02  0.51100000000E-03 0. -1.
    9900012    2    1    2    0    0 -0.11025390108E+02  0.97814073701E+01 -0.40821418802E+02  0.47787269705E+02  0.19999993892E+02 0.  0.
        -12    1    1    2    0    0  0.11025390108E+02 -0.97814073701E+01  0.40821418802E+02  0.43400730295E+02  0.00000000000E+00 0.  1.
         11    1    3    3    0    0 -0.12150191827E+02  0.64052235718E+01 -0.15374216765E+02  0.20616027547E+02  0.51100000000E-03 0. -1.
        -11    1    3    3    0    0  0.13207649623E+01  0.41277617707E+01 -0.25908095642E+02  0.26268084388E+02  0.51100000000E-03 0.  1.
        -12    1    3    3    0    0 -0.19596324406E+00 -0.75157797237E+00  0.46089360561E+00  0.90315776986E+00  0.00000000000E+00 0.  1.
</event>
<event>
 7    1  0.2497395E-009  0.4778727E+02  0.7816164E-02  0.1312668E+00
        -11   -1    0    0    0    0  0.00000000000E+00  0.00000000000E+00  0.45593999997E+02  0.45594000000E+02  0.51100000000E-03 0. -1.
         11   -1    0    0    0    0 -0.00000000000E+00 -0.00000000000E+00 -0.45593999997E+02  0.45594000000E+02  0.51100000000E-03 0.  1.
    9900012    2    1    2    0    0  0.39124394575E+02  0.99072785484E+01 -0.15960917070E+02  0.47787270826E+02  0.19999999005E+02 0.  0.
        -12    1    1    2    0    0 -0.39124394575E+02 -0.99072785484E+01  0.15960917070E+02  0.43400729174E+02  0.00000000000E+00 0.  1.
         11    1    3    3    0    0  0.29455565221E+02  0.22089600619E+00 -0.10002533569E+02  0.31108355720E+02  0.51100000000E-03 0. -1.
        -11    1    3    3    0    0  0.67220209842E+01  0.10499035041E+02 -0.53300398795E+01  0.13558194138E+02  0.51100000000E-03 0.  1.
         12    1    3    3    0    0  0.29468083697E+01 -0.81265249908E+00 -0.62834362116E+00  0.31207209677E+01  0.00000000000E+00 0. -1.
</event>
<event>
 7    1  0.2497395E-009  0.4778727E+02  0.7816164E-02  0.1312668E+00
        -11   -1    0    0    0    0  0.00000000000E+00  0.00000000000E+00  0.45593999997E+02  0.45594000000E+02  0.51100000000E-03 0.  1.
         11   -1    0    0    0    0 -0.00000000000E+00 -0.00000000000E+00 -0.45593999997E+02  0.45594000000E+02  0.51100000000E-03 0. -1.
    9900012    2    1    2    0    0  0.34333646126E+02  0.18113532112E+02  0.19409379655E+02  0.47787270507E+02  0.19999997552E+02 0.  0.
        -12    1    1    2    0    0 -0.34333646126E+02 -0.18113532112E+02 -0.19409379655E+02  0.43400729493E+02  0.00000000000E+00 0.  1.
         11    1    3    3    0    0  0.17591261621E+02  0.90234963258E+01  0.78663728004E+00  0.19786226771E+02  0.51100000000E-03 0. -1.
        -11    1    3    3    0    0  0.78730426196E+01 -0.27925920558E+00  0.86077115777E+01  0.11668568235E+02  0.51100000000E-03 0.  1.
         12    1    3    3    0    0  0.88693418854E+01  0.93692949922E+01  0.10015030797E+02  0.16332475501E+02  0.00000000000E+00 0. -1.
</event>
<event>
 7    1  0.2497395E-009  0.4778727E+02  0.7816164E-02  0.1312668E+00
        -11   -1    0    0    0    0  0.00000000000E+00  0.00000000000E+00  0.45593999997E+02  0.45594000000E+02  0.51100000000E-03 0.  1.
         11   -1    0    0    0    0 -0.00000000000E+00 -0.00000000000E+00 -0.45593999997E+02  0.45594000000E+02  0.51100000000E-03 0. -1.
    9900012    2    1    2    0    0  0.54970084052E+01 -0.33228473725E+02 -0.27372880298E+02  0.47787272548E+02  0.20000006857E+02 0.  0.
        -12    1    1    2    0    0 -0.54970084052E+01  0.33228473725E+02  0.27372880298E+02  0.43400727452E+02  0.00000000000E+00 0.  1.
         11    1    3    3    0    0  0.21091828019E+00 -0.73474750019E+01 -0.28779616005E+01  0.78938291506E+01  0.51100000000E-03 0. -1.
        -11    1    3    3    0    0  0.40136707966E+01 -0.51843176503E+00  0.71592508501E+00  0.41098508181E+01  0.51100000000E-03 0.  1.
        -12    1    3    3    0    0  0.12724193284E+01 -0.25362566958E+02 -0.25210843783E+02  0.35783592580E+02  0.00000000000E+00 0.  1.
</event>
<event>
 7    1  0.2497395E-009  0.4778727E+02  0.7816164E-02  0.1312668E+00
        -11   -1    0    0    0    0  0.00000000000E+00  0.00000000000E+00  0.45593999997E+02  0.45594000000E+02  0.51100000000E-03 0. -1.
         11   -1    0    0    0    0 -0.00000000000E+00 -0.00000000000E+00 -0.45593999997E+02  0.45594000000E+02  0.51100000000E-03 0.  1.
    9900012    2    1    2    0    0 -0.25029931401E+02  0.19790207298E+02  0.29418930179E+02  0.47787271622E+02  0.20000002635E+02 0.  0.
        -12    1    1    2    0    0  0.25029931401E+02 -0.19790207298E+02 -0.29418930179E+02  0.43400728378E+02  0.00000000000E+00 0.  1.
         11    1    3    3    0    0 -0.18706871011E+02  0.93974172800E+01  0.11492560969E+02  0.23881738472E+02  0.51100000000E-03 0. -1.
        -11    1    3    3    0    0  0.26830540997E+01  0.37919793871E+01  0.50259893292E+01  0.68438626500E+01  0.51100000000E-03 0.  1.
         12    1    3    3    0    0 -0.90061144897E+01  0.66008106307E+01  0.12900379881E+02  0.17061670500E+02  0.00000000000E+00 0. -1.
</event>
<event>
 7    1  0.2497395E-009  0.4778727E+02  0.7816164E-02  0.1312668E+00
        -11   -1    0    0    0    0  0.00000000000E+00  0.00000000000E+00  0.45593999997E+02  0.45594000000E+02  0.51100000000E-03 0.  1.
         11   -1    0    0    0    0 -0.00000000000E+00 -0.00000000000E+00 -0.45593999997E+02  0.45594000000E+02  0.51100000000E-03 0. -1.
    9900012    2    1    2    0    0 -0.44232634881E+01  0.39735169792E+02  0.16887100294E+02  0.47787272649E+02  0.20000007314E+02 0.  0.
        -12    1    1    2    0    0  0.44232634881E+01 -0.39735169792E+02 -0.16887100294E+02  0.43400727351E+02  0.00000000000E+00 0.  1.
         11    1    3    3    0    0 -0.38667291314E+01  0.20199920723E+02  0.80858479561E+01  0.22099079818E+02  0.51100000000E-03 0. -1.
        -11    1    3    3    0    0 -0.56802686072E+01  0.11321913289E+02  0.97167377874E+01  0.15964528351E+02  0.51100000000E-03 0.  1.
        -12    1    3    3    0    0  0.51237342504E+01  0.82133357799E+01 -0.91548544900E+00  0.97236644795E+01  0.00000000000E+00 0.  1.
</event>
<event>
 7    1  0.2497395E-009  0.4778727E+02  0.7816164E-02  0.1312668E+00
        -11   -1    0    0    0    0  0.00000000000E+00  0.00000000000E+00  0.45593999997E+02  0.45594000000E+02  0.51100000000E-03 0.  1.
         11   -1    0    0    0    0 -0.00000000000E+00 -0.00000000000E+00 -0.45593999997E+02  0.45594000000E+02  0.51100000000E-03 0. -1.
    9900012    2    1    2    0    0 -0.32977214965E+02 -0.22882231978E+02 -0.16508498847E+02  0.47787265198E+02  0.19999973344E+02 0.  0.
        -12    1    1    2    0    0  0.32977214965E+02  0.22882231978E+02  0.16508498847E+02  0.43400734802E+02  0.00000000000E+00 0.  1.
         11    1    3    3    0    0 -0.33390281120E+02 -0.21406031406E+02 -0.18139209624E+02  0.43613759066E+02  0.51100000000E-03 0. -1.
        -11    1    3    3    0    0 -0.57104491417E+00 -0.20388265225E+01  0.20669111207E+01  0.29588896102E+01  0.51100000000E-03 0.  1.
         12    1    3    3    0    0  0.98411106905E+00  0.56262594989E+00 -0.43620034367E+00  0.12146165220E+01  0.00000000000E+00 0. -1.
</event>
<event>
 7    1  0.2497395E-009  0.4778727E+02  0.7816164E-02  0.1312668E+00
        -11   -1    0    0    0    0  0.00000000000E+00  0.00000000000E+00  0.45593999997E+02  0.45594000000E+02  0.51100000000E-03 0.  1.
         11   -1    0    0    0    0 -0.00000000000E+00 -0.00000000000E+00 -0.45593999997E+02  0.45594000000E+02  0.51100000000E-03 0. -1.
    9900012    2    1    2    0    0  0.11780000513E+02  0.41023453174E+02 -0.78696323763E+01  0.47787271479E+02  0.20000001980E+02 0.  0.
        -12    1    1    2    0    0 -0.11780000513E+02 -0.41023453174E+02  0.78696323763E+01  0.43400728521E+02  0.00000000000E+00 0.  1.
         11    1    3    3    0    0  0.41515525198E+01  0.18007278656E+02 -0.33376052178E+01  0.18778633651E+02  0.51100000000E-03 0. -1.
        -11    1    3    3    0    0  0.46570660177E+00  0.96282147299E+01 -0.89931916341E+01  0.13183205132E+02  0.51100000000E-03 0.  1.
        -12    1    3    3    0    0  0.71627413917E+01  0.13387959788E+02  0.44611644757E+01  0.15825432696E+02  0.00000000000E+00 0.  1.
</event>
<event>
 7    1  0.2497395E-009  0.4778726E+02  0.7816164E-02  0.1312668E+00
        -11   -1    0    0    0    0  0.00000000000E+00  0.00000000000E+00  0.45593999997E+02  0.45594000000E+02  0.51100000000E-03 0.  1.
         11   -1    0    0    0    0 -0.00000000000E+00 -0.00000000000E+00 -0.45593999997E+02  0.45594000000E+02  0.51100000000E-03 0. -1.
    9900012    2    1    2    0    0 -0.40281669775E+02  0.11829270825E+02 -0.11003623995E+02  0.47787259117E+02  0.19999945619E+02 0.  0.
        -12    1    1    2    0    0  0.40281669775E+02 -0.11829270825E+02  0.11003623995E+02  0.43400740883E+02  0.00000000000E+00 0.  1.
         11    1    3    3    0    0 -0.30672137720E+02  0.89998908263E+01 -0.13728716887E+02  0.34788729997E+02  0.51100000000E-03 0. -1.
        -11    1    3    3    0    0 -0.10591767710E+02  0.10261406630E+01  0.25141190477E+01  0.10934317662E+02  0.51100000000E-03 0.  1.
         12    1    3    3    0    0  0.98223565418E+00  0.18032393356E+01  0.21097384471E+00  0.20642114584E+01  0.00000000000E+00 0. -1.
</event>
<event>
 7    1  0.2497395E-009  0.4778727E+02  0.7816164E-02  0.1312668E+00
        -11   -1    0    0    0    0  0.00000000000E+00  0.00000000000E+00  0.45593999997E+02  0.45594000000E+02  0.51100000000E-03 0.  1.
         11   -1    0    0    0    0 -0.00000000000E+00 -0.00000000000E+00 -0.45593999997E+02  0.45594000000E+02  0.51100000000E-03 0. -1.
    9900012    2    1    2    0    0 -0.32965537521E+02  0.12858499569E+02 -0.25130769816E+02  0.47787271126E+02  0.20000000373E+02 0.  0.
        -12    1    1    2    0    0  0.32965537521E+02 -0.12858499569E+02  0.25130769816E+02  0.43400728874E+02  0.00000000000E+00 0.  1.
         11    1    3    3    0    0 -0.14307084677E+02 -0.11653404548E+01 -0.82443555397E+01  0.16553552153E+02  0.51100000000E-03 0. -1.
        -11    1    3    3    0    0 -0.37688797366E+01  0.89291826404E+01 -0.27371209599E+01  0.10071076829E+02  0.51100000000E-03 0.  1.
        -12    1    3    3    0    0 -0.14889573107E+02  0.50946573838E+01 -0.14149293317E+02  0.21162642144E+02  0.00000000000E+00 0.  1.
</event>
<event>
 7    1  0.2497395E-009  0.4778730E+02  0.7816164E-02  0.1312668E+00
        -11   -1    0    0    0    0  0.00000000000E+00  0.00000000000E+00  0.45593999997E+02  0.45594000000E+02  0.51100000000E-03 0.  1.
         11   -1    0    0    0    0 -0.00000000000E+00 -0.00000000000E+00 -0.45593999997E+02  0.45594000000E+02  0.51100000000E-03 0. -1.
    9900012    2    1    2    0    0  0.10726338364E+02  0.67884612778E+01 -0.41502813974E+02  0.47787295985E+02  0.20000113714E+02 0.  0.
        -12    1    1    2    0    0 -0.10726338364E+02 -0.67884612778E+01  0.41502813974E+02  0.43400704015E+02  0.00000000000E+00 0.  1.
         11    1    3    3    0    0  0.10937133926E+02  0.42739817258E+01 -0.22646272221E+02  0.25509634730E+02  0.51100000000E-03 0. -1.
        -11    1    3    3    0    0 -0.78248235315E+00 -0.39937156052E+01 -0.12564720128E+02  0.13207355342E+02  0.51100000000E-03 0.  1.
        -12    1    3    3    0    0  0.57168679083E+00  0.65081951572E+01 -0.62918216256E+01  0.90703059132E+01  0.00000000000E+00 0.  1.
</event>
<event>
 7    1  0.2497395E-009  0.4778727E+02  0.7816164E-02  0.1312668E+00
        -11   -1    0    0    0    0  0.00000000000E+00  0.00000000000E+00  0.45593999997E+02  0.45594000000E+02  0.51100000000E-03 0.  1.
         11   -1    0    0    0    0 -0.00000000000E+00 -0.00000000000E+00 -0.45593999997E+02  0.45594000000E+02  0.51100000000E-03 0. -1.
    9900012    2    1    2    0    0 -0.29413317688E+02 -0.15166849198E+02 -0.28079293985E+02  0.47787270482E+02  0.19999997434E+02 0.  0.
        -12    1    1    2    0    0  0.29413317688E+02  0.15166849198E+02  0.28079293985E+02  0.43400729518E+02  0.00000000000E+00 0.  1.
         11    1    3    3    0    0 -0.18595162842E+02 -0.12916029600E+02 -0.20465332559E+02  0.30519399383E+02  0.51100000000E-03 0. -1.
        -11    1    3    3    0    0  0.19170229912E+01  0.12474766637E+01 -0.97767574509E+00  0.24873731725E+01  0.51100000000E-03 0.  1.
         12    1    3    3    0    0 -0.12735177837E+02 -0.34982962623E+01 -0.66362856815E+01  0.14780497926E+02  0.00000000000E+00 0. -1.
</event>
<event>
 7    1  0.2497395E-009  0.4778732E+02  0.7816164E-02  0.1312668E+00
        -11   -1    0    0    0    0  0.00000000000E+00  0.00000000000E+00  0.45593999997E+02  0.45594000000E+02  0.51100000000E-03 0.  1.
         11   -1    0    0    0    0 -0.00000000000E+00 -0.00000000000E+00 -0.45593999997E+02  0.45594000000E+02  0.51100000000E-03 0. -1.
    9900012    2    1    2    0    0  0.41856960666E+02 -0.95746810374E+01  0.63197883734E+01  0.47787315694E+02  0.20000203574E+02 0.  0.
        -12    1    1    2    0    0 -0.41856960666E+02  0.95746810374E+01 -0.63197883734E+01  0.43400684306E+02  0.00000000000E+00 0.  1.
         11    1    3    3    0    0  0.17587334196E+02 -0.10130315667E+02 -0.19424550610E+01  0.20388986035E+02  0.51100000000E-03 0. -1.
        -11    1    3    3    0    0  0.13643963510E+02  0.20687238896E+01  0.92605924824E+01  0.16619143546E+02  0.51100000000E-03 0.  1.
        -12    1    3    3    0    0  0.10625662959E+02 -0.15130892604E+01 -0.99834904801E+00  0.10779186113E+02  0.00000000000E+00 0.  1.
</event>
<event>
 7    1  0.2497395E-009  0.4778730E+02  0.7816164E-02  0.1312668E+00
        -11   -1    0    0    0    0  0.00000000000E+00  0.00000000000E+00  0.45593999997E+02  0.45594000000E+02  0.51100000000E-03 0. -1.
         11   -1    0    0    0    0 -0.00000000000E+00 -0.00000000000E+00 -0.45593999997E+02  0.45594000000E+02  0.51100000000E-03 0.  1.
    9900012    2    1    2    0    0 -0.79410404081E+01  0.23320188294E+02  0.35731355591E+02  0.47787296351E+02  0.20000115383E+02 0.  0.
        -12    1    1    2    0    0  0.79410404081E+01 -0.23320188294E+02 -0.35731355591E+02  0.43400703649E+02  0.00000000000E+00 0.  1.
         11    1    3    3    0    0 -0.27636315607E+01  0.89087556863E+01  0.72442332401E+01  0.11810271071E+02  0.51100000000E-03 0. -1.
        -11    1    3    3    0    0 -0.36586866185E+01  0.15472243203E+02  0.29752164945E+02  0.33733775607E+02  0.51100000000E-03 0.  1.
        -12    1    3    3    0    0 -0.15187222288E+01 -0.10608105957E+01 -0.12650425941E+01  0.22432496725E+01  0.00000000000E+00 0.  1.
</event>
<event>
 7    1  0.2497395E-009  0.4778727E+02  0.7816164E-02  0.1312668E+00
        -11   -1    0    0    0    0  0.00000000000E+00  0.00000000000E+00  0.45593999997E+02  0.45594000000E+02  0.51100000000E-03 0.  1.
         11   -1    0    0    0    0 -0.00000000000E+00 -0.00000000000E+00 -0.45593999997E+02  0.45594000000E+02  0.51100000000E-03 0. -1.
    9900012    2    1    2    0    0 -0.10452011954E+02  0.31109093231E+02 -0.28400758108E+02  0.47787270782E+02  0.19999998804E+02 0.  0.
        -12    1    1    2    0    0  0.10452011954E+02 -0.31109093231E+02  0.28400758108E+02  0.43400729218E+02  0.00000000000E+00 0.  1.
         11    1    3    3    0    0 -0.53496477896E+01  0.54722053469E+01 -0.17354544564E+02  0.18966918044E+02  0.51100000000E-03 0. -1.
        -11    1    3    3    0    0 -0.52373998915E+01  0.16617507472E+02 -0.56865690814E+01  0.18327819848E+02  0.51100000000E-03 0.  1.
         12    1    3    3    0    0  0.13503572740E+00  0.90193804126E+01 -0.53596444629E+01  0.10492532890E+02  0.00000000000E+00 0. -1.
</event>
<event>
 7    1  0.2497395E-009  0.4778727E+02  0.7816164E-02  0.1312668E+00
        -11   -1    0    0    0    0  0.00000000000E+00  0.00000000000E+00  0.45593999997E+02  0.45594000000E+02  0.51100000000E-03 0.  1.
         11   -1    0    0    0    0 -0.00000000000E+00 -0.00000000000E+00 -0.45593999997E+02  0.45594000000E+02  0.51100000000E-03 0. -1.
    9900012    2    1    2    0    0  0.15821145997E+02 -0.21855609900E+02 -0.33994810667E+02  0.47787268473E+02  0.19999988278E+02 0.  0.
        -12    1    1    2    0    0 -0.15821145997E+02  0.21855609900E+02  0.33994810667E+02  0.43400731527E+02  0.00000000000E+00 0.  1.
         11    1    3    3    0    0  0.43278438584E+01  0.32888062480E+01 -0.67901897659E+01  0.86978822893E+01  0.51100000000E-03 0. -1.
        -11    1    3    3    0    0  0.87127001059E+00 -0.40310789275E+01 -0.21680591385E+01  0.46593121209E+01  0.51100000000E-03 0.  1.
         12    1    3    3    0    0  0.10622032128E+02 -0.21113337220E+02 -0.25036561763E+02  0.34430074063E+02  0.00000000000E+00 0. -1.
</event>
<event>
 7    1  0.2497395E-009  0.4778727E+02  0.7816164E-02  0.1312668E+00
        -11   -1    0    0    0    0  0.00000000000E+00  0.00000000000E+00  0.45593999997E+02  0.45594000000E+02  0.51100000000E-03 0.  1.
         11   -1    0    0    0    0 -0.00000000000E+00 -0.00000000000E+00 -0.45593999997E+02  0.45594000000E+02  0.51100000000E-03 0. -1.
    9900012    2    1    2    0    0 -0.31284825182E+02 -0.29096137006E+02  0.76352991841E+01  0.47787271101E+02  0.20000000259E+02 0.  0.
        -12    1    1    2    0    0  0.31284825182E+02  0.29096137006E+02 -0.76352991841E+01  0.43400728899E+02  0.00000000000E+00 0.  1.
         11    1    3    3    0    0 -0.15170542722E+02 -0.75504511435E+01 -0.90335164166E+00  0.16969700157E+02  0.51100000000E-03 0. -1.
        -11    1    3    3    0    0 -0.11707056992E+02 -0.19599818985E+02  0.11073396517E+02  0.25373769888E+02  0.51100000000E-03 0.  1.
        -12    1    3    3    0    0 -0.44072254671E+01 -0.19458668772E+01 -0.25347456910E+01  0.54438010563E+01  0.00000000000E+00 0.  1.
</event>
<event>
 7    1  0.2497395E-009  0.4778728E+02  0.7816164E-02  0.1312668E+00
        -11   -1    0    0    0    0  0.00000000000E+00  0.00000000000E+00  0.45593999997E+02  0.45594000000E+02  0.51100000000E-03 0.  1.
         11   -1    0    0    0    0 -0.00000000000E+00 -0.00000000000E+00 -0.45593999997E+02  0.45594000000E+02  0.51100000000E-03 0. -1.
    9900012    2    1    2    0    0  0.38269446861E+02  0.13230214019E+02 -0.15621581173E+02  0.47787275071E+02  0.20000018359E+02 0.  0.
        -12    1    1    2    0    0 -0.38269446861E+02 -0.13230214019E+02  0.15621581173E+02  0.43400724929E+02  0.00000000000E+00 0.  1.
         11    1    3    3    0    0  0.82677373582E+01  0.76673541115E+01 -0.33936792695E+01  0.11775434571E+02  0.51100000000E-03 0. -1.
        -11    1    3    3    0    0  0.25800043859E+02  0.56593107053E+00 -0.50258465219E+01  0.26291094968E+02  0.51100000000E-03 0.  1.
        -12    1    3    3    0    0  0.42016656440E+01  0.49969288365E+01 -0.72020553818E+01  0.97207455323E+01  0.00000000000E+00 0.  1.
</event>
<event>
 7    1  0.2497395E-009  0.4778727E+02  0.7816164E-02  0.1312668E+00
        -11   -1    0    0    0    0  0.00000000000E+00  0.00000000000E+00  0.45593999997E+02  0.45594000000E+02  0.51100000000E-03 0.  1.
         11   -1    0    0    0    0 -0.00000000000E+00 -0.00000000000E+00 -0.45593999997E+02  0.45594000000E+02  0.51100000000E-03 0. -1.
    9900012    2    1    2    0    0  0.29458031447E+00  0.31207382546E+02 -0.30160169946E+02  0.47787270120E+02  0.19999995784E+02 0.  0.
        -12    1    1    2    0    0 -0.29458031447E+00 -0.31207382546E+02  0.30160169946E+02  0.43400729880E+02  0.00000000000E+00 0.  1.
         11    1    3    3    0    0  0.57835345192E+00  0.26353389928E+02 -0.23828681727E+02  0.35533670322E+02  0.51100000000E-03 0. -1.
        -11    1    3    3    0    0 -0.46178191140E+01  0.26421811591E+01 -0.18336732466E+01  0.56274090382E+01  0.51100000000E-03 0.  1.
        -12    1    3    3    0    0  0.43340459765E+01  0.22118114588E+01 -0.44978149726E+01  0.66261907597E+01  0.00000000000E+00 0.  1.
</event>
<event>
 7    1  0.2497395E-009  0.4778727E+02  0.7816164E-02  0.1312668E+00
        -11   -1    0    0    0    0  0.00000000000E+00  0.00000000000E+00  0.45593999997E+02  0.45594000000E+02  0.51100000000E-03 0.  1.
         11   -1    0    0    0    0 -0.00000000000E+00 -0.00000000000E+00 -0.45593999997E+02  0.45594000000E+02  0.51100000000E-03 0. -1.
    9900012    2    1    2    0    0  0.40023348827E+02  0.94894634535E+01 -0.13845763459E+02  0.47787268051E+02  0.19999986352E+02 0.  0.
        -12    1    1    2    0    0 -0.40023348827E+02 -0.94894634535E+01  0.13845763459E+02  0.43400731949E+02  0.00000000000E+00 0.  1.
         11    1    3    3    0    0  0.24086419332E+02  0.12021210936E+02 -0.68753356198E+01  0.27783724530E+02  0.51100000000E-03 0. -1.
        -11    1    3    3    0    0  0.36328963845E+01  0.26779389046E+01  0.74516308867E+00  0.45743372424E+01  0.51100000000E-03 0.  1.
         12    1    3    3    0    0  0.12304033110E+02 -0.52096863869E+01 -0.77155909278E+01  0.15429206279E+02  0.00000000000E+00 0. -1.
</event>
<event>
 7    1  0.2497395E-009  0.4778727E+02  0.7816164E-02  0.1312668E+00
        -11   -1    0    0    0    0  0.00000000000E+00  0.00000000000E+00  0.45593999997E+02  0.45594000000E+02  0.51100000000E-03 0.  1.
         11   -1    0    0    0    0 -0.00000000000E+00 -0.00000000000E+00 -0.45593999997E+02  0.45594000000E+02  0.51100000000E-03 0. -1.
    9900012    2    1    2    0    0  0.17620392096E+02  0.23661710167E+02 -0.31831881131E+02  0.47787269568E+02  0.19999993270E+02 0.  0.
        -12    1    1    2    0    0 -0.17620392096E+02 -0.23661710167E+02  0.31831881131E+02  0.43400730432E+02  0.00000000000E+00 0.  1.
         11    1    3    3    0    0  0.25031015547E+01  0.13550955966E+02 -0.23466359016E+02  0.27213304296E+02  0.51100000000E-03 0. -1.
        -11    1    3    3    0    0 -0.32052414526E-01 -0.36675291208E+00 -0.80355875485E-01  0.37681876764E+00  0.51100000000E-03 0.  1.
         12    1    3    3    0    0  0.15149342956E+02  0.10477507113E+02 -0.82851662398E+01  0.20197146504E+02  0.00000000000E+00 0. -1.
</event>
<event>
 7    1  0.2497395E-009  0.4778727E+02  0.7816164E-02  0.1312668E+00
        -11   -1    0    0    0    0  0.00000000000E+00  0.00000000000E+00  0.45593999997E+02  0.45594000000E+02  0.51100000000E-03 0.  1.
         11   -1    0    0    0    0 -0.00000000000E+00 -0.00000000000E+00 -0.45593999997E+02  0.45594000000E+02  0.51100000000E-03 0. -1.
    9900012    2    1    2    0    0 -0.41117268752E+01 -0.41545250816E+02  0.11862085162E+02  0.47787271577E+02  0.20000002429E+02 0.  0.
        -12    1    1    2    0    0  0.41117268752E+01  0.41545250816E+02 -0.11862085162E+02  0.43400728423E+02  0.00000000000E+00 0.  1.
         11    1    3    3    0    0 -0.93045982451E+01 -0.19988325114E+02  0.78882084520E+01  0.23416501067E+02  0.51100000000E-03 0. -1.
        -11    1    3    3    0    0 -0.11980912676E+00 -0.33146760684E+01 -0.26538589649E+01  0.42478699759E+01  0.51100000000E-03 0.  1.
         12    1    3    3    0    0  0.53126804967E+01 -0.18242249633E+02  0.66277356750E+01  0.20122900534E+02  0.00000000000E+00 0. -1.
</event>
<event>
 7    1  0.2497395E-009  0.4778727E+02  0.7816164E-02  0.1312668E+00
        -11   -1    0    0    0    0  0.00000000000E+00  0.00000000000E+00  0.45593999997E+02  0.45594000000E+02  0.51100000000E-03 0.  1.
         11   -1    0    0    0    0 -0.00000000000E+00 -0.00000000000E+00 -0.45593999997E+02  0.45594000000E+02  0.51100000000E-03 0. -1.
    9900012    2    1    2    0    0  0.12574327914E+02 -0.31582905054E+02 -0.26982033260E+02  0.47787265755E+02  0.19999975885E+02 0.  0.
        -12    1    1    2    0    0 -0.12574327914E+02  0.31582905054E+02  0.26982033260E+02  0.43400734245E+02  0.00000000000E+00 0.  1.
         11    1    3    3    0    0  0.11119461184E+02 -0.15440826774E+02 -0.25019716017E+02  0.31433226660E+02  0.51100000000E-03 0. -1.
        -11    1    3    3    0    0  0.10772082545E+01 -0.66888664859E+01 -0.84416657455E+00  0.68274394876E+01  0.51100000000E-03 0.  1.
         12    1    3    3    0    0  0.37765847537E+00 -0.94532117949E+01 -0.11181506685E+01  0.95265996074E+01  0.00000000000E+00 0. -1.
</event>
<event>
 7    1  0.2497395E-009  0.4778727E+02  0.7816164E-02  0.1312668E+00
        -11   -1    0    0    0    0  0.00000000000E+00  0.00000000000E+00  0.45593999997E+02  0.45594000000E+02  0.51100000000E-03 0.  1.
         11   -1    0    0    0    0 -0.00000000000E+00 -0.00000000000E+00 -0.45593999997E+02  0.45594000000E+02  0.51100000000E-03 0. -1.
    9900012    2    1    2    0    0 -0.64352959206E+00 -0.39618962906E+02 -0.17707258944E+02  0.47787269921E+02  0.19999994878E+02 0.  0.
        -12    1    1    2    0    0  0.64352959206E+00  0.39618962906E+02  0.17707258944E+02  0.43400730079E+02  0.00000000000E+00 0.  1.
         11    1    3    3    0    0  0.74355945875E+00 -0.43903878198E+01 -0.60035142174E+01  0.74746618048E+01  0.51100000000E-03 0. -1.
        -11    1    3    3    0    0  0.38767842444E+01 -0.13034184824E+01 -0.16169023884E+00  0.40932260886E+01  0.51100000000E-03 0.  1.
        -12    1    3    3    0    0 -0.52638732952E+01 -0.33925156604E+02 -0.11542054488E+02  0.36219382028E+02  0.00000000000E+00 0.  1.
</event>
<event>
 7    1  0.2497395E-009  0.4778724E+02  0.7816164E-02  0.1312668E+00
        -11   -1    0    0    0    0  0.00000000000E+00  0.00000000000E+00  0.45593999997E+02  0.45594000000E+02  0.51100000000E-03 0. -1.
         11   -1    0    0    0    0 -0.00000000000E+00 -0.00000000000E+00 -0.45593999997E+02  0.45594000000E+02  0.51100000000E-03 0.  1.
    9900012    2    1    2    0    0  0.31021077326E+01 -0.28180404405E+02  0.32861347101E+02  0.47787235051E+02  0.19999835892E+02 0.  0.
        -12    1    1    2    0    0 -0.31021077326E+01  0.28180404405E+02 -0.32861347101E+02  0.43400764949E+02  0.00000000000E+00 0.  1.
         11    1    3    3    0    0 -0.19173975344E+01 -0.21151238782E+02  0.24668020403E+02  0.32550922355E+02  0.51100000000E-03 0. -1.
        -11    1    3    3    0    0  0.69162752051E+01 -0.21233475296E+01  0.64574591096E+01  0.96975381338E+01  0.51100000000E-03 0.  1.
         12    1    3    3    0    0 -0.18967699381E+01 -0.49058180936E+01  0.17358675886E+01  0.55387745622E+01  0.00000000000E+00 0. -1.
</event>
<event>
 7    1  0.2497395E-009  0.4778727E+02  0.7816164E-02  0.1312668E+00
        -11   -1    0    0    0    0  0.00000000000E+00  0.00000000000E+00  0.45593999997E+02  0.45594000000E+02  0.51100000000E-03 0. -1.
         11   -1    0    0    0    0 -0.00000000000E+00 -0.00000000000E+00 -0.45593999997E+02  0.45594000000E+02  0.51100000000E-03 0.  1.
    9900012    2    1    2    0    0 -0.69478080309E+01 -0.91976313667E+01  0.41842019508E+02  0.47787273558E+02  0.20000011459E+02 0.  0.
        -12    1    1    2    0    0  0.69478080309E+01  0.91976313667E+01 -0.41842019508E+02  0.43400726442E+02  0.00000000000E+00 0.  1.
         11    1    3    3    0    0 -0.76069619726E+01 -0.14524302730E+02  0.35331224031E+02  0.38950181412E+02  0.51100000000E-03 0. -1.
        -11    1    3    3    0    0  0.13794354107E+01  0.39718190855E+01  0.57532208623E+01  0.71258500863E+01  0.51100000000E-03 0.  1.
         12    1    3    3    0    0 -0.72028146907E+00  0.13548522774E+01  0.75757461484E+00  0.17112420592E+01  0.00000000000E+00 0. -1.
</event>
<event>
 7    1  0.2497395E-009  0.4778727E+02  0.7816164E-02  0.1312668E+00
        -11   -1    0    0    0    0  0.00000000000E+00  0.00000000000E+00  0.45593999997E+02  0.45594000000E+02  0.51100000000E-03 0.  1.
         11   -1    0    0    0    0 -0.00000000000E+00 -0.00000000000E+00 -0.45593999997E+02  0.45594000000E+02  0.51100000000E-03 0. -1.
    9900012    2    1    2    0    0  0.16086258382E+02  0.93982822136E+01 -0.39198574039E+02  0.47787267011E+02  0.19999981608E+02 0.  0.
        -12    1    1    2    0    0 -0.16086258382E+02 -0.93982822136E+01  0.39198574039E+02  0.43400732989E+02  0.00000000000E+00 0.  1.
         11    1    3    3    0    0  0.62233199412E+01  0.53673667885E+01 -0.28892936679E+01  0.87112774892E+01  0.51100000000E-03 0. -1.
        -11    1    3    3    0    0  0.78968114124E+01 -0.19597680727E+01 -0.20616483548E+02  0.22163928251E+02  0.51100000000E-03 0.  1.
         12    1    3    3    0    0  0.19661270289E+01  0.59906834977E+01 -0.15692796823E+02  0.16912061270E+02  0.00000000000E+00 0. -1.
</event>
<event>
 7    1  0.2497395E-009  0.4778727E+02  0.7816164E-02  0.1312668E+00
        -11   -1    0    0    0    0  0.00000000000E+00  0.00000000000E+00  0.45593999997E+02  0.45594000000E+02  0.51100000000E-03 0.  1.
         11   -1    0    0    0    0 -0.00000000000E+00 -0.00000000000E+00 -0.45593999997E+02  0.45594000000E+02  0.51100000000E-03 0. -1.
    9900012    2    1    2    0    0 -0.41013763547E+02  0.13890236187E+02 -0.29250143090E+01  0.47787272237E+02  0.20000005436E+02 0.  0.
        -12    1    1    2    0    0  0.41013763547E+02 -0.13890236187E+02  0.29250143090E+01  0.43400727763E+02  0.00000000000E+00 0.  1.
         11    1    3    3    0    0 -0.13405019155E+02  0.56108130044E+01  0.64831708488E+01  0.15912487726E+02  0.51100000000E-03 0. -1.
        -11    1    3    3    0    0 -0.15580686210E+02  0.96838646522E+01 -0.56487128449E+01  0.19194868441E+02  0.51100000000E-03 0.  1.
        -12    1    3    3    0    0 -0.12028058182E+02 -0.14044414692E+01 -0.37594723129E+01  0.12679916070E+02  0.00000000000E+00 0.  1.
</event>
<event>
 7    1  0.2497395E-009  0.4778727E+02  0.7816164E-02  0.1312668E+00
        -11   -1    0    0    0    0  0.00000000000E+00  0.00000000000E+00  0.45593999997E+02  0.45594000000E+02  0.51100000000E-03 0.  1.
         11   -1    0    0    0    0 -0.00000000000E+00 -0.00000000000E+00 -0.45593999997E+02  0.45594000000E+02  0.51100000000E-03 0. -1.
    9900012    2    1    2    0    0 -0.12578669319E+02  0.27079081780E+02 -0.31497992670E+02  0.47787272655E+02  0.20000007341E+02 0.  0.
        -12    1    1    2    0    0  0.12578669319E+02 -0.27079081780E+02  0.31497992670E+02  0.43400727345E+02  0.00000000000E+00 0.  1.
         11    1    3    3    0    0 -0.17844477812E+02  0.22754531923E+02 -0.25665137258E+02  0.38663851104E+02  0.51100000000E-03 0. -1.
        -11    1    3    3    0    0  0.33116565627E+01  0.35424580316E+01 -0.34944357942E+01  0.59772200793E+01  0.51100000000E-03 0.  1.
         12    1    3    3    0    0  0.19541519307E+01  0.78209182501E+00 -0.23384196174E+01  0.31462014713E+01  0.00000000000E+00 0. -1.
</event>
<event>
 7    1  0.2497395E-009  0.4778727E+02  0.7816164E-02  0.1312668E+00
        -11   -1    0    0    0    0  0.00000000000E+00  0.00000000000E+00  0.45593999997E+02  0.45594000000E+02  0.51100000000E-03 0.  1.
         11   -1    0    0    0    0 -0.00000000000E+00 -0.00000000000E+00 -0.45593999997E+02  0.45594000000E+02  0.51100000000E-03 0. -1.
    9900012    2    1    2    0    0  0.38713796256E+02 -0.40927078804E+01 -0.19186329275E+02  0.47787268331E+02  0.19999987629E+02 0.  0.
        -12    1    1    2    0    0 -0.38713796256E+02  0.40927078804E+01  0.19186329275E+02  0.43400731669E+02  0.00000000000E+00 0.  1.
         11    1    3    3    0    0  0.27144598032E+02 -0.35051545800E+01 -0.85415984178E+01  0.28671836613E+02  0.51100000000E-03 0. -1.
        -11    1    3    3    0    0  0.41585823768E+01  0.41650085919E+01 -0.79831468042E+01  0.99182527248E+01  0.51100000000E-03 0.  1.
         12    1    3    3    0    0  0.74106158468E+01 -0.47525618923E+01 -0.26615840535E+01  0.91971789937E+01  0.00000000000E+00 0. -1.
</event>
<event>
 7    1  0.2497395E-009  0.4778727E+02  0.7816164E-02  0.1312668E+00
        -11   -1    0    0    0    0  0.00000000000E+00  0.00000000000E+00  0.45593999997E+02  0.45594000000E+02  0.51100000000E-03 0.  1.
         11   -1    0    0    0    0 -0.00000000000E+00 -0.00000000000E+00 -0.45593999997E+02  0.45594000000E+02  0.51100000000E-03 0. -1.
    9900012    2    1    2    0    0 -0.23105558831E+02  0.90041758355E+00 -0.36727998638E+02  0.47787268616E+02  0.19999988928E+02 0.  0.
        -12    1    1    2    0    0  0.23105558831E+02 -0.90041758355E+00  0.36727998638E+02  0.43400731384E+02  0.00000000000E+00 0.  1.
         11    1    3    3    0    0  0.57616595818E+00  0.51279928685E+01 -0.82459757045E+01  0.97275070625E+01  0.51100000000E-03 0. -1.
        -11    1    3    3    0    0 -0.16007680187E+02 -0.47553569230E+01 -0.14565354145E+02  0.22158718060E+02  0.51100000000E-03 0.  1.
         12    1    3    3    0    0 -0.76740446030E+01  0.52778163813E+00 -0.13916668788E+02  0.15901043494E+02  0.00000000000E+00 0. -1.
</event>
<event>
 7    1  0.2497395E-009  0.4778727E+02  0.7816164E-02  0.1312668E+00
        -11   -1    0    0    0    0  0.00000000000E+00  0.00000000000E+00  0.45593999997E+02  0.45594000000E+02  0.51100000000E-03 0.  1.
         11   -1    0    0    0    0 -0.00000000000E+00 -0.00000000000E+00 -0.45593999997E+02  0.45594000000E+02  0.51100000000E-03 0. -1.
    9900012    2    1    2    0    0  0.10144246700E+02  0.18480339065E+02 -0.37936717910E+02  0.47787271448E+02  0.20000001839E+02 0.  0.
        -12    1    1    2    0    0 -0.10144246700E+02 -0.18480339065E+02  0.37936717910E+02  0.43400728552E+02  0.00000000000E+00 0.  1.
         11    1    3    3    0    0  0.73083193408E+01  0.15057729435E+02 -0.31288361583E+02  0.35483916330E+02  0.51100000000E-03 0. -1.
        -11    1    3    3    0    0  0.37849323073E+01 -0.31920777748E+00  0.82949654307E+00  0.38878877237E+01  0.51100000000E-03 0.  1.
        -12    1    3    3    0    0 -0.94900494845E+00  0.37418174077E+01 -0.74778528707E+01  0.84154673941E+01  0.00000000000E+00 0.  1.
</event>
<event>
 7    1  0.2497395E-009  0.4778726E+02  0.7816164E-02  0.1312668E+00
        -11   -1    0    0    0    0  0.00000000000E+00  0.00000000000E+00  0.45593999997E+02  0.45594000000E+02  0.51100000000E-03 0. -1.
         11   -1    0    0    0    0 -0.00000000000E+00 -0.00000000000E+00 -0.45593999997E+02  0.45594000000E+02  0.51100000000E-03 0.  1.
    9900012    2    1    2    0    0 -0.40431386118E+02 -0.14032829490E+02 -0.72115626744E+01  0.47787263564E+02  0.19999965895E+02 0.  0.
        -12    1    1    2    0    0  0.40431386118E+02  0.14032829490E+02  0.72115626744E+01  0.43400736436E+02  0.00000000000E+00 0.  1.
         11    1    3    3    0    0 -0.12837492711E+02 -0.89795547968E+01 -0.29940597932E+01  0.15949859491E+02  0.51100000000E-03 0. -1.
        -11    1    3    3    0    0 -0.17660936915E+02 -0.23796101735E+01  0.44706833276E+01  0.18372758285E+02  0.51100000000E-03 0.  1.
        -12    1    3    3    0    0 -0.99329564916E+01 -0.26736645200E+01 -0.86881862088E+01  0.13464645789E+02  0.00000000000E+00 0.  1.
</event>
<event>
 7    1  0.2497395E-009  0.4778727E+02  0.7816164E-02  0.1312668E+00
        -11   -1    0    0    0    0  0.00000000000E+00  0.00000000000E+00  0.45593999997E+02  0.45594000000E+02  0.51100000000E-03 0. -1.
         11   -1    0    0    0    0 -0.00000000000E+00 -0.00000000000E+00 -0.45593999997E+02  0.45594000000E+02  0.51100000000E-03 0.  1.
    9900012    2    1    2    0    0 -0.42767097152E+02 -0.70905660938E+01  0.20790953831E+01  0.47787270007E+02  0.19999995268E+02 0.  0.
        -12    1    1    2    0    0  0.42767097152E+02  0.70905660938E+01 -0.20790953831E+01  0.43400729993E+02  0.00000000000E+00 0.  1.
         11    1    3    3    0    0 -0.19863585618E+02 -0.78345984290E+01  0.91856355117E+01  0.23244759972E+02  0.51100000000E-03 0. -1.
        -11    1    3    3    0    0 -0.13656905043E+02  0.15018054513E+00 -0.68357739744E+01  0.15272898076E+02  0.51100000000E-03 0.  1.
        -12    1    3    3    0    0 -0.92466064910E+01  0.59385179007E+00 -0.27076615422E+00  0.92696119583E+01  0.00000000000E+00 0.  1.
</event>
<event>
 7    1  0.2497395E-009  0.4778727E+02  0.7816164E-02  0.1312668E+00
        -11   -1    0    0    0    0  0.00000000000E+00  0.00000000000E+00  0.45593999997E+02  0.45594000000E+02  0.51100000000E-03 0.  1.
         11   -1    0    0    0    0 -0.00000000000E+00 -0.00000000000E+00 -0.45593999997E+02  0.45594000000E+02  0.51100000000E-03 0. -1.
    9900012    2    1    2    0    0 -0.25062529312E+01  0.34127827284E+02 -0.26695196700E+02  0.47787269296E+02  0.19999992026E+02 0.  0.
        -12    1    1    2    0    0  0.25062529312E+01 -0.34127827284E+02  0.26695196700E+02  0.43400730704E+02  0.00000000000E+00 0.  1.
         11    1    3    3    0    0 -0.29260448402E+01  0.12736813356E+02 -0.23370765306E+01  0.13275921055E+02  0.51100000000E-03 0.  1.
        -11    1    3    3    0    0  0.44015622247E+01  0.78714261459E+01 -0.15292476982E+02  0.17753674326E+02  0.51100000000E-03 0. -1.
         12    1    3    3    0    0 -0.39817703157E+01  0.13519587782E+02 -0.90656431871E+01  0.16757673915E+02  0.00000000000E+00 0. -1.
</event>
<event>
 7    1  0.2497395E-009  0.4778727E+02  0.7816164E-02  0.1312668E+00
        -11   -1    0    0    0    0  0.00000000000E+00  0.00000000000E+00  0.45593999997E+02  0.45594000000E+02  0.51100000000E-03 0.  1.
         11   -1    0    0    0    0 -0.00000000000E+00 -0.00000000000E+00 -0.45593999997E+02  0.45594000000E+02  0.51100000000E-03 0. -1.
    9900012    2    1    2    0    0  0.20274802670E+02 -0.14555119821E+02 -0.35506395930E+02  0.47787270879E+02  0.19999999245E+02 0.  0.
        -12    1    1    2    0    0 -0.20274802670E+02  0.14555119821E+02  0.35506395930E+02  0.43400729121E+02  0.00000000000E+00 0.  1.
         11    1    3    3    0    0  0.18739977733E+02 -0.13166569277E+02 -0.18017278545E+02  0.29140481094E+02  0.51100000000E-03 0. -1.
        -11    1    3    3    0    0  0.36003206309E+01  0.37014377967E+00 -0.11826069279E+02  0.12367507021E+02  0.51100000000E-03 0.  1.
         12    1    3    3    0    0 -0.20654956932E+01 -0.17586943238E+01 -0.56630481057E+01  0.62792827640E+01  0.00000000000E+00 0. -1.
</event>
<event>
 7    1  0.2497395E-009  0.4778727E+02  0.7816164E-02  0.1312668E+00
        -11   -1    0    0    0    0  0.00000000000E+00  0.00000000000E+00  0.45593999997E+02  0.45594000000E+02  0.51100000000E-03 0.  1.
         11   -1    0    0    0    0 -0.00000000000E+00 -0.00000000000E+00 -0.45593999997E+02  0.45594000000E+02  0.51100000000E-03 0. -1.
    9900012    2    1    2    0    0 -0.39692332210E+02 -0.12250341201E+01  0.17511171345E+02  0.47787273431E+02  0.20000010880E+02 0.  0.
        -12    1    1    2    0    0  0.39692332210E+02  0.12250341201E+01 -0.17511171345E+02  0.43400726569E+02  0.00000000000E+00 0.  1.
         11    1    3    3    0    0 -0.81193645537E+01 -0.77478455696E+00  0.19468105609E+01  0.83853708020E+01  0.51100000000E-03 0. -1.
        -11    1    3    3    0    0 -0.31067370330E+02  0.81270351856E-03  0.18654928831E+02  0.36237934127E+02  0.51100000000E-03 0.  1.
        -12    1    3    3    0    0 -0.50559732649E+00 -0.45106226667E+00 -0.30905680468E+01  0.31639685013E+01  0.00000000000E+00 0.  1.
</event>
<event>
 7    1  0.2497395E-009  0.4778728E+02  0.7816164E-02  0.1312668E+00
        -11   -1    0    0    0    0  0.00000000000E+00  0.00000000000E+00  0.45593999997E+02  0.45594000000E+02  0.51100000000E-03 0.  1.
         11   -1    0    0    0    0 -0.00000000000E+00 -0.00000000000E+00 -0.45593999997E+02  0.45594000000E+02  0.51100000000E-03 0. -1.
    9900012    2    1    2    0    0 -0.12243319351E+02  0.58310682878E+01 -0.41227693319E+02  0.47787275092E+02  0.20000018456E+02 0.  0.
        -12    1    1    2    0    0  0.12243319351E+02 -0.58310682878E+01  0.41227693319E+02  0.43400724908E+02  0.00000000000E+00 0.  1.
         11    1    3    3    0    0 -0.44504404451E+01  0.10681732182E+00 -0.74630413909E+01  0.86899261883E+01  0.51100000000E-03 0. -1.
        -11    1    3    3    0    0 -0.73247215886E+01  0.11529034469E+02 -0.26241417045E+02  0.29583477668E+02  0.51100000000E-03 0.  1.
        -12    1    3    3    0    0 -0.46815731780E+00 -0.58047835032E+01 -0.75232348827E+01  0.95138712359E+01  0.00000000000E+00 0.  1.
</event>
<event>
 7    1  0.2497395E-009  0.4778727E+02  0.7816164E-02  0.1312668E+00
        -11   -1    0    0    0    0  0.00000000000E+00  0.00000000000E+00  0.45593999997E+02  0.45594000000E+02  0.51100000000E-03 0. -1.
         11   -1    0    0    0    0 -0.00000000000E+00 -0.00000000000E+00 -0.45593999997E+02  0.45594000000E+02  0.51100000000E-03 0.  1.
    9900012    2    1    2    0    0  0.86496483374E+01  0.26858715984E+02  0.32975995606E+02  0.47787270434E+02  0.19999997217E+02 0.  0.
        -12    1    1    2    0    0 -0.86496483374E+01 -0.26858715984E+02 -0.32975995606E+02  0.43400729566E+02  0.00000000000E+00 0.  1.
         11    1    3    3    0    0  0.63306763534E+01  0.23489256779E+02  0.29236974447E+02  0.38034501735E+02  0.51100000000E-03 0. -1.
        -11    1    3    3    0    0  0.47885787334E+01  0.25238896144E+01  0.28121994447E+00  0.54202942715E+01  0.51100000000E-03 0.  1.
        -12    1    3    3    0    0 -0.24696067495E+01  0.84556959038E+00  0.34578012139E+01  0.43324744274E+01  0.00000000000E+00 0.  1.
</event>
<event>
 7    1  0.2497395E-009  0.4778727E+02  0.7816164E-02  0.1312668E+00
        -11   -1    0    0    0    0  0.00000000000E+00  0.00000000000E+00  0.45593999997E+02  0.45594000000E+02  0.51100000000E-03 0. -1.
         11   -1    0    0    0    0 -0.00000000000E+00 -0.00000000000E+00 -0.45593999997E+02  0.45594000000E+02  0.51100000000E-03 0.  1.
    9900012    2    1    2    0    0 -0.37595647656E+02  0.21473260735E+02  0.30148915262E+01  0.47787271663E+02  0.20000002823E+02 0.  0.
        -12    1    1    2    0    0  0.37595647656E+02 -0.21473260735E+02 -0.30148915262E+01  0.43400728337E+02  0.00000000000E+00 0.  1.
         11    1    3    3    0    0 -0.17400457904E+02  0.26650968238E+01 -0.46862972560E+01  0.18216477667E+02  0.51100000000E-03 0. -1.
        -11    1    3    3    0    0 -0.24105502396E+01  0.58708719120E+00  0.26175158932E+01  0.36064960196E+01  0.51100000000E-03 0.  1.
         12    1    3    3    0    0 -0.17784639512E+02  0.18221076720E+02  0.50836728890E+01  0.25964297977E+02  0.00000000000E+00 0. -1.
</event>
<event>
 7    1  0.2497395E-009  0.4778727E+02  0.7816164E-02  0.1312668E+00
        -11   -1    0    0    0    0  0.00000000000E+00  0.00000000000E+00  0.45593999997E+02  0.45594000000E+02  0.51100000000E-03 0.  1.
         11   -1    0    0    0    0 -0.00000000000E+00 -0.00000000000E+00 -0.45593999997E+02  0.45594000000E+02  0.51100000000E-03 0. -1.
    9900012    2    1    2    0    0 -0.54749879226E+01  0.10771705131E+02 -0.41684751007E+02  0.47787267395E+02  0.19999983359E+02 0.  0.
        -12    1    1    2    0    0  0.54749879226E+01 -0.10771705131E+02  0.41684751007E+02  0.43400732605E+02  0.00000000000E+00 0.  1.
         11    1    3    3    0    0 -0.63809269116E+01  0.80740489556E+01 -0.19010262621E+02  0.21617043738E+02  0.51100000000E-03 0. -1.
        -11    1    3    3    0    0  0.17335146991E+01 -0.30969714324E+01 -0.18842938481E+02  0.19174270159E+02  0.51100000000E-03 0.  1.
        -12    1    3    3    0    0 -0.82757571010E+00  0.57946276078E+01 -0.38315499049E+01  0.69959534978E+01  0.00000000000E+00 0.  1.
</event>
<event>
 7    1  0.2497395E-009  0.4778727E+02  0.7816164E-02  0.1312668E+00
        -11   -1    0    0    0    0  0.00000000000E+00  0.00000000000E+00  0.45593999997E+02  0.45594000000E+02  0.51100000000E-03 0.  1.
         11   -1    0    0    0    0 -0.00000000000E+00 -0.00000000000E+00 -0.45593999997E+02  0.45594000000E+02  0.51100000000E-03 0. -1.
    9900012    2    1    2    0    0  0.15611501686E+02 -0.10207817340E+02 -0.39188067827E+02  0.47787272129E+02  0.20000004944E+02 0.  0.
        -12    1    1    2    0    0 -0.15611501686E+02  0.10207817340E+02  0.39188067827E+02  0.43400727871E+02  0.00000000000E+00 0.  1.
         11    1    3    3    0    0  0.67163641214E+01  0.27081679812E+01 -0.16512891249E+02  0.18031064819E+02  0.51100000000E-03 0. -1.
        -11    1    3    3    0    0  0.53729985510E+01  0.36689113403E+00 -0.48383238393E+01  0.72396892453E+01  0.51100000000E-03 0.  1.
         12    1    3    3    0    0  0.35221390135E+01 -0.13282876455E+02 -0.17836852739E+02  0.22516518065E+02  0.00000000000E+00 0. -1.
</event>
<event>
 7    1  0.2497395E-009  0.4778727E+02  0.7816164E-02  0.1312668E+00
        -11   -1    0    0    0    0  0.00000000000E+00  0.00000000000E+00  0.45593999997E+02  0.45594000000E+02  0.51100000000E-03 0.  1.
         11   -1    0    0    0    0 -0.00000000000E+00 -0.00000000000E+00 -0.45593999997E+02  0.45594000000E+02  0.51100000000E-03 0. -1.
    9900012    2    1    2    0    0  0.40779318051E+02  0.79860756127E+01 -0.12525709208E+02  0.47787267569E+02  0.19999984153E+02 0.  0.
        -12    1    1    2    0    0 -0.40779318051E+02 -0.79860756127E+01  0.12525709208E+02  0.43400732431E+02  0.00000000000E+00 0.  1.
         11    1    3    3    0    0  0.49361258028E+01 -0.14696903780E+01  0.23323170750E+00  0.51555528354E+01  0.51100000000E-03 0. -1.
        -11    1    3    3    0    0  0.23633275837E+02  0.10007007937E+02 -0.15666289236E+02  0.30068331403E+02  0.51100000000E-03 0.  1.
        -12    1    3    3    0    0  0.12209916411E+02 -0.55124194627E+00  0.29073483211E+01  0.12563383331E+02  0.00000000000E+00 0.  1.
</event>
<event>
 7    1  0.2497395E-009  0.4778727E+02  0.7816164E-02  0.1312668E+00
        -11   -1    0    0    0    0  0.00000000000E+00  0.00000000000E+00  0.45593999997E+02  0.45594000000E+02  0.51100000000E-03 0.  1.
         11   -1    0    0    0    0 -0.00000000000E+00 -0.00000000000E+00 -0.45593999997E+02  0.45594000000E+02  0.51100000000E-03 0. -1.
    9900012    2    1    2    0    0 -0.12211340335E+02  0.14092867418E+02 -0.39190526334E+02  0.47787273057E+02  0.20000009178E+02 0.  0.
        -12    1    1    2    0    0  0.12211340335E+02 -0.14092867418E+02  0.39190526334E+02  0.43400726943E+02  0.00000000000E+00 0.  1.
         11    1    3    3    0    0 -0.11932103558E+02  0.10156408223E+02 -0.35635546656E+02  0.38928394637E+02  0.51100000000E-03 0. -1.
        -11    1    3    3    0    0 -0.26769513813E+01 -0.80927979887E+00 -0.11726031573E+01  0.30324908765E+01  0.51100000000E-03 0.  1.
         12    1    3    3    0    0  0.23977146046E+01  0.47457389939E+01 -0.23823765205E+01  0.58263875437E+01  0.00000000000E+00 0. -1.
</event>
<event>
 7    1  0.2497395E-009  0.4778728E+02  0.7816164E-02  0.1312668E+00
        -11   -1    0    0    0    0  0.00000000000E+00  0.00000000000E+00  0.45593999997E+02  0.45594000000E+02  0.51100000000E-03 0.  1.
         11   -1    0    0    0    0 -0.00000000000E+00 -0.00000000000E+00 -0.45593999997E+02  0.45594000000E+02  0.51100000000E-03 0. -1.
    9900012    2    1    2    0    0  0.30434000269E+02  0.70137798995E+00 -0.30933840723E+02  0.47787276442E+02  0.20000024612E+02 0.  0.
        -12    1    1    2    0    0 -0.30434000269E+02 -0.70137798995E+00  0.30933840723E+02  0.43400723558E+02  0.00000000000E+00 0.  1.
         11    1    3    3    0    0  0.47319867480E+01 -0.50721988277E+01 -0.13341191774E+01  0.70639064102E+01  0.51100000000E-03 0. -1.
        -11    1    3    3    0    0  0.14110855263E+02  0.79180339878E+01 -0.17212747097E+02  0.23623931963E+02  0.51100000000E-03 0.  1.
        -12    1    3    3    0    0  0.11591158258E+02 -0.21444571702E+01 -0.12386974448E+02  0.17099438069E+02  0.00000000000E+00 0.  1.
</event>
<event>
 7    1  0.2497395E-009  0.4778728E+02  0.7816164E-02  0.1312668E+00
        -11   -1    0    0    0    0  0.00000000000E+00  0.00000000000E+00  0.45593999997E+02  0.45594000000E+02  0.51100000000E-03 0.  1.
         11   -1    0    0    0    0 -0.00000000000E+00 -0.00000000000E+00 -0.45593999997E+02  0.45594000000E+02  0.51100000000E-03 0. -1.
    9900012    2    1    2    0    0 -0.31049220632E+02 -0.23049776157E+02 -0.19704733187E+02  0.47787276587E+02  0.20000025272E+02 0.  0.
        -12    1    1    2    0    0  0.31049220632E+02  0.23049776157E+02  0.19704733187E+02  0.43400723413E+02  0.00000000000E+00 0.  1.
         11    1    3    3    0    0 -0.13569882991E+02 -0.31828264944E+00 -0.28314426828E+01  0.13865788696E+02  0.51100000000E-03 0.  1.
        -11    1    3    3    0    0 -0.67973288732E+01 -0.10533696181E+02 -0.10994886010E+02  0.16674829944E+02  0.51100000000E-03 0. -1.
        -12    1    3    3    0    0 -0.10682008768E+02 -0.12197797327E+02 -0.58784044950E+01  0.17246657948E+02  0.00000000000E+00 0.  1.
</event>
<event>
 7    1  0.2497395E-009  0.4778726E+02  0.7816164E-02  0.1312668E+00
        -11   -1    0    0    0    0  0.00000000000E+00  0.00000000000E+00  0.45593999997E+02  0.45594000000E+02  0.51100000000E-03 0. -1.
         11   -1    0    0    0    0 -0.00000000000E+00 -0.00000000000E+00 -0.45593999997E+02  0.45594000000E+02  0.51100000000E-03 0.  1.
    9900012    2    1    2    0    0 -0.25273008094E+02  0.22803372984E+02  0.26924063663E+02  0.47787263121E+02  0.19999963873E+02 0.  0.
        -12    1    1    2    0    0  0.25273008094E+02 -0.22803372984E+02 -0.26924063663E+02  0.43400736879E+02  0.00000000000E+00 0.  1.
         11    1    3    3    0    0 -0.18267022741E+02  0.13696168423E+02  0.14047264072E+02  0.26806618165E+02  0.51100000000E-03 0. -1.
        -11    1    3    3    0    0 -0.32012152773E+01 -0.18794391166E+01  0.70680282210E+01  0.79835514552E+01  0.51100000000E-03 0.  1.
         12    1    3    3    0    0 -0.38047700753E+01  0.10986643678E+02  0.58087713700E+01  0.12997093501E+02  0.00000000000E+00 0. -1.
</event>
<event>
 7    1  0.2497395E-009  0.4778727E+02  0.7816164E-02  0.1312668E+00
        -11   -1    0    0    0    0  0.00000000000E+00  0.00000000000E+00  0.45593999997E+02  0.45594000000E+02  0.51100000000E-03 0.  1.
         11   -1    0    0    0    0 -0.00000000000E+00 -0.00000000000E+00 -0.45593999997E+02  0.45594000000E+02  0.51100000000E-03 0. -1.
    9900012    2    1    2    0    0  0.26661518615E+02  0.29150559502E+01 -0.34121677873E+02  0.47787273889E+02  0.20000012971E+02 0.  0.
        -12    1    1    2    0    0 -0.26661518615E+02 -0.29150559502E+01  0.34121677873E+02  0.43400726111E+02  0.00000000000E+00 0.  1.
         11    1    3    3    0    0  0.17908997351E+02 -0.43940504644E+01 -0.15856890935E+02  0.24320379438E+02  0.51100000000E-03 0. -1.
        -11    1    3    3    0    0  0.51824784789E+01  0.25912493527E+01 -0.16192738537E+02  0.17198181241E+02  0.51100000000E-03 0.  1.
         12    1    3    3    0    0  0.35700427848E+01  0.47178570618E+01 -0.20720484006E+01  0.62687132105E+01  0.00000000000E+00 0. -1.
</event>
<event>
 7    1  0.2497395E-009  0.4778727E+02  0.7816164E-02  0.1312668E+00
        -11   -1    0    0    0    0  0.00000000000E+00  0.00000000000E+00  0.45593999997E+02  0.45594000000E+02  0.51100000000E-03 0.  1.
         11   -1    0    0    0    0 -0.00000000000E+00 -0.00000000000E+00 -0.45593999997E+02  0.45594000000E+02  0.51100000000E-03 0. -1.
    9900012    2    1    2    0    0 -0.11339451187E+00  0.40764988648E+02  0.14893828659E+02  0.47787270859E+02  0.19999999156E+02 0.  0.
        -12    1    1    2    0    0  0.11339451187E+00 -0.40764988648E+02 -0.14893828659E+02  0.43400729141E+02  0.00000000000E+00 0.  1.
         11    1    3    3    0    0  0.73437316275E+01  0.96014490487E+01  0.19624315228E+01  0.12246197606E+02  0.51100000000E-03 0.  1.
        -11    1    3    3    0    0 -0.54074447664E+01  0.29917190761E+02  0.13166757320E+02  0.33130684577E+02  0.51100000000E-03 0. -1.
        -12    1    3    3    0    0 -0.20496813730E+01  0.12463488386E+01 -0.23536018417E+00  0.24103886771E+01  0.00000000000E+00 0.  1.
</event>
<event>
 7    1  0.2497395E-009  0.4778727E+02  0.7816164E-02  0.1312668E+00
        -11   -1    0    0    0    0  0.00000000000E+00  0.00000000000E+00  0.45593999997E+02  0.45594000000E+02  0.51100000000E-03 0.  1.
         11   -1    0    0    0    0 -0.00000000000E+00 -0.00000000000E+00 -0.45593999997E+02  0.45594000000E+02  0.51100000000E-03 0. -1.
    9900012    2    1    2    0    0 -0.27702668711E+02  0.59408138133E+01 -0.32876931599E+02  0.47787265515E+02  0.19999974789E+02 0.  0.
        -12    1    1    2    0    0  0.27702668711E+02 -0.59408138133E+01  0.32876931599E+02  0.43400734485E+02  0.00000000000E+00 0.  1.
         11    1    3    3    0    0 -0.12382477882E+02  0.19093414205E+01 -0.22878307374E+02  0.26084253712E+02  0.51100000000E-03 0. -1.
        -11    1    3    3    0    0 -0.53559834036E+01 -0.24850475722E+01  0.36873496456E+00  0.59159095151E+01  0.51100000000E-03 0.  1.
        -12    1    3    3    0    0 -0.99642074256E+01  0.65165199650E+01 -0.10367359189E+02  0.15787102287E+02  0.00000000000E+00 0.  1.
</event>
<event>
 7    1  0.2497395E-009  0.4778727E+02  0.7816164E-02  0.1312668E+00
        -11   -1    0    0    0    0  0.00000000000E+00  0.00000000000E+00  0.45593999997E+02  0.45594000000E+02  0.51100000000E-03 0.  1.
         11   -1    0    0    0    0 -0.00000000000E+00 -0.00000000000E+00 -0.45593999997E+02  0.45594000000E+02  0.51100000000E-03 0. -1.
    9900012    2    1    2    0    0  0.27939240475E+02  0.16522815538E+02 -0.28810049689E+02  0.47787267809E+02  0.19999985247E+02 0.  0.
        -12    1    1    2    0    0 -0.27939240475E+02 -0.16522815538E+02  0.28810049689E+02  0.43400732191E+02  0.00000000000E+00 0.  1.
         11    1    3    3    0    0  0.34839908170E+01  0.16472866294E+01 -0.70799476719E+01  0.80608563162E+01  0.51100000000E-03 0. -1.
        -11    1    3    3    0    0  0.87258836484E+01  0.13895034810E+02 -0.16109866329E+02  0.22994365206E+02  0.51100000000E-03 0.  1.
        -12    1    3    3    0    0  0.15729366010E+02  0.98049409886E+00 -0.56202356883E+01  0.16732046287E+02  0.00000000000E+00 0.  1.
</event>
<event>
 7    1  0.2497395E-009  0.4778727E+02  0.7816164E-02  0.1312668E+00
        -11   -1    0    0    0    0  0.00000000000E+00  0.00000000000E+00  0.45593999997E+02  0.45594000000E+02  0.51100000000E-03 0. -1.
         11   -1    0    0    0    0 -0.00000000000E+00 -0.00000000000E+00 -0.45593999997E+02  0.45594000000E+02  0.51100000000E-03 0.  1.
    9900012    2    1    2    0    0 -0.16473036972E+00 -0.33165811993E+02  0.27993299256E+02  0.47787273917E+02  0.20000013097E+02 0.  0.
        -12    1    1    2    0    0  0.16473036972E+00  0.33165811993E+02 -0.27993299256E+02  0.43400726083E+02  0.00000000000E+00 0.  1.
         11    1    3    3    0    0  0.73887678781E+01 -0.20829849393E+02  0.99436068312E+01  0.24235342654E+02  0.51100000000E-03 0. -1.
        -11    1    3    3    0    0 -0.23965442001E+01 -0.14520093435E+01  0.54120211663E+01  0.60944014146E+01  0.51100000000E-03 0.  1.
         12    1    3    3    0    0 -0.51569540477E+01 -0.10883953257E+02  0.12637671259E+02  0.17457529848E+02  0.00000000000E+00 0. -1.
</event>
<event>
 7    1  0.2497395E-009  0.4778725E+02  0.7816164E-02  0.1312668E+00
        -11   -1    0    0    0    0  0.00000000000E+00  0.00000000000E+00  0.45593999997E+02  0.45594000000E+02  0.51100000000E-03 0.  1.
         11   -1    0    0    0    0 -0.00000000000E+00 -0.00000000000E+00 -0.45593999997E+02  0.45594000000E+02  0.51100000000E-03 0. -1.
    9900012    2    1    2    0    0  0.23054922785E+02  0.38192512161E+01 -0.36571969726E+02  0.47787249843E+02  0.19999903335E+02 0.  0.
        -12    1    1    2    0    0 -0.23054922785E+02 -0.38192512161E+01  0.36571969726E+02  0.43400750157E+02  0.00000000000E+00 0.  1.
         11    1    3    3    0    0  0.20659270099E+02 -0.51693066399E+00 -0.28439752769E+02  0.35155258442E+02  0.51100000000E-03 0. -1.
        -11    1    3    3    0    0  0.10514332112E+01 -0.27010393241E+00  0.15112134762E+01  0.18607080275E+01  0.51100000000E-03 0.  1.
         12    1    3    3    0    0  0.13442194757E+01  0.46062858125E+01 -0.96434304337E+01  0.10771283374E+02  0.00000000000E+00 0. -1.
</event>
<event>
 7    1  0.2497395E-009  0.4778727E+02  0.7816164E-02  0.1312668E+00
        -11   -1    0    0    0    0  0.00000000000E+00  0.00000000000E+00  0.45593999997E+02  0.45594000000E+02  0.51100000000E-03 0.  1.
         11   -1    0    0    0    0 -0.00000000000E+00 -0.00000000000E+00 -0.45593999997E+02  0.45594000000E+02  0.51100000000E-03 0. -1.
    9900012    2    1    2    0    0 -0.88953612560E+01  0.18961480652E+02 -0.38012600108E+02  0.47787274576E+02  0.20000016100E+02 0.  0.
        -12    1    1    2    0    0  0.88953612560E+01 -0.18961480652E+02  0.38012600108E+02  0.43400725424E+02  0.00000000000E+00 0.  1.
         11    1    3    3    0    0 -0.11289294888E+02  0.10560550049E+02 -0.22332862156E+02  0.27161187911E+02  0.51100000000E-03 0. -1.
        -11    1    3    3    0    0  0.30520015766E+01  0.61379036965E+00 -0.71035514575E-02  0.31131178845E+01  0.51100000000E-03 0.  1.
         12    1    3    3    0    0 -0.65806794505E+00  0.77871402331E+01 -0.15672634400E+02  0.17512968780E+02  0.00000000000E+00 0. -1.
</event>
<event>
 7    1  0.2497395E-009  0.4778727E+02  0.7816164E-02  0.1312668E+00
        -11   -1    0    0    0    0  0.00000000000E+00  0.00000000000E+00  0.45593999997E+02  0.45594000000E+02  0.51100000000E-03 0.  1.
         11   -1    0    0    0    0 -0.00000000000E+00 -0.00000000000E+00 -0.45593999997E+02  0.45594000000E+02  0.51100000000E-03 0. -1.
    9900012    2    1    2    0    0  0.35460040412E+02  0.22583841813E+02  0.10778627929E+02  0.47787271929E+02  0.20000004034E+02 0.  0.
        -12    1    1    2    0    0 -0.35460040412E+02 -0.22583841813E+02 -0.10778627929E+02  0.43400728071E+02  0.00000000000E+00 0.  1.
         11    1    3    3    0    0  0.39801031164E+01  0.38963228282E+01  0.47143174626E+00  0.55897048716E+01  0.51100000000E-03 0. -1.
        -11    1    3    3    0    0  0.25472760967E+02  0.14061761367E+02 -0.37439018604E+00  0.29098708774E+02  0.51100000000E-03 0.  1.
        -12    1    3    3    0    0  0.60071763285E+01  0.46257576174E+01  0.10681586369E+02  0.13098858284E+02  0.00000000000E+00 0.  1.
</event>
<event>
 7    1  0.2497395E-009  0.4778727E+02  0.7816164E-02  0.1312668E+00
        -11   -1    0    0    0    0  0.00000000000E+00  0.00000000000E+00  0.45593999997E+02  0.45594000000E+02  0.51100000000E-03 0.  1.
         11   -1    0    0    0    0 -0.00000000000E+00 -0.00000000000E+00 -0.45593999997E+02  0.45594000000E+02  0.51100000000E-03 0. -1.
    9900012    2    1    2    0    0 -0.12876014678E+01  0.39124585249E+02 -0.18741196647E+02  0.47787267976E+02  0.19999986009E+02 0.  0.
        -12    1    1    2    0    0  0.12876014678E+01 -0.39124585249E+02  0.18741196647E+02  0.43400732024E+02  0.00000000000E+00 0.  1.
         11    1    3    3    0    0 -0.91053264348E+00  0.37209224360E+02 -0.17721470415E+02  0.41223851847E+02  0.51100000000E-03 0. -1.
        -11    1    3    3    0    0 -0.46258876192E+00  0.89547227389E+00  0.26069964061E+01  0.27950473124E+01  0.51100000000E-03 0.  1.
         12    1    3    3    0    0  0.85519937587E-01  0.10198886160E+01 -0.36267226378E+01  0.37683688169E+01  0.00000000000E+00 0. -1.
</event>
<event>
 7    1  0.2497395E-009  0.4778727E+02  0.7816164E-02  0.1312668E+00
        -11   -1    0    0    0    0  0.00000000000E+00  0.00000000000E+00  0.45593999997E+02  0.45594000000E+02  0.51100000000E-03 0.  1.
         11   -1    0    0    0    0 -0.00000000000E+00 -0.00000000000E+00 -0.45593999997E+02  0.45594000000E+02  0.51100000000E-03 0. -1.
    9900012    2    1    2    0    0  0.19407681289E+02 -0.24673047229E+02 -0.29970082635E+02  0.47787271829E+02  0.20000003579E+02 0.  0.
        -12    1    1    2    0    0 -0.19407681289E+02  0.24673047229E+02  0.29970082635E+02  0.43400728171E+02  0.00000000000E+00 0.  1.
         11    1    3    3    0    0 -0.10011464206E+01 -0.28233766630E+01 -0.20357802034E+01  0.36218988438E+01  0.51100000000E-03 0. -1.
        -11    1    3    3    0    0  0.56758940130E+01  0.22344184959E+00 -0.63299466677E-01  0.56806431141E+01  0.51100000000E-03 0.  1.
        -12    1    3    3    0    0  0.14732933697E+02 -0.22073112415E+02 -0.27871002965E+02  0.38484729872E+02  0.00000000000E+00 0.  1.
</event>
<event>
 7    1  0.2497395E-009  0.4778727E+02  0.7816164E-02  0.1312668E+00
        -11   -1    0    0    0    0  0.00000000000E+00  0.00000000000E+00  0.45593999997E+02  0.45594000000E+02  0.51100000000E-03 0.  1.
         11   -1    0    0    0    0 -0.00000000000E+00 -0.00000000000E+00 -0.45593999997E+02  0.45594000000E+02  0.51100000000E-03 0. -1.
    9900012    2    1    2    0    0 -0.39435479810E+02  0.13040604044E+02 -0.12586066583E+02  0.47787268512E+02  0.19999988453E+02 0.  0.
        -12    1    1    2    0    0  0.39435479810E+02 -0.13040604044E+02  0.12586066583E+02  0.43400731488E+02  0.00000000000E+00 0.  1.
         11    1    3    3    0    0 -0.28304150192E+01  0.75156919504E+00  0.45366470357E+00  0.29634299992E+01  0.51100000000E-03 0. -1.
        -11    1    3    3    0    0 -0.32631626540E+02  0.93950250821E+01 -0.17486676870E+02  0.38195201467E+02  0.51100000000E-03 0.  1.
        -12    1    3    3    0    0 -0.39734382508E+01  0.28940097667E+01  0.44469455828E+01  0.66286370453E+01  0.00000000000E+00 0.  1.
</event>
<event>
 7    1  0.2497395E-009  0.4778727E+02  0.7816164E-02  0.1312668E+00
        -11   -1    0    0    0    0  0.00000000000E+00  0.00000000000E+00  0.45593999997E+02  0.45594000000E+02  0.51100000000E-03 0.  1.
         11   -1    0    0    0    0 -0.00000000000E+00 -0.00000000000E+00 -0.45593999997E+02  0.45594000000E+02  0.51100000000E-03 0. -1.
    9900012    2    1    2    0    0  0.39247022059E+02  0.72216774390E+01 -0.17062880205E+02  0.47787271361E+02  0.20000001443E+02 0.  0.
        -12    1    1    2    0    0 -0.39247022059E+02 -0.72216774390E+01  0.17062880205E+02  0.43400728639E+02  0.00000000000E+00 0.  1.
         11    1    3    3    0    0  0.80047779537E+01  0.25423795933E+01 -0.45759952965E+01  0.95645123922E+01  0.51100000000E-03 0. -1.
        -11    1    3    3    0    0  0.32203891737E+02  0.93637940655E+00 -0.11719293767E+02  0.34282784252E+02  0.51100000000E-03 0.  1.
        -12    1    3    3    0    0 -0.96164763195E+00  0.37429184392E+01 -0.76759114107E+00  0.39399747170E+01  0.00000000000E+00 0.  1.
</event>
<event>
 7    1  0.2497395E-009  0.4778727E+02  0.7816164E-02  0.1312668E+00
        -11   -1    0    0    0    0  0.00000000000E+00  0.00000000000E+00  0.45593999997E+02  0.45594000000E+02  0.51100000000E-03 0.  1.
         11   -1    0    0    0    0 -0.00000000000E+00 -0.00000000000E+00 -0.45593999997E+02  0.45594000000E+02  0.51100000000E-03 0. -1.
    9900012    2    1    2    0    0 -0.25272127653E+02 -0.34002528236E+02 -0.94218229172E+01  0.47787272937E+02  0.20000008627E+02 0.  0.
        -12    1    1    2    0    0  0.25272127653E+02  0.34002528236E+02  0.94218229172E+01  0.43400727063E+02  0.00000000000E+00 0.  1.
         11    1    3    3    0    0 -0.73888460307E+01 -0.19652665915E+02 -0.47701492017E+01  0.21530830148E+02  0.51100000000E-03 0. -1.
        -11    1    3    3    0    0 -0.10718527618E+02 -0.68724080020E+01  0.33540177464E+01  0.13166862244E+02  0.51100000000E-03 0.  1.
        -12    1    3    3    0    0 -0.71647540044E+01 -0.74774543192E+01 -0.80056914619E+01  0.13089580544E+02  0.00000000000E+00 0.  1.
</event>
<event>
 7    1  0.2497395E-009  0.4778727E+02  0.7816164E-02  0.1312668E+00
        -11   -1    0    0    0    0  0.00000000000E+00  0.00000000000E+00  0.45593999997E+02  0.45594000000E+02  0.51100000000E-03 0.  1.
         11   -1    0    0    0    0 -0.00000000000E+00 -0.00000000000E+00 -0.45593999997E+02  0.45594000000E+02  0.51100000000E-03 0. -1.
    9900012    2    1    2    0    0 -0.28493952038E+02 -0.29265808866E+02 -0.14670731257E+02  0.47787271585E+02  0.20000002466E+02 0.  0.
        -12    1    1    2    0    0  0.28493952038E+02  0.29265808866E+02  0.14670731257E+02  0.43400728415E+02  0.00000000000E+00 0.  1.
         11    1    3    3    0    0 -0.18735671296E+02 -0.26556516138E+02 -0.10045937874E+02  0.34017565996E+02  0.51100000000E-03 0. -1.
        -11    1    3    3    0    0 -0.83670157019E+01  0.12665136823E+01 -0.44329941730E+01  0.95531380322E+01  0.51100000000E-03 0.  1.
        -12    1    3    3    0    0 -0.13912650402E+01 -0.39758064103E+01 -0.19179921023E+00  0.42165675569E+01  0.00000000000E+00 0.  1.
</event>
<event>
 7    1  0.2497395E-009  0.4778728E+02  0.7816164E-02  0.1312668E+00
        -11   -1    0    0    0    0  0.00000000000E+00  0.00000000000E+00  0.45593999997E+02  0.45594000000E+02  0.51100000000E-03 0.  1.
         11   -1    0    0    0    0 -0.00000000000E+00 -0.00000000000E+00 -0.45593999997E+02  0.45594000000E+02  0.51100000000E-03 0. -1.
    9900012    2    1    2    0    0 -0.11815570085E+01  0.27971297355E+02 -0.33163735637E+02  0.47787275189E+02  0.20000018898E+02 0.  0.
        -12    1    1    2    0    0  0.11815570085E+01 -0.27971297355E+02  0.33163735637E+02  0.43400724811E+02  0.00000000000E+00 0.  1.
         11    1    3    3    0    0  0.12354093358E+01  0.18543304274E+02 -0.14329358146E+02  0.23467229806E+02  0.51100000000E-03 0. -1.
        -11    1    3    3    0    0  0.37382953307E+01  0.75735442630E+01 -0.13693676786E+02  0.16088822482E+02  0.51100000000E-03 0.  1.
         12    1    3    3    0    0 -0.61552616750E+01  0.18544488179E+01 -0.51407007049E+01  0.82312229008E+01  0.00000000000E+00 0. -1.
</event>
<event>
 7    1  0.2497395E-009  0.4778727E+02  0.7816164E-02  0.1312668E+00
        -11   -1    0    0    0    0  0.00000000000E+00  0.00000000000E+00  0.45593999997E+02  0.45594000000E+02  0.51100000000E-03 0. -1.
         11   -1    0    0    0    0 -0.00000000000E+00 -0.00000000000E+00 -0.45593999997E+02  0.45594000000E+02  0.51100000000E-03 0.  1.
    9900012    2    1    2    0    0 -0.40780695610E+02  0.14324257380E+02  0.39209716903E+01  0.47787268406E+02  0.19999987969E+02 0.  0.
        -12    1    1    2    0    0  0.40780695610E+02 -0.14324257380E+02 -0.39209716903E+01  0.43400731594E+02  0.00000000000E+00 0.  1.
         11    1    3    3    0    0 -0.36125697508E+01  0.36982343819E+01  0.65116091356E+01  0.83143641695E+01  0.51100000000E-03 0. -1.
        -11    1    3    3    0    0 -0.12448893039E+02  0.18071277325E+01 -0.39713088739E+01  0.13191358647E+02  0.51100000000E-03 0.  1.
         12    1    3    3    0    0 -0.24719232821E+02  0.88188952657E+01  0.13806714286E+01  0.26281545589E+02  0.00000000000E+00 0. -1.
</event>
<event>
 7    1  0.2497395E-009  0.4778727E+02  0.7816164E-02  0.1312668E+00
        -11   -1    0    0    0    0  0.00000000000E+00  0.00000000000E+00  0.45593999997E+02  0.45594000000E+02  0.51100000000E-03 0.  1.
         11   -1    0    0    0    0 -0.00000000000E+00 -0.00000000000E+00 -0.45593999997E+02  0.45594000000E+02  0.51100000000E-03 0. -1.
    9900012    2    1    2    0    0  0.38639753972E+02 -0.12477700012E+02 -0.15326451757E+02  0.47787266042E+02  0.19999977192E+02 0.  0.
        -12    1    1    2    0    0 -0.38639753972E+02  0.12477700012E+02  0.15326451757E+02  0.43400733958E+02  0.00000000000E+00 0.  1.
         11    1    3    3    0    0  0.25370902168E+02 -0.68335791390E+01 -0.85094551638E+01  0.27618676799E+02  0.51100000000E-03 0. -1.
        -11    1    3    3    0    0  0.39538319405E+01 -0.36692137478E+01 -0.89133986562E+01  0.10418473612E+02  0.51100000000E-03 0.  1.
        -12    1    3    3    0    0  0.93150198633E+01 -0.19749071249E+01  0.20964020626E+01  0.97501156308E+01  0.00000000000E+00 0.  1.
</event>
<event>
 7    1  0.2497395E-009  0.4778727E+02  0.7816164E-02  0.1312668E+00
        -11   -1    0    0    0    0  0.00000000000E+00  0.00000000000E+00  0.45593999997E+02  0.45594000000E+02  0.51100000000E-03 0. -1.
         11   -1    0    0    0    0 -0.00000000000E+00 -0.00000000000E+00 -0.45593999997E+02  0.45594000000E+02  0.51100000000E-03 0.  1.
    9900012    2    1    2    0    0 -0.29984031816E+02  0.20764277841E+02  0.23525005180E+02  0.47787271125E+02  0.20000000367E+02 0.  0.
        -12    1    1    2    0    0  0.29984031816E+02 -0.20764277841E+02 -0.23525005180E+02  0.43400728875E+02  0.00000000000E+00 0.  1.
         11    1    3    3    0    0 -0.80902763500E+01  0.53350294296E+01  0.36317325099E+01  0.10349134829E+02  0.51100000000E-03 0. -1.
        -11    1    3    3    0    0 -0.87682867527E+01  0.16020901663E+02  0.89479077799E+01  0.20337580893E+02  0.51100000000E-03 0.  1.
        -12    1    3    3    0    0 -0.13125468713E+02 -0.59165325162E+00  0.10945364890E+02  0.17100555403E+02  0.00000000000E+00 0.  1.
</event>
<event>
 7    1  0.2497395E-009  0.4778727E+02  0.7816164E-02  0.1312668E+00
        -11   -1    0    0    0    0  0.00000000000E+00  0.00000000000E+00  0.45593999997E+02  0.45594000000E+02  0.51100000000E-03 0. -1.
         11   -1    0    0    0    0 -0.00000000000E+00 -0.00000000000E+00 -0.45593999997E+02  0.45594000000E+02  0.51100000000E-03 0.  1.
    9900012    2    1    2    0    0 -0.21071325656E+02  0.37332981275E+02 -0.67728160122E+01  0.47787270830E+02  0.19999999020E+02 0.  0.
        -12    1    1    2    0    0  0.21071325656E+02 -0.37332981275E+02  0.67728160122E+01  0.43400729170E+02  0.00000000000E+00 0.  1.
         11    1    3    3    0    0 -0.18542218196E+02  0.31947274765E+02 -0.95612692536E+01  0.38155734700E+02  0.51100000000E-03 0. -1.
        -11    1    3    3    0    0 -0.17956515912E+01  0.59458508084E-01  0.37607000799E+01  0.41678250087E+01  0.51100000000E-03 0.  1.
        -12    1    3    3    0    0 -0.73345586867E+00  0.53262480025E+01 -0.97224683850E+00  0.54637111207E+01  0.00000000000E+00 0.  1.
</event>
<event>
 7    1  0.2497395E-009  0.4778726E+02  0.7816164E-02  0.1312668E+00
        -11   -1    0    0    0    0  0.00000000000E+00  0.00000000000E+00  0.45593999997E+02  0.45594000000E+02  0.51100000000E-03 0.  1.
         11   -1    0    0    0    0 -0.00000000000E+00 -0.00000000000E+00 -0.45593999997E+02  0.45594000000E+02  0.51100000000E-03 0. -1.
    9900012    2    1    2    0    0 -0.28011882460E+02 -0.30351833909E+02 -0.13331345004E+02  0.47787261064E+02  0.19999954493E+02 0.  0.
        -12    1    1    2    0    0  0.28011882460E+02  0.30351833909E+02  0.13331345004E+02  0.43400738936E+02  0.00000000000E+00 0.  1.
         11    1    3    3    0    0 -0.28134818135E+02 -0.28097767491E+02 -0.10949690014E+02  0.41242553766E+02  0.51100000000E-03 0. -1.
        -11    1    3    3    0    0  0.68890952047E+00 -0.38264138027E+01 -0.28366606369E+01  0.48127624860E+01  0.51100000000E-03 0.  1.
         12    1    3    3    0    0 -0.56597384541E+00  0.15723473848E+01  0.45500564621E+00  0.17319448115E+01  0.00000000000E+00 0. -1.
</event>
<event>
 7    1  0.2497395E-009  0.4778727E+02  0.7816164E-02  0.1312668E+00
        -11   -1    0    0    0    0  0.00000000000E+00  0.00000000000E+00  0.45593999997E+02  0.45594000000E+02  0.51100000000E-03 0.  1.
         11   -1    0    0    0    0 -0.00000000000E+00 -0.00000000000E+00 -0.45593999997E+02  0.45594000000E+02  0.51100000000E-03 0. -1.
    9900012    2    1    2    0    0  0.33473141916E+02 -0.68307906737E+01  0.26767745218E+02  0.47787272875E+02  0.20000008345E+02 0.  0.
        -12    1    1    2    0    0 -0.33473141916E+02  0.68307906737E+01 -0.26767745218E+02  0.43400727125E+02  0.00000000000E+00 0.  1.
         11    1    3    3    0    0  0.31334729298E+02 -0.55270830099E+01  0.20411157258E+02  0.37802503193E+02  0.51100000000E-03 0. -1.
        -11    1    3    3    0    0 -0.12760253810E+01 -0.15759128284E+01  0.62359790522E+01  0.65573757721E+01  0.51100000000E-03 0.  1.
         12    1    3    3    0    0  0.34144379990E+01  0.27220516456E+00  0.12060890712E+00  0.34273939092E+01  0.00000000000E+00 0. -1.
</event>
<event>
 7    1  0.2497395E-009  0.4778727E+02  0.7816164E-02  0.1312668E+00
        -11   -1    0    0    0    0  0.00000000000E+00  0.00000000000E+00  0.45593999997E+02  0.45594000000E+02  0.51100000000E-03 0.  1.
         11   -1    0    0    0    0 -0.00000000000E+00 -0.00000000000E+00 -0.45593999997E+02  0.45594000000E+02  0.51100000000E-03 0. -1.
    9900012    2    1    2    0    0 -0.71979828829E+01 -0.96529644248E+01 -0.41696916430E+02  0.47787268214E+02  0.19999987096E+02 0.  0.
        -12    1    1    2    0    0  0.71979828829E+01  0.96529644248E+01  0.41696916430E+02  0.43400731786E+02  0.00000000000E+00 0.  1.
         11    1    3    3    0    0  0.17907631733E+01 -0.67478740297E+01 -0.21184856709E+02  0.22305577569E+02  0.51100000000E-03 0. -1.
        -11    1    3    3    0    0 -0.11390848130E+02 -0.19264542109E+01 -0.19563493392E+02  0.22719879421E+02  0.51100000000E-03 0.  1.
        -12    1    3    3    0    0  0.24021020742E+01 -0.97863618415E+00 -0.94856632931E+00  0.27618112240E+01  0.00000000000E+00 0.  1.
</event>
<event>
 7    1  0.2497395E-009  0.4778729E+02  0.7816164E-02  0.1312668E+00
        -11   -1    0    0    0    0  0.00000000000E+00  0.00000000000E+00  0.45593999997E+02  0.45594000000E+02  0.51100000000E-03 0.  1.
         11   -1    0    0    0    0 -0.00000000000E+00 -0.00000000000E+00 -0.45593999997E+02  0.45594000000E+02  0.51100000000E-03 0. -1.
    9900012    2    1    2    0    0 -0.56325810134E+01 -0.38008906842E+02 -0.20179670157E+02  0.47787285077E+02  0.20000063980E+02 0.  0.
        -12    1    1    2    0    0  0.56325810134E+01  0.38008906842E+02  0.20179670157E+02  0.43400714923E+02  0.00000000000E+00 0.  1.
         11    1    3    3    0    0 -0.41036034024E+01 -0.15674985489E+02 -0.15867568086E+02  0.22678722367E+02  0.51100000000E-03 0. -1.
        -11    1    3    3    0    0  0.16292651077E+01 -0.21119956963E+02 -0.26786911116E+01  0.21351404479E+02  0.51100000000E-03 0.  1.
        -12    1    3    3    0    0 -0.31582427188E+01 -0.12139643900E+01 -0.16334109600E+01  0.37571582313E+01  0.00000000000E+00 0.  1.
</event>
<event>
 7    1  0.2497395E-009  0.4778727E+02  0.7816164E-02  0.1312668E+00
        -11   -1    0    0    0    0  0.00000000000E+00  0.00000000000E+00  0.45593999997E+02  0.45594000000E+02  0.51100000000E-03 0.  1.
         11   -1    0    0    0    0 -0.00000000000E+00 -0.00000000000E+00 -0.45593999997E+02  0.45594000000E+02  0.51100000000E-03 0. -1.
    9900012    2    1    2    0    0 -0.11037521120E+02 -0.13821184669E+02 -0.39632957320E+02  0.47787270466E+02  0.19999997365E+02 0.  0.
        -12    1    1    2    0    0  0.11037521120E+02  0.13821184669E+02  0.39632957320E+02  0.43400729534E+02  0.00000000000E+00 0.  1.
         11    1    3    3    0    0 -0.35329952397E+01 -0.23370947046E+01  0.81400127703E+00  0.43135444083E+01  0.51100000000E-03 0.  1.
        -11    1    3    3    0    0 -0.67874291278E+01 -0.52313065606E+01 -0.30681903215E+02  0.31856160278E+02  0.51100000000E-03 0. -1.
        -12    1    3    3    0    0 -0.71709675243E+00 -0.62527834038E+01 -0.97650553823E+01  0.11617565781E+02  0.00000000000E+00 0.  1.
</event>
<event>
 7    1  0.2497395E-009  0.4778727E+02  0.7816164E-02  0.1312668E+00
        -11   -1    0    0    0    0  0.00000000000E+00  0.00000000000E+00  0.45593999997E+02  0.45594000000E+02  0.51100000000E-03 0.  1.
         11   -1    0    0    0    0 -0.00000000000E+00 -0.00000000000E+00 -0.45593999997E+02  0.45594000000E+02  0.51100000000E-03 0. -1.
    9900012    2    1    2    0    0  0.12083888463E+02  0.21665630850E+02 -0.35611845193E+02  0.47787269147E+02  0.19999991351E+02 0.  0.
        -12    1    1    2    0    0 -0.12083888463E+02 -0.21665630850E+02  0.35611845193E+02  0.43400730853E+02  0.00000000000E+00 0.  1.
         11    1    3    3    0    0  0.55737319411E+01  0.12506793881E+02 -0.21141204252E+02  0.25188030856E+02  0.51100000000E-03 0. -1.
        -11    1    3    3    0    0  0.30632981359E+01 -0.29805798481E+01 -0.15712706955E+01  0.45537395139E+01  0.51100000000E-03 0.  1.
         12    1    3    3    0    0  0.34468583856E+01  0.12139416817E+02 -0.12899370246E+02  0.18045498777E+02  0.00000000000E+00 0. -1.
</event>
<event>
 7    1  0.2497395E-009  0.4778727E+02  0.7816164E-02  0.1312668E+00
        -11   -1    0    0    0    0  0.00000000000E+00  0.00000000000E+00  0.45593999997E+02  0.45594000000E+02  0.51100000000E-03 0.  1.
         11   -1    0    0    0    0 -0.00000000000E+00 -0.00000000000E+00 -0.45593999997E+02  0.45594000000E+02  0.51100000000E-03 0. -1.
    9900012    2    1    2    0    0 -0.16692790885E+02 -0.64244127110E+01 -0.39543657713E+02  0.47787271762E+02  0.20000003274E+02 0.  0.
        -12    1    1    2    0    0  0.16692790885E+02  0.64244127110E+01  0.39543657713E+02  0.43400728238E+02  0.00000000000E+00 0.  1.
         11    1    3    3    0    0  0.35287325574E+01 -0.26406247615E+01 -0.78020235919E+01  0.89608272488E+01  0.51100000000E-03 0. -1.
        -11    1    3    3    0    0 -0.11819911902E+02 -0.65217450307E+01 -0.18305675462E+02  0.22745136403E+02  0.51100000000E-03 0.  1.
         12    1    3    3    0    0 -0.84016115402E+01  0.27379570812E+01 -0.13435958659E+02  0.16081308110E+02  0.00000000000E+00 0. -1.
</event>
<event>
 7    1  0.2497395E-009  0.4778727E+02  0.7816164E-02  0.1312668E+00
        -11   -1    0    0    0    0  0.00000000000E+00  0.00000000000E+00  0.45593999997E+02  0.45594000000E+02  0.51100000000E-03 0. -1.
         11   -1    0    0    0    0 -0.00000000000E+00 -0.00000000000E+00 -0.45593999997E+02  0.45594000000E+02  0.51100000000E-03 0.  1.
    9900012    2    1    2    0    0  0.50073313196E+01  0.42989754959E+02 -0.32296604586E+01  0.47787272989E+02  0.20000008865E+02 0.  0.
        -12    1    1    2    0    0 -0.50073313196E+01 -0.42989754959E+02  0.32296604586E+01  0.43400727011E+02  0.00000000000E+00 0.  1.
         11    1    3    3    0    0  0.53048211629E+01  0.22195349406E+02 -0.33699779878E+01  0.23067973789E+02  0.51100000000E-03 0. -1.
        -11    1    3    3    0    0 -0.32301032449E+01  0.21113818745E+01 -0.37840032712E+01  0.54046444296E+01  0.51100000000E-03 0.  1.
        -12    1    3    3    0    0  0.29326134017E+01  0.18683023679E+02  0.39243208004E+01  0.19314654770E+02  0.00000000000E+00 0.  1.
</event>
<event>
 7    1  0.2497395E-009  0.4778727E+02  0.7816164E-02  0.1312668E+00
        -11   -1    0    0    0    0  0.00000000000E+00  0.00000000000E+00  0.45593999997E+02  0.45594000000E+02  0.51100000000E-03 0. -1.
         11   -1    0    0    0    0 -0.00000000000E+00 -0.00000000000E+00 -0.45593999997E+02  0.45594000000E+02  0.51100000000E-03 0.  1.
    9900012    2    1    2    0    0  0.32269775231E+02  0.28973184420E+02  0.16851178617E+01  0.47787269233E+02  0.19999991740E+02 0.  0.
        -12    1    1    2    0    0 -0.32269775231E+02 -0.28973184420E+02 -0.16851178617E+01  0.43400730767E+02  0.00000000000E+00 0.  1.
         11    1    3    3    0    0  0.29044810326E+02  0.15184036774E+02  0.34487828977E+01  0.32955273984E+02  0.51100000000E-03 0. -1.
        -11    1    3    3    0    0  0.14235780449E+01  0.95500121175E+01  0.56254589158E+00  0.96719059153E+01  0.51100000000E-03 0.  1.
         12    1    3    3    0    0  0.18013868603E+01  0.42391355286E+01 -0.23262109276E+01  0.51600893336E+01  0.00000000000E+00 0. -1.
</event>
<event>
 7    1  0.2497395E-009  0.4778731E+02  0.7816164E-02  0.1312668E+00
        -11   -1    0    0    0    0  0.00000000000E+00  0.00000000000E+00  0.45593999997E+02  0.45594000000E+02  0.51100000000E-03 0.  1.
         11   -1    0    0    0    0 -0.00000000000E+00 -0.00000000000E+00 -0.45593999997E+02  0.45594000000E+02  0.51100000000E-03 0. -1.
    9900012    2    1    2    0    0  0.21254799271E+02 -0.78878052689E-01 -0.37839752119E+02  0.47787313896E+02  0.20000195378E+02 0.  0.
        -12    1    1    2    0    0 -0.21254799271E+02  0.78878052689E-01  0.37839752119E+02  0.43400686104E+02  0.00000000000E+00 0.  1.
         11    1    3    3    0    0  0.11532248322E+02  0.21251278713E+00 -0.32021217170E+02  0.34035220909E+02  0.51100000000E-03 0. -1.
        -11    1    3    3    0    0  0.10610570802E+02 -0.13173788277E+01 -0.61777211453E+01  0.12348438708E+02  0.51100000000E-03 0.  1.
         12    1    3    3    0    0 -0.88801985303E+00  0.10259879879E+01  0.35918619586E+00  0.14036542786E+01  0.00000000000E+00 0. -1.
</event>
<event>
 7    1  0.2497395E-009  0.4778728E+02  0.7816164E-02  0.1312668E+00
        -11   -1    0    0    0    0  0.00000000000E+00  0.00000000000E+00  0.45593999997E+02  0.45594000000E+02  0.51100000000E-03 0. -1.
         11   -1    0    0    0    0 -0.00000000000E+00 -0.00000000000E+00 -0.45593999997E+02  0.45594000000E+02  0.51100000000E-03 0.  1.
    9900012    2    1    2    0    0  0.15240225440E+01  0.22433602620E+02  0.37121874877E+02  0.47787276899E+02  0.20000026695E+02 0.  0.
        -12    1    1    2    0    0 -0.15240225440E+01 -0.22433602620E+02 -0.37121874877E+02  0.43400723101E+02  0.00000000000E+00 0.  1.
         11    1    3    3    0    0 -0.44844854732E+00  0.71180886268E+01  0.27626168653E+02  0.28531973056E+02  0.51100000000E-03 0. -1.
        -11    1    3    3    0    0  0.22221888723E+01  0.14861584485E+02  0.67711161751E+01  0.16481894045E+02  0.51100000000E-03 0.  1.
        -12    1    3    3    0    0 -0.24971778097E+00  0.45392950793E+00  0.27245900498E+01  0.27734097980E+01  0.00000000000E+00 0.  1.
</event>
<event>
 7    1  0.2497395E-009  0.4778727E+02  0.7816164E-02  0.1312668E+00
        -11   -1    0    0    0    0  0.00000000000E+00  0.00000000000E+00  0.45593999997E+02  0.45594000000E+02  0.51100000000E-03 0. -1.
         11   -1    0    0    0    0 -0.00000000000E+00 -0.00000000000E+00 -0.45593999997E+02  0.45594000000E+02  0.51100000000E-03 0.  1.
    9900012    2    1    2    0    0  0.34888095335E+02  0.24458415271E+02  0.82601400209E+01  0.47787272047E+02  0.20000004573E+02 0.  0.
        -12    1    1    2    0    0 -0.34888095335E+02 -0.24458415271E+02 -0.82601400209E+01  0.43400727953E+02  0.00000000000E+00 0.  1.
         11    1    3    3    0    0  0.29659798921E+02  0.22880215430E+02  0.34302270313E+01  0.37616145309E+02  0.51100000000E-03 0. -1.
        -11    1    3    3    0    0  0.41361327466E+01  0.27317067979E+01 -0.13464065475E+00  0.49586232459E+01  0.51100000000E-03 0.  1.
         12    1    3    3    0    0  0.10921636674E+01 -0.11535069570E+01  0.49645536444E+01  0.52125034930E+01  0.00000000000E+00 0. -1.
</event>
<event>
 7    1  0.2497395E-009  0.4778726E+02  0.7816164E-02  0.1312668E+00
        -11   -1    0    0    0    0  0.00000000000E+00  0.00000000000E+00  0.45593999997E+02  0.45594000000E+02  0.51100000000E-03 0. -1.
         11   -1    0    0    0    0 -0.00000000000E+00 -0.00000000000E+00 -0.45593999997E+02  0.45594000000E+02  0.51100000000E-03 0.  1.
    9900012    2    1    2    0    0 -0.41621856394E+02 -0.10821373720E+02  0.58431859523E+01  0.47787264051E+02  0.19999968113E+02 0.  0.
        -12    1    1    2    0    0  0.41621856394E+02  0.10821373720E+02 -0.58431859523E+01  0.43400735949E+02  0.00000000000E+00 0.  1.
         11    1    3    3    0    0 -0.10281477419E+02  0.99563578272E+00  0.88969912906E+01  0.13632920554E+02  0.51100000000E-03 0. -1.
        -11    1    3    3    0    0 -0.20749132640E+02 -0.10523733101E+02 -0.98805311584E+00  0.23286298824E+02  0.51100000000E-03 0.  1.
         12    1    3    3    0    0 -0.10591246334E+02 -0.12932764016E+01 -0.20657522225E+01  0.10868044673E+02  0.00000000000E+00 0. -1.
</event>
<event>
 7    1  0.2497395E-009  0.4778727E+02  0.7816164E-02  0.1312668E+00
        -11   -1    0    0    0    0  0.00000000000E+00  0.00000000000E+00  0.45593999997E+02  0.45594000000E+02  0.51100000000E-03 0. -1.
         11   -1    0    0    0    0 -0.00000000000E+00 -0.00000000000E+00 -0.45593999997E+02  0.45594000000E+02  0.51100000000E-03 0.  1.
    9900012    2    1    2    0    0  0.41172408667E+02 -0.12700223209E+02  0.52115594720E+01  0.47787271237E+02  0.20000000878E+02 0.  0.
        -12    1    1    2    0    0 -0.41172408667E+02  0.12700223209E+02 -0.52115594720E+01  0.43400728763E+02  0.00000000000E+00 0.  1.
         11    1    3    3    0    0  0.20457014119E+02 -0.55059447903E+01 -0.43644253975E+01  0.21629911327E+02  0.51100000000E-03 0. -1.
        -11    1    3    3    0    0  0.10834794778E+02 -0.90836612833E+01  0.69815240944E+01  0.15768556025E+02  0.51100000000E-03 0.  1.
        -12    1    3    3    0    0  0.98805997705E+01  0.18893828648E+01  0.25944607751E+01  0.10388803884E+02  0.00000000000E+00 0.  1.
</event>
<event>
 7    1  0.2497395E-009  0.4778728E+02  0.7816164E-02  0.1312668E+00
        -11   -1    0    0    0    0  0.00000000000E+00  0.00000000000E+00  0.45593999997E+02  0.45594000000E+02  0.51100000000E-03 0.  1.
         11   -1    0    0    0    0 -0.00000000000E+00 -0.00000000000E+00 -0.45593999997E+02  0.45594000000E+02  0.51100000000E-03 0. -1.
    9900012    2    1    2    0    0  0.20232889104E+02  0.20888048967E+02 -0.32217109276E+02  0.47787279715E+02  0.20000039533E+02 0.  0.
        -12    1    1    2    0    0 -0.20232889104E+02 -0.20888048967E+02  0.32217109276E+02  0.43400720285E+02  0.00000000000E+00 0.  1.
         11    1    3    3    0    0  0.16841253060E+02  0.12663455564E+02 -0.14126950563E+02  0.25368516786E+02  0.51100000000E-03 0. -1.
        -11    1    3    3    0    0  0.33426215307E+01 -0.24268974292E+00 -0.10588686801E+02  0.11106408305E+02  0.51100000000E-03 0.  1.
         12    1    3    3    0    0  0.49014513339E-01  0.84672831455E+01 -0.75014719117E+01  0.11312354624E+02  0.00000000000E+00 0. -1.
</event>
<event>
 7    1  0.2497395E-009  0.4778727E+02  0.7816164E-02  0.1312668E+00
        -11   -1    0    0    0    0  0.00000000000E+00  0.00000000000E+00  0.45593999997E+02  0.45594000000E+02  0.51100000000E-03 0.  1.
         11   -1    0    0    0    0 -0.00000000000E+00 -0.00000000000E+00 -0.45593999997E+02  0.45594000000E+02  0.51100000000E-03 0. -1.
    9900012    2    1    2    0    0 -0.19556590394E+02 -0.81201710760E+01 -0.37884376919E+02  0.47787269353E+02  0.19999992288E+02 0.  0.
        -12    1    1    2    0    0  0.19556590394E+02  0.81201710760E+01  0.37884376919E+02  0.43400730647E+02  0.00000000000E+00 0.  1.
         11    1    3    3    0    0 -0.58226354921E+01 -0.67154697061E+01 -0.13600308980E+02  0.16247123501E+02  0.51100000000E-03 0. -1.
        -11    1    3    3    0    0 -0.50577363283E+01  0.60536365876E+01 -0.14407001370E+02  0.16425251945E+02  0.51100000000E-03 0.  1.
        -12    1    3    3    0    0 -0.86762185737E+01 -0.74583379575E+01 -0.98770665688E+01  0.15114893907E+02  0.00000000000E+00 0.  1.
</event>
<event>
 7    1  0.2497395E-009  0.4778727E+02  0.7816164E-02  0.1312668E+00
        -11   -1    0    0    0    0  0.00000000000E+00  0.00000000000E+00  0.45593999997E+02  0.45594000000E+02  0.51100000000E-03 0.  1.
         11   -1    0    0    0    0 -0.00000000000E+00 -0.00000000000E+00 -0.45593999997E+02  0.45594000000E+02  0.51100000000E-03 0. -1.
    9900012    2    1    2    0    0 -0.41471030200E+02 -0.74959876479E+01  0.10372437406E+02  0.47787266891E+02  0.19999981062E+02 0.  0.
        -12    1    1    2    0    0  0.41471030200E+02  0.74959876479E+01 -0.10372437406E+02  0.43400733109E+02  0.00000000000E+00 0.  1.
         11    1    3    3    0    0 -0.25691226952E+01 -0.43754813924E+01  0.30819339490E+01  0.59366274909E+01  0.51100000000E-03 0. -1.
        -11    1    3    3    0    0 -0.18334275628E+02  0.47702539245E+01  0.11406433435E+01  0.18978989773E+02  0.51100000000E-03 0.  1.
         12    1    3    3    0    0 -0.20567631877E+02 -0.78907601800E+01  0.61498601136E+01  0.22871649627E+02  0.00000000000E+00 0. -1.
</event>
<event>
 7    1  0.2497395E-009  0.4778727E+02  0.7816164E-02  0.1312668E+00
        -11   -1    0    0    0    0  0.00000000000E+00  0.00000000000E+00  0.45593999997E+02  0.45594000000E+02  0.51100000000E-03 0.  1.
         11   -1    0    0    0    0 -0.00000000000E+00 -0.00000000000E+00 -0.45593999997E+02  0.45594000000E+02  0.51100000000E-03 0. -1.
    9900012    2    1    2    0    0 -0.31748772405E+02  0.12316930874E+02 -0.26905984421E+02  0.47787270363E+02  0.19999996894E+02 0.  0.
        -12    1    1    2    0    0  0.31748772405E+02 -0.12316930874E+02  0.26905984421E+02  0.43400729637E+02  0.00000000000E+00 0.  1.
         11    1    3    3    0    0 -0.30719030947E+02  0.59906551368E+01 -0.26643284811E+02  0.41102450499E+02  0.51100000000E-03 0. -1.
        -11    1    3    3    0    0 -0.13554231638E+01  0.43193233359E+01  0.40426432419E+00  0.45450144046E+01  0.51100000000E-03 0.  1.
         12    1    3    3    0    0  0.32568170607E+00  0.20069524010E+01 -0.66696393437E+00  0.21398054593E+01  0.00000000000E+00 0. -1.
</event>
<event>
 7    1  0.2497395E-009  0.4778727E+02  0.7816164E-02  0.1312668E+00
        -11   -1    0    0    0    0  0.00000000000E+00  0.00000000000E+00  0.45593999997E+02  0.45594000000E+02  0.51100000000E-03 0.  1.
         11   -1    0    0    0    0 -0.00000000000E+00 -0.00000000000E+00 -0.45593999997E+02  0.45594000000E+02  0.51100000000E-03 0. -1.
    9900012    2    1    2    0    0  0.40310599626E+02  0.30567823518E+01  0.15790333845E+02  0.47787274160E+02  0.20000014204E+02 0.  0.
        -12    1    1    2    0    0 -0.40310599626E+02 -0.30567823518E+01 -0.15790333845E+02  0.43400725840E+02  0.00000000000E+00 0.  1.
         11    1    3    3    0    0  0.11882116085E+02 -0.11502473951E+01  0.17240185170E+01  0.12061508689E+02  0.51100000000E-03 0.  1.
        -11    1    3    3    0    0  0.21952645340E+02  0.11951684922E+01  0.24928591426E+01  0.22126034713E+02  0.51100000000E-03 0. -1.
        -12    1    3    3    0    0  0.64758381999E+01  0.30118612547E+01  0.11573456186E+02  0.13599730758E+02  0.00000000000E+00 0.  1.
</event>
<event>
 7    1  0.2497395E-009  0.4778727E+02  0.7816164E-02  0.1312668E+00
        -11   -1    0    0    0    0  0.00000000000E+00  0.00000000000E+00  0.45593999997E+02  0.45594000000E+02  0.51100000000E-03 0. -1.
         11   -1    0    0    0    0 -0.00000000000E+00 -0.00000000000E+00 -0.45593999997E+02  0.45594000000E+02  0.51100000000E-03 0.  1.
    9900012    2    1    2    0    0 -0.12965570236E+02  0.45437821466E+01  0.41168813997E+02  0.47787271738E+02  0.20000003160E+02 0.  0.
        -12    1    1    2    0    0  0.12965570236E+02 -0.45437821466E+01 -0.41168813997E+02  0.43400728262E+02  0.00000000000E+00 0.  1.
         11    1    3    3    0    0 -0.89082018319E+01 -0.51747211136E+00  0.14689231440E+02  0.17187127678E+02  0.51100000000E-03 0. -1.
        -11    1    3    3    0    0 -0.29896551689E+01  0.90402161992E+01  0.10844681408E+02  0.14431585570E+02  0.51100000000E-03 0.  1.
        -12    1    3    3    0    0 -0.10677132356E+01 -0.39789619413E+01  0.15634901149E+02  0.16168558489E+02  0.00000000000E+00 0.  1.
</event>
<event>
 7    1  0.2497395E-009  0.4778727E+02  0.7816164E-02  0.1312668E+00
        -11   -1    0    0    0    0  0.00000000000E+00  0.00000000000E+00  0.45593999997E+02  0.45594000000E+02  0.51100000000E-03 0. -1.
         11   -1    0    0    0    0 -0.00000000000E+00 -0.00000000000E+00 -0.45593999997E+02  0.45594000000E+02  0.51100000000E-03 0.  1.
    9900012    2    1    2    0    0  0.26454637968E+02  0.19026735630E+02  0.28666331154E+02  0.47787273271E+02  0.20000010152E+02 0.  0.
        -12    1    1    2    0    0 -0.26454637968E+02 -0.19026735630E+02 -0.28666331154E+02  0.43400726729E+02  0.00000000000E+00 0.  1.
         11    1    3    3    0    0  0.15273413784E+02 -0.63408349875E+00  0.13055015567E+02  0.20102553624E+02  0.51100000000E-03 0. -1.
        -11    1    3    3    0    0  0.69737070467E+01  0.14092860842E+02  0.12282949466E+02  0.19952748295E+02  0.51100000000E-03 0.  1.
         12    1    3    3    0    0  0.42075171374E+01  0.55679582866E+01  0.33283661215E+01  0.77319713516E+01  0.00000000000E+00 0. -1.
</event>
<event>
 7    1  0.2497395E-009  0.4778727E+02  0.7816164E-02  0.1312668E+00
        -11   -1    0    0    0    0  0.00000000000E+00  0.00000000000E+00  0.45593999997E+02  0.45594000000E+02  0.51100000000E-03 0.  1.
         11   -1    0    0    0    0 -0.00000000000E+00 -0.00000000000E+00 -0.45593999997E+02  0.45594000000E+02  0.51100000000E-03 0. -1.
    9900012    2    1    2    0    0  0.24036351196E+02  0.25491619883E+02 -0.25613556336E+02  0.47787272688E+02  0.20000007493E+02 0.  0.
        -12    1    1    2    0    0 -0.24036351196E+02 -0.25491619883E+02  0.25613556336E+02  0.43400727312E+02  0.00000000000E+00 0.  1.
         11    1    3    3    0    0  0.13671001998E+02  0.41322153516E+01 -0.11768949267E+02  0.18506206160E+02  0.51100000000E-03 0. -1.
        -11    1    3    3    0    0 -0.78250243964E+00  0.93830796731E+01 -0.56672950375E+01  0.10989664577E+02  0.51100000000E-03 0.  1.
         12    1    3    3    0    0  0.11147851638E+02  0.11976324858E+02 -0.81773120315E+01  0.18291401950E+02  0.00000000000E+00 0. -1.
</event>
<event>
 7    1  0.2497395E-009  0.4778727E+02  0.7816164E-02  0.1312668E+00
        -11   -1    0    0    0    0  0.00000000000E+00  0.00000000000E+00  0.45593999997E+02  0.45594000000E+02  0.51100000000E-03 0.  1.
         11   -1    0    0    0    0 -0.00000000000E+00 -0.00000000000E+00 -0.45593999997E+02  0.45594000000E+02  0.51100000000E-03 0. -1.
    9900012    2    1    2    0    0 -0.29282239801E+02  0.20026966217E+02 -0.25001888959E+02  0.47787269647E+02  0.19999993630E+02 0.  0.
        -12    1    1    2    0    0  0.29282239801E+02 -0.20026966217E+02  0.25001888959E+02  0.43400730353E+02  0.00000000000E+00 0.  1.
         11    1    3    3    0    0 -0.68643028537E+01 -0.43018155688E+00 -0.13277819796E+02  0.14953401239E+02  0.51100000000E-03 0. -1.
        -11    1    3    3    0    0 -0.51585940689E+01  0.25386431689E+01 -0.28744801664E+01  0.64279420030E+01  0.51100000000E-03 0.  1.
         12    1    3    3    0    0 -0.17259342879E+02  0.17918504605E+02 -0.88495889966E+01  0.26405926405E+02  0.00000000000E+00 0. -1.
</event>
<event>
 7    1  0.2497395E-009  0.4778726E+02  0.7816164E-02  0.1312668E+00
        -11   -1    0    0    0    0  0.00000000000E+00  0.00000000000E+00  0.45593999997E+02  0.45594000000E+02  0.51100000000E-03 0. -1.
         11   -1    0    0    0    0 -0.00000000000E+00 -0.00000000000E+00 -0.45593999997E+02  0.45594000000E+02  0.51100000000E-03 0.  1.
    9900012    2    1    2    0    0  0.25277968000E+02  0.71650030892E+01  0.34544342732E+02  0.47787256340E+02  0.19999932957E+02 0.  0.
        -12    1    1    2    0    0 -0.25277968000E+02 -0.71650030892E+01 -0.34544342732E+02  0.43400743660E+02  0.00000000000E+00 0.  1.
         11    1    3    3    0    0  0.21272049563E+02  0.71420340267E+01  0.26763989909E+02  0.34925920156E+02  0.51100000000E-03 0. -1.
        -11    1    3    3    0    0  0.25914200703E+01  0.33906349138E+01  0.14442365886E-02  0.42675362268E+01  0.51100000000E-03 0.  1.
         12    1    3    3    0    0  0.14144983669E+01 -0.33676658514E+01  0.77789085859E+01  0.85937999572E+01  0.00000000000E+00 0. -1.
</event>
<event>
 7    1  0.2497395E-009  0.4778727E+02  0.7816164E-02  0.1312668E+00
        -11   -1    0    0    0    0  0.00000000000E+00  0.00000000000E+00  0.45593999997E+02  0.45594000000E+02  0.51100000000E-03 0.  1.
         11   -1    0    0    0    0 -0.00000000000E+00 -0.00000000000E+00 -0.45593999997E+02  0.45594000000E+02  0.51100000000E-03 0. -1.
    9900012    2    1    2    0    0  0.39098315903E+02  0.16913080743E+02  0.83001601625E+01  0.47787271142E+02  0.20000000446E+02 0.  0.
        -12    1    1    2    0    0 -0.39098315903E+02 -0.16913080743E+02 -0.83001601625E+01  0.43400728858E+02  0.00000000000E+00 0.  1.
         11    1    3    3    0    0  0.15780203285E+02 -0.96341346162E+00  0.90616719777E+01  0.18222427953E+02  0.51100000000E-03 0. -1.
        -11    1    3    3    0    0  0.11676408614E+02  0.10594820811E+02  0.50782783210E+00  0.15774873550E+02  0.51100000000E-03 0.  1.
         12    1    3    3    0    0  0.11641704003E+02  0.72816733938E+01 -0.12693396473E+01  0.13789969639E+02  0.00000000000E+00 0. -1.
</event>
<event>
 7    1  0.2497395E-009  0.4778727E+02  0.7816164E-02  0.1312668E+00
        -11   -1    0    0    0    0  0.00000000000E+00  0.00000000000E+00  0.45593999997E+02  0.45594000000E+02  0.51100000000E-03 0.  1.
         11   -1    0    0    0    0 -0.00000000000E+00 -0.00000000000E+00 -0.45593999997E+02  0.45594000000E+02  0.51100000000E-03 0. -1.
    9900012    2    1    2    0    0 -0.14158364873E+02  0.31155447974E+02 -0.26692740521E+02  0.47787266932E+02  0.19999981248E+02 0.  0.
        -12    1    1    2    0    0  0.14158364873E+02 -0.31155447974E+02  0.26692740521E+02  0.43400733068E+02  0.00000000000E+00 0.  1.
         11    1    3    3    0    0 -0.83645022307E+00  0.23568138387E+02 -0.18734035502E+02  0.30118447544E+02  0.51100000000E-03 0. -1.
        -11    1    3    3    0    0 -0.42886396314E+01  0.57831516782E+00 -0.18578716614E+01  0.47094124573E+01  0.51100000000E-03 0.  1.
         12    1    3    3    0    0 -0.90332750188E+01  0.70089944198E+01 -0.61008333574E+01  0.12959406931E+02  0.00000000000E+00 0. -1.
</event>
<event>
 7    1  0.2497395E-009  0.4778727E+02  0.7816164E-02  0.1312668E+00
        -11   -1    0    0    0    0  0.00000000000E+00  0.00000000000E+00  0.45593999997E+02  0.45594000000E+02  0.51100000000E-03 0. -1.
         11   -1    0    0    0    0 -0.00000000000E+00 -0.00000000000E+00 -0.45593999997E+02  0.45594000000E+02  0.51100000000E-03 0.  1.
    9900012    2    1    2    0    0  0.74029282177E+01  0.68427215508E+01  0.42213706225E+02  0.47787272153E+02  0.20000005056E+02 0.  0.
        -12    1    1    2    0    0 -0.74029282177E+01 -0.68427215508E+01 -0.42213706225E+02  0.43400727847E+02  0.00000000000E+00 0.  1.
         11    1    3    3    0    0  0.16682561504E+01  0.44867193655E+01  0.35872296559E+01  0.59818012432E+01  0.51100000000E-03 0. -1.
        -11    1    3    3    0    0 -0.41060009868E+01  0.28548367901E+01  0.21242459681E+02  0.21823185624E+02  0.51100000000E-03 0.  1.
        -12    1    3    3    0    0  0.98406730541E+01 -0.49883460482E+00  0.17384016888E+02  0.19982285286E+02  0.00000000000E+00 0.  1.
</event>
<event>
 7    1  0.2497395E-009  0.4778725E+02  0.7816164E-02  0.1312668E+00
        -11   -1    0    0    0    0  0.00000000000E+00  0.00000000000E+00  0.45593999997E+02  0.45594000000E+02  0.51100000000E-03 0.  1.
         11   -1    0    0    0    0 -0.00000000000E+00 -0.00000000000E+00 -0.45593999997E+02  0.45594000000E+02  0.51100000000E-03 0. -1.
    9900012    2    1    2    0    0 -0.15451200566E+02 -0.38084536535E+02 -0.13944675544E+02  0.47787245421E+02  0.19999883171E+02 0.  0.
        -12    1    1    2    0    0  0.15451200566E+02  0.38084536535E+02  0.13944675544E+02  0.43400754579E+02  0.00000000000E+00 0.  1.
         11    1    3    3    0    0 -0.47902184693E+00 -0.30829734134E+01 -0.79968929860E+01  0.85839667222E+01  0.51100000000E-03 0. -1.
        -11    1    3    3    0    0 -0.11774684947E+02 -0.28856119170E+02 -0.20005489023E+01  0.31230129928E+02  0.51100000000E-03 0.  1.
        -12    1    3    3    0    0 -0.31974937715E+01 -0.61454439521E+01 -0.39472336561E+01  0.79731487709E+01  0.00000000000E+00 0.  1.
</event>
<event>
 7    1  0.2497395E-009  0.4778727E+02  0.7816164E-02  0.1312668E+00
        -11   -1    0    0    0    0  0.00000000000E+00  0.00000000000E+00  0.45593999997E+02  0.45594000000E+02  0.51100000000E-03 0. -1.
         11   -1    0    0    0    0 -0.00000000000E+00 -0.00000000000E+00 -0.45593999997E+02  0.45594000000E+02  0.51100000000E-03 0.  1.
    9900012    2    1    2    0    0  0.32969205864E+02  0.44497986546E+01  0.27872101479E+02  0.47787270925E+02  0.19999999457E+02 0.  0.
        -12    1    1    2    0    0 -0.32969205864E+02 -0.44497986546E+01 -0.27872101479E+02  0.43400729075E+02  0.00000000000E+00 0.  1.
         11    1    3    3    0    0  0.28037570263E+01 -0.46230753032E+01  0.30814155721E+01  0.62232628830E+01  0.51100000000E-03 0. -1.
        -11    1    3    3    0    0  0.18581966908E+01  0.42440463219E+01  0.30600578423E+01  0.55523669173E+01  0.51100000000E-03 0.  1.
         12    1    3    3    0    0  0.28307252147E+02  0.48288276359E+01  0.21730628065E+02  0.36011641125E+02  0.00000000000E+00 0. -1.
</event>
<event>
 7    1  0.2497395E-009  0.4778727E+02  0.7816164E-02  0.1312668E+00
        -11   -1    0    0    0    0  0.00000000000E+00  0.00000000000E+00  0.45593999997E+02  0.45594000000E+02  0.51100000000E-03 0.  1.
         11   -1    0    0    0    0 -0.00000000000E+00 -0.00000000000E+00 -0.45593999997E+02  0.45594000000E+02  0.51100000000E-03 0. -1.
    9900012    2    1    2    0    0  0.96060053497E+01  0.32061194377E+02 -0.27630193043E+02  0.47787273148E+02  0.20000009592E+02 0.  0.
        -12    1    1    2    0    0 -0.96060053497E+01 -0.32061194377E+02  0.27630193043E+02  0.43400726852E+02  0.00000000000E+00 0.  1.
         11    1    3    3    0    0 -0.83441817911E+00  0.16472442904E+01 -0.35999895480E+01  0.40459353006E+01  0.51100000000E-03 0. -1.
        -11    1    3    3    0    0  0.61518457096E+01  0.42084875589E+00 -0.52198163295E+01  0.80789109467E+01  0.51100000000E-03 0.  1.
        -12    1    3    3    0    0  0.42885778192E+01  0.29993101331E+02 -0.18810387165E+02  0.35662426901E+02  0.00000000000E+00 0.  1.
</event>
<event>
 7    1  0.2497395E-009  0.4778727E+02  0.7816164E-02  0.1312668E+00
        -11   -1    0    0    0    0  0.00000000000E+00  0.00000000000E+00  0.45593999997E+02  0.45594000000E+02  0.51100000000E-03 0. -1.
         11   -1    0    0    0    0 -0.00000000000E+00 -0.00000000000E+00 -0.45593999997E+02  0.45594000000E+02  0.51100000000E-03 0.  1.
    9900012    2    1    2    0    0 -0.11616135031E+02  0.27175282241E+02  0.31783526174E+02  0.47787273116E+02  0.20000009446E+02 0.  0.
        -12    1    1    2    0    0  0.11616135031E+02 -0.27175282241E+02 -0.31783526174E+02  0.43400726884E+02  0.00000000000E+00 0.  1.
         11    1    3    3    0    0  0.46780341600E+00 -0.34745725558E+00  0.36713913062E+00  0.68873651190E+00  0.51100000000E-03 0. -1.
        -11    1    3    3    0    0 -0.56198117696E+01 -0.37281501987E+00  0.18239192276E+01  0.59201314998E+01  0.51100000000E-03 0.  1.
        -12    1    3    3    0    0 -0.64641266778E+01  0.27895554517E+02  0.29592467816E+02  0.41178405105E+02  0.00000000000E+00 0.  1.
</event>
<event>
 7    1  0.2497395E-009  0.4778727E+02  0.7816164E-02  0.1312668E+00
        -11   -1    0    0    0    0  0.00000000000E+00  0.00000000000E+00  0.45593999997E+02  0.45594000000E+02  0.51100000000E-03 0.  1.
         11   -1    0    0    0    0 -0.00000000000E+00 -0.00000000000E+00 -0.45593999997E+02  0.45594000000E+02  0.51100000000E-03 0. -1.
    9900012    2    1    2    0    0 -0.11907572841E+02  0.19976482211E+02 -0.36643871878E+02  0.47787268685E+02  0.19999989243E+02 0.  0.
        -12    1    1    2    0    0  0.11907572841E+02 -0.19976482211E+02  0.36643871878E+02  0.43400731315E+02  0.00000000000E+00 0.  1.
         11    1    3    3    0    0 -0.84675334826E+01  0.77723110644E+01 -0.37364334013E+01  0.12085895804E+02  0.51100000000E-03 0. -1.
        -11    1    3    3    0    0  0.11040928682E+01  0.38882726933E+01 -0.13693371947E+02  0.14277469003E+02  0.51100000000E-03 0.  1.
        -12    1    3    3    0    0 -0.45441322265E+01  0.83158984534E+01 -0.19214066529E+02  0.21423903878E+02  0.00000000000E+00 0.  1.
</event>
<event>
 7    1  0.2497395E-009  0.4778727E+02  0.7816164E-02  0.1312668E+00
        -11   -1    0    0    0    0  0.00000000000E+00  0.00000000000E+00  0.45593999997E+02  0.45594000000E+02  0.51100000000E-03 0. -1.
         11   -1    0    0    0    0 -0.00000000000E+00 -0.00000000000E+00 -0.45593999997E+02  0.45594000000E+02  0.51100000000E-03 0.  1.
    9900012    2    1    2    0    0  0.19561145475E+02 -0.29335383339E+01  0.38631327054E+02  0.47787268561E+02  0.19999988679E+02 0.  0.
        -12    1    1    2    0    0 -0.19561145475E+02  0.29335383339E+01 -0.38631327054E+02  0.43400731439E+02  0.00000000000E+00 0.  1.
         11    1    3    3    0    0  0.46453168183E+01  0.67079685371E+01  0.19082979395E+02  0.20754178208E+02  0.51100000000E-03 0. -1.
        -11    1    3    3    0    0  0.84247607022E+01 -0.85610988523E+01  0.11404424572E+02  0.16562907551E+02  0.51100000000E-03 0.  1.
        -12    1    3    3    0    0  0.64910679548E+01 -0.10804080187E+01  0.81439230862E+01  0.10470182802E+02  0.00000000000E+00 0.  1.
</event>
<event>
 7    1  0.2497395E-009  0.4778727E+02  0.7816164E-02  0.1312668E+00
        -11   -1    0    0    0    0  0.00000000000E+00  0.00000000000E+00  0.45593999997E+02  0.45594000000E+02  0.51100000000E-03 0. -1.
         11   -1    0    0    0    0 -0.00000000000E+00 -0.00000000000E+00 -0.45593999997E+02  0.45594000000E+02  0.51100000000E-03 0.  1.
    9900012    2    1    2    0    0 -0.33530013979E+01  0.40031819499E+02  0.16426627761E+02  0.47787270854E+02  0.19999999131E+02 0.  0.
        -12    1    1    2    0    0  0.33530013979E+01 -0.40031819499E+02 -0.16426627761E+02  0.43400729146E+02  0.00000000000E+00 0.  1.
         11    1    3    3    0    0 -0.22740737878E+01  0.10076617620E+02  0.12287699656E+01  0.10402860671E+02  0.51100000000E-03 0. -1.
        -11    1    3    3    0    0  0.89226814547E+00  0.46199913902E+01 -0.34752602297E+01  0.58496065521E+01  0.51100000000E-03 0.  1.
        -12    1    3    3    0    0 -0.19711957556E+01  0.25335210490E+02  0.18673118025E+02  0.31534803631E+02  0.00000000000E+00 0.  1.
</event>
<event>
 7    1  0.2497395E-009  0.4778727E+02  0.7816164E-02  0.1312668E+00
        -11   -1    0    0    0    0  0.00000000000E+00  0.00000000000E+00  0.45593999997E+02  0.45594000000E+02  0.51100000000E-03 0.  1.
         11   -1    0    0    0    0 -0.00000000000E+00 -0.00000000000E+00 -0.45593999997E+02  0.45594000000E+02  0.51100000000E-03 0. -1.
    9900012    2    1    2    0    0 -0.25349870334E+02 -0.33228137294E+02 -0.11700346705E+02  0.47787272506E+02  0.20000006665E+02 0.  0.
        -12    1    1    2    0    0  0.25349870334E+02  0.33228137294E+02  0.11700346705E+02  0.43400727494E+02  0.00000000000E+00 0.  1.
         11    1    3    3    0    0 -0.58792641393E+01 -0.74085945037E+01 -0.92452624010E+01  0.13226031017E+02  0.51100000000E-03 0. -1.
        -11    1    3    3    0    0 -0.18978137204E+02 -0.18749088180E+02  0.95758003343E+00  0.26694848925E+02  0.51100000000E-03 0.  1.
        -12    1    3    3    0    0 -0.49246899010E+00 -0.70704546099E+01 -0.34126643374E+01  0.78663925644E+01  0.00000000000E+00 0.  1.
</event>
<event>
 7    1  0.2497395E-009  0.4778728E+02  0.7816164E-02  0.1312668E+00
        -11   -1    0    0    0    0  0.00000000000E+00  0.00000000000E+00  0.45593999997E+02  0.45594000000E+02  0.51100000000E-03 0.  1.
         11   -1    0    0    0    0 -0.00000000000E+00 -0.00000000000E+00 -0.45593999997E+02  0.45594000000E+02  0.51100000000E-03 0. -1.
    9900012    2    1    2    0    0 -0.40756555544E+02 -0.12548228797E+02 -0.80664689106E+01  0.47787276660E+02  0.20000025602E+02 0.  0.
        -12    1    1    2    0    0  0.40756555544E+02  0.12548228797E+02  0.80664689106E+01  0.43400723340E+02  0.00000000000E+00 0.  1.
         11    1    3    3    0    0 -0.23355618239E+02  0.11391751728E+00 -0.70560671884E+01  0.24398482841E+02  0.51100000000E-03 0. -1.
        -11    1    3    3    0    0 -0.12633182378E+00 -0.37800640704E+01  0.84711872523E+00  0.38758811258E+01  0.51100000000E-03 0.  1.
         12    1    3    3    0    0 -0.17274605482E+02 -0.88820822444E+01 -0.18575204475E+01  0.19512912693E+02  0.00000000000E+00 0. -1.
</event>
<event>
 7    1  0.2497395E-009  0.4778728E+02  0.7816164E-02  0.1312668E+00
        -11   -1    0    0    0    0  0.00000000000E+00  0.00000000000E+00  0.45593999997E+02  0.45594000000E+02  0.51100000000E-03 0.  1.
         11   -1    0    0    0    0 -0.00000000000E+00 -0.00000000000E+00 -0.45593999997E+02  0.45594000000E+02  0.51100000000E-03 0. -1.
    9900012    2    1    2    0    0  0.50946533055E+01  0.28026340509E+02 -0.32744333089E+02  0.47787278761E+02  0.20000035184E+02 0.  0.
        -12    1    1    2    0    0 -0.50946533055E+01 -0.28026340509E+02  0.32744333089E+02  0.43400721239E+02  0.00000000000E+00 0.  1.
         11    1    3    3    0    0  0.64494049608E+01  0.13318874657E+02 -0.22998793985E+02  0.27348341293E+02  0.51100000000E-03 0. -1.
        -11    1    3    3    0    0 -0.26626528314E+01  0.36056540515E+01  0.13575609028E+01  0.46833143291E+01  0.51100000000E-03 0.  1.
         12    1    3    3    0    0  0.13079011760E+01  0.11101811800E+02 -0.11103100007E+02  0.15755623139E+02  0.00000000000E+00 0. -1.
</event>
<event>
 7    1  0.2497395E-009  0.4778728E+02  0.7816164E-02  0.1312668E+00
        -11   -1    0    0    0    0  0.00000000000E+00  0.00000000000E+00  0.45593999997E+02  0.45594000000E+02  0.51100000000E-03 0.  1.
         11   -1    0    0    0    0 -0.00000000000E+00 -0.00000000000E+00 -0.45593999997E+02  0.45594000000E+02  0.51100000000E-03 0. -1.
    9900012    2    1    2    0    0 -0.33113825097E+02 -0.86205783062E+01 -0.26697998043E+02  0.47787275555E+02  0.20000020565E+02 0.  0.
        -12    1    1    2    0    0  0.33113825097E+02  0.86205783062E+01  0.26697998043E+02  0.43400724445E+02  0.00000000000E+00 0.  1.
         11    1    3    3    0    0 -0.19249329561E+02  0.44762262992E+01 -0.13902762952E+02  0.24163197396E+02  0.51100000000E-03 0. -1.
        -11    1    3    3    0    0 -0.11260409021E+02 -0.11548982537E+02 -0.81337207059E+01  0.18064695451E+02  0.51100000000E-03 0.  1.
        -12    1    3    3    0    0 -0.26040865145E+01 -0.15478220687E+01 -0.46615143849E+01  0.55593827079E+01  0.00000000000E+00 0.  1.
</event>
<event>
 7    1  0.2497395E-009  0.4778727E+02  0.7816164E-02  0.1312668E+00
        -11   -1    0    0    0    0  0.00000000000E+00  0.00000000000E+00  0.45593999997E+02  0.45594000000E+02  0.51100000000E-03 0.  1.
         11   -1    0    0    0    0 -0.00000000000E+00 -0.00000000000E+00 -0.45593999997E+02  0.45594000000E+02  0.51100000000E-03 0. -1.
    9900012    2    1    2    0    0  0.16587044777E+02  0.34935448459E+02 -0.19697921301E+02  0.47787265939E+02  0.19999976721E+02 0.  0.
        -12    1    1    2    0    0 -0.16587044777E+02 -0.34935448459E+02  0.19697921301E+02  0.43400734061E+02  0.00000000000E+00 0.  1.
         11    1    3    3    0    0 -0.22125839638E+01  0.12351877296E+02 -0.31682788030E+01  0.12942271491E+02  0.51100000000E-03 0.  1.
        -11    1    3    3    0    0  0.26392601275E+01  0.26514200704E+01  0.87117216287E+00  0.38411799761E+01  0.51100000000E-03 0. -1.
         12    1    3    3    0    0  0.16160368613E+02  0.19932151094E+02 -0.17400814660E+02  0.31003814471E+02  0.00000000000E+00 0. -1.
</event>
<event>
 7    1  0.2497395E-009  0.4778727E+02  0.7816164E-02  0.1312668E+00
        -11   -1    0    0    0    0  0.00000000000E+00  0.00000000000E+00  0.45593999997E+02  0.45594000000E+02  0.51100000000E-03 0.  1.
         11   -1    0    0    0    0 -0.00000000000E+00 -0.00000000000E+00 -0.45593999997E+02  0.45594000000E+02  0.51100000000E-03 0. -1.
    9900012    2    1    2    0    0  0.70026602366E+01 -0.25455774573E+02 -0.34446913356E+02  0.47787267872E+02  0.19999985536E+02 0.  0.
        -12    1    1    2    0    0 -0.70026602366E+01  0.25455774573E+02  0.34446913356E+02  0.43400732128E+02  0.00000000000E+00 0.  1.
         11    1    3    3    0    0  0.41317445792E+01 -0.10489549115E+02 -0.13587444313E+02  0.17655610924E+02  0.51100000000E-03 0. -1.
        -11    1    3    3    0    0 -0.53574451254E+01 -0.12739485237E+01 -0.34232570274E+01  0.64841230748E+01  0.51100000000E-03 0.  1.
        -12    1    3    3    0    0  0.82283607828E+01 -0.13692276934E+02 -0.17436212016E+02  0.23647533873E+02  0.00000000000E+00 0.  1.
</event>
<event>
 7    1  0.2497395E-009  0.4778727E+02  0.7816164E-02  0.1312668E+00
        -11   -1    0    0    0    0  0.00000000000E+00  0.00000000000E+00  0.45593999997E+02  0.45594000000E+02  0.51100000000E-03 0.  1.
         11   -1    0    0    0    0 -0.00000000000E+00 -0.00000000000E+00 -0.45593999997E+02  0.45594000000E+02  0.51100000000E-03 0. -1.
    9900012    2    1    2    0    0  0.24634132298E+02 -0.56430500974E+00 -0.35727642794E+02  0.47787269893E+02  0.19999994749E+02 0.  0.
        -12    1    1    2    0    0 -0.24634132298E+02  0.56430500974E+00  0.35727642794E+02  0.43400730107E+02  0.00000000000E+00 0.  1.
         11    1    3    3    0    0  0.15028632284E+02  0.31455527513E+01 -0.23869810252E+02  0.28381721797E+02  0.51100000000E-03 0. -1.
        -11    1    3    3    0    0  0.47327179397E+01 -0.72430590018E+01 -0.97325809330E+01  0.13022428909E+02  0.51100000000E-03 0.  1.
        -12    1    3    3    0    0  0.48727820745E+01  0.35332012408E+01 -0.21252516088E+01  0.63831191869E+01  0.00000000000E+00 0.  1.
</event>
<event>
 7    1  0.2497395E-009  0.4778727E+02  0.7816164E-02  0.1312668E+00
        -11   -1    0    0    0    0  0.00000000000E+00  0.00000000000E+00  0.45593999997E+02  0.45594000000E+02  0.51100000000E-03 0. -1.
         11   -1    0    0    0    0 -0.00000000000E+00 -0.00000000000E+00 -0.45593999997E+02  0.45594000000E+02  0.51100000000E-03 0.  1.
    9900012    2    1    2    0    0  0.33541334547E+02  0.19310442390E+02  0.19639469088E+02  0.47787273571E+02  0.20000011520E+02 0.  0.
        -12    1    1    2    0    0 -0.33541334547E+02 -0.19310442390E+02 -0.19639469088E+02  0.43400726429E+02  0.00000000000E+00 0.  1.
         11    1    3    3    0    0  0.10956283413E+01  0.69662465805E+01  0.30380361433E+01  0.76784540600E+01  0.51100000000E-03 0.  1.
        -11    1    3    3    0    0  0.23940612563E+02  0.12782428730E+02  0.16148661035E+02  0.31580415887E+02  0.51100000000E-03 0. -1.
        -12    1    3    3    0    0  0.85050936429E+01 -0.43823292070E+00  0.45277190979E+00  0.85284036237E+01  0.00000000000E+00 0.  1.
</event>
<event>
 7    1  0.2497395E-009  0.4778728E+02  0.7816164E-02  0.1312668E+00
        -11   -1    0    0    0    0  0.00000000000E+00  0.00000000000E+00  0.45593999997E+02  0.45594000000E+02  0.51100000000E-03 0.  1.
         11   -1    0    0    0    0 -0.00000000000E+00 -0.00000000000E+00 -0.45593999997E+02  0.45594000000E+02  0.51100000000E-03 0. -1.
    9900012    2    1    2    0    0 -0.70854271515E+01  0.14583759166E+02 -0.40258334179E+02  0.47787276732E+02  0.20000025932E+02 0.  0.
        -12    1    1    2    0    0  0.70854271515E+01 -0.14583759166E+02  0.40258334179E+02  0.43400723268E+02  0.00000000000E+00 0.  1.
         11    1    3    3    0    0  0.85435054642E+00  0.42559145767E+01 -0.68070809143E+01  0.80733558435E+01  0.51100000000E-03 0. -1.
        -11    1    3    3    0    0 -0.83518590635E+01  0.34106427592E+01 -0.47648452409E+01  0.10202440114E+02  0.51100000000E-03 0.  1.
        -12    1    3    3    0    0  0.41208136563E+00  0.69172018305E+01 -0.28686408023E+02  0.29511480775E+02  0.00000000000E+00 0.  1.
</event>
<event>
 7    1  0.2497395E-009  0.4778727E+02  0.7816164E-02  0.1312668E+00
        -11   -1    0    0    0    0  0.00000000000E+00  0.00000000000E+00  0.45593999997E+02  0.45594000000E+02  0.51100000000E-03 0.  1.
         11   -1    0    0    0    0 -0.00000000000E+00 -0.00000000000E+00 -0.45593999997E+02  0.45594000000E+02  0.51100000000E-03 0. -1.
    9900012    2    1    2    0    0  0.36121904526E+02 -0.21351386987E+02 -0.11088282485E+02  0.47787265889E+02  0.19999976496E+02 0.  0.
        -12    1    1    2    0    0 -0.36121904526E+02  0.21351386987E+02  0.11088282485E+02  0.43400734111E+02  0.00000000000E+00 0.  1.
         11    1    3    3    0    0  0.13580684178E+02 -0.14852766973E+02 -0.99624448155E+01  0.22456401681E+02  0.51100000000E-03 0. -1.
        -11    1    3    3    0    0  0.20612193534E+02 -0.74533527820E+01 -0.34217145558E+01  0.22183848195E+02  0.51100000000E-03 0.  1.
         12    1    3    3    0    0  0.19290268140E+01  0.95473276864E+00  0.22958768862E+01  0.31470160129E+01  0.00000000000E+00 0. -1.
</event>
<event>
 7    1  0.2497395E-009  0.4778727E+02  0.7816164E-02  0.1312668E+00
        -11   -1    0    0    0    0  0.00000000000E+00  0.00000000000E+00  0.45593999997E+02  0.45594000000E+02  0.51100000000E-03 0.  1.
         11   -1    0    0    0    0 -0.00000000000E+00 -0.00000000000E+00 -0.45593999997E+02  0.45594000000E+02  0.51100000000E-03 0. -1.
    9900012    2    1    2    0    0 -0.41027483010E+02  0.13664808147E+02  0.36935283364E+01  0.47787268492E+02  0.19999988364E+02 0.  0.
        -12    1    1    2    0    0  0.41027483010E+02 -0.13664808147E+02 -0.36935283364E+01  0.43400731508E+02  0.00000000000E+00 0.  1.
         11    1    3    3    0    0 -0.62407920963E+01  0.35899649970E+01 -0.20298228162E+01  0.74803419437E+01  0.51100000000E-03 0. -1.
        -11    1    3    3    0    0 -0.14006201902E+02 -0.23147094696E+01 -0.31428400428E+01  0.14539911122E+02  0.51100000000E-03 0.  1.
        -12    1    3    3    0    0 -0.20780489012E+02  0.12389552619E+02  0.88661911954E+01  0.25767015427E+02  0.00000000000E+00 0.  1.
</event>
<event>
 7    1  0.2497395E-009  0.4778727E+02  0.7816164E-02  0.1312668E+00
        -11   -1    0    0    0    0  0.00000000000E+00  0.00000000000E+00  0.45593999997E+02  0.45594000000E+02  0.51100000000E-03 0. -1.
         11   -1    0    0    0    0 -0.00000000000E+00 -0.00000000000E+00 -0.45593999997E+02  0.45594000000E+02  0.51100000000E-03 0.  1.
    9900012    2    1    2    0    0 -0.22787440134E+02  0.15571219256E+02  0.33494669711E+02  0.47787271942E+02  0.20000004091E+02 0.  0.
        -12    1    1    2    0    0  0.22787440134E+02 -0.15571219256E+02 -0.33494669711E+02  0.43400728058E+02  0.00000000000E+00 0.  1.
         11    1    3    3    0    0 -0.12724264212E+02  0.22813722600E+01  0.25894148631E+02  0.28941639427E+02  0.51100000000E-03 0. -1.
        -11    1    3    3    0    0 -0.67702809881E+01  0.70228516657E+01  0.23563136215E+01  0.10035405538E+02  0.51100000000E-03 0.  1.
         12    1    3    3    0    0 -0.32928949331E+01  0.62669953299E+01  0.52442074585E+01  0.88102269762E+01  0.00000000000E+00 0. -1.
</event>
<event>
 7    1  0.2497395E-009  0.4778727E+02  0.7816164E-02  0.1312668E+00
        -11   -1    0    0    0    0  0.00000000000E+00  0.00000000000E+00  0.45593999997E+02  0.45594000000E+02  0.51100000000E-03 0.  1.
         11   -1    0    0    0    0 -0.00000000000E+00 -0.00000000000E+00 -0.45593999997E+02  0.45594000000E+02  0.51100000000E-03 0. -1.
    9900012    2    1    2    0    0 -0.74056000467E+01 -0.11013796033E+02 -0.41321625951E+02  0.47787269748E+02  0.19999994091E+02 0.  0.
        -12    1    1    2    0    0  0.74056000467E+01  0.11013796033E+02  0.41321625951E+02  0.43400730252E+02  0.00000000000E+00 0.  1.
         11    1    3    3    0    0  0.51421814227E+01 -0.23345536101E+01 -0.20109557575E+02  0.20887471759E+02  0.51100000000E-03 0. -1.
        -11    1    3    3    0    0 -0.67855081588E+01 -0.26306533561E+01 -0.55621265010E+01  0.91597330489E+01  0.51100000000E-03 0.  1.
         12    1    3    3    0    0 -0.57622733106E+01 -0.60485890664E+01 -0.15649941875E+02  0.17740064940E+02  0.00000000000E+00 0. -1.
</event>
<event>
 7    1  0.2497395E-009  0.4778727E+02  0.7816164E-02  0.1312668E+00
        -11   -1    0    0    0    0  0.00000000000E+00  0.00000000000E+00  0.45593999997E+02  0.45594000000E+02  0.51100000000E-03 0.  1.
         11   -1    0    0    0    0 -0.00000000000E+00 -0.00000000000E+00 -0.45593999997E+02  0.45594000000E+02  0.51100000000E-03 0. -1.
    9900012    2    1    2    0    0 -0.19517167222E+02  0.34417671683E+02 -0.17836116876E+02  0.47787274134E+02  0.20000014088E+02 0.  0.
        -12    1    1    2    0    0  0.19517167222E+02 -0.34417671683E+02  0.17836116876E+02  0.43400725866E+02  0.00000000000E+00 0.  1.
         11    1    3    3    0    0 -0.14960903792E+01  0.14685963919E+02 -0.61003585536E+01  0.15972795541E+02  0.51100000000E-03 0. -1.
        -11    1    3    3    0    0 -0.19015449394E+02  0.18915081642E+02 -0.13176412714E+02  0.29882862671E+02  0.51100000000E-03 0.  1.
        -12    1    3    3    0    0  0.99437255138E+00  0.81662612262E+00  0.14406543912E+01  0.19316159220E+01  0.00000000000E+00 0.  1.
</event>
<event>
 7    1  0.2497395E-009  0.4778726E+02  0.7816164E-02  0.1312668E+00
        -11   -1    0    0    0    0  0.00000000000E+00  0.00000000000E+00  0.45593999997E+02  0.45594000000E+02  0.51100000000E-03 0.  1.
         11   -1    0    0    0    0 -0.00000000000E+00 -0.00000000000E+00 -0.45593999997E+02  0.45594000000E+02  0.51100000000E-03 0. -1.
    9900012    2    1    2    0    0  0.20825964972E+02  0.13556431323E+02 -0.35582669478E+02  0.47787262513E+02  0.19999961102E+02 0.  0.
        -12    1    1    2    0    0 -0.20825964972E+02 -0.13556431323E+02  0.35582669478E+02  0.43400737487E+02  0.00000000000E+00 0.  1.
         11    1    3    3    0    0  0.61376876463E+01 -0.29768599650E+01 -0.12211141639E+02  0.13987311582E+02  0.51100000000E-03 0. -1.
        -11    1    3    3    0    0  0.68601963925E+01  0.14817085762E+02 -0.14406114264E+02  0.21774858288E+02  0.51100000000E-03 0.  1.
         12    1    3    3    0    0  0.78280809333E+01  0.17162055258E+01 -0.89654135749E+01  0.12025092643E+02  0.00000000000E+00 0. -1.
</event>
<event>
 7    1  0.2497395E-009  0.4778727E+02  0.7816164E-02  0.1312668E+00
        -11   -1    0    0    0    0  0.00000000000E+00  0.00000000000E+00  0.45593999997E+02  0.45594000000E+02  0.51100000000E-03 0.  1.
         11   -1    0    0    0    0 -0.00000000000E+00 -0.00000000000E+00 -0.45593999997E+02  0.45594000000E+02  0.51100000000E-03 0. -1.
    9900012    2    1    2    0    0  0.10341276028E+02  0.20022811754E+02 -0.37091349495E+02  0.47787272036E+02  0.20000004522E+02 0.  0.
        -12    1    1    2    0    0 -0.10341276028E+02 -0.20022811754E+02  0.37091349495E+02  0.43400727964E+02  0.00000000000E+00 0.  1.
         11    1    3    3    0    0 -0.10089610066E+01  0.74325448921E+00 -0.31273582572E+01  0.33690947565E+01  0.51100000000E-03 0. -1.
        -11    1    3    3    0    0  0.19854705675E+01  0.42390506359E+01 -0.23242306836E+02  0.23708995571E+02  0.51100000000E-03 0.  1.
        -12    1    3    3    0    0  0.93647664671E+01  0.15040506629E+02 -0.10721684402E+02  0.20709181709E+02  0.00000000000E+00 0.  1.
</event>
<event>
 7    1  0.2497395E-009  0.4778727E+02  0.7816164E-02  0.1312668E+00
        -11   -1    0    0    0    0  0.00000000000E+00  0.00000000000E+00  0.45593999997E+02  0.45594000000E+02  0.51100000000E-03 0.  1.
         11   -1    0    0    0    0 -0.00000000000E+00 -0.00000000000E+00 -0.45593999997E+02  0.45594000000E+02  0.51100000000E-03 0. -1.
    9900012    2    1    2    0    0 -0.23118780677E+01 -0.27133154761E+02 -0.33794537362E+02  0.47787267023E+02  0.19999981664E+02 0.  0.
        -12    1    1    2    0    0  0.23118780677E+01  0.27133154761E+02  0.33794537362E+02  0.43400732977E+02  0.00000000000E+00 0.  1.
         11    1    3    3    0    0 -0.64238601791E+01 -0.98661737408E+01 -0.87559597801E+01  0.14672225319E+02  0.51100000000E-03 0. -1.
        -11    1    3    3    0    0 -0.27756257118E+01 -0.19159732378E+00 -0.12946221675E+01  0.30686893692E+01  0.51100000000E-03 0.  1.
         12    1    3    3    0    0  0.68876078233E+01 -0.17075383696E+02 -0.23743955414E+02  0.30046352334E+02  0.00000000000E+00 0. -1.
</event>
<event>
 7    1  0.2497395E-009  0.4778727E+02  0.7816164E-02  0.1312668E+00
        -11   -1    0    0    0    0  0.00000000000E+00  0.00000000000E+00  0.45593999997E+02  0.45594000000E+02  0.51100000000E-03 0.  1.
         11   -1    0    0    0    0 -0.00000000000E+00 -0.00000000000E+00 -0.45593999997E+02  0.45594000000E+02  0.51100000000E-03 0. -1.
    9900012    2    1    2    0    0  0.94138066253E+01 -0.59203876640E+01 -0.41951791509E+02  0.47787267793E+02  0.19999985176E+02 0.  0.
        -12    1    1    2    0    0 -0.94138066253E+01  0.59203876640E+01  0.41951791509E+02  0.43400732207E+02  0.00000000000E+00 0.  1.
         11    1    3    3    0    0  0.82978262771E+01  0.18343264420E+01 -0.81782239218E+01  0.11794151991E+02  0.51100000000E-03 0. -1.
        -11    1    3    3    0    0 -0.25436900310E+01 -0.51051607309E+01 -0.28425177956E+02  0.28991787927E+02  0.51100000000E-03 0.  1.
        -12    1    3    3    0    0  0.36596703792E+01 -0.26495533751E+01 -0.53483896309E+01  0.70013278752E+01  0.00000000000E+00 0.  1.
</event>
<event>
 7    1  0.2497395E-009  0.4778727E+02  0.7816164E-02  0.1312668E+00
        -11   -1    0    0    0    0  0.00000000000E+00  0.00000000000E+00  0.45593999997E+02  0.45594000000E+02  0.51100000000E-03 0.  1.
         11   -1    0    0    0    0 -0.00000000000E+00 -0.00000000000E+00 -0.45593999997E+02  0.45594000000E+02  0.51100000000E-03 0. -1.
    9900012    2    1    2    0    0  0.18611313272E+02 -0.27598229586E+02 -0.27849241968E+02  0.47787268022E+02  0.19999986221E+02 0.  0.
        -12    1    1    2    0    0 -0.18611313272E+02  0.27598229586E+02  0.27849241968E+02  0.43400731978E+02  0.00000000000E+00 0.  1.
         11    1    3    3    0    0  0.66986463867E+01 -0.13503607496E+02 -0.24309040080E+01  0.15268548503E+02  0.51100000000E-03 0. -1.
        -11    1    3    3    0    0  0.37474636289E+01 -0.18725250158E+01 -0.11643996235E+02  0.12374670993E+02  0.51100000000E-03 0.  1.
        -12    1    3    3    0    0  0.81652032567E+01 -0.12222097074E+02 -0.13774341724E+02  0.20144048527E+02  0.00000000000E+00 0.  1.
</event>
<event>
 7    1  0.2497395E-009  0.4778727E+02  0.7816164E-02  0.1312668E+00
        -11   -1    0    0    0    0  0.00000000000E+00  0.00000000000E+00  0.45593999997E+02  0.45594000000E+02  0.51100000000E-03 0. -1.
         11   -1    0    0    0    0 -0.00000000000E+00 -0.00000000000E+00 -0.45593999997E+02  0.45594000000E+02  0.51100000000E-03 0.  1.
    9900012    2    1    2    0    0 -0.40889675584E+02  0.20065799182E+01  0.14409416763E+02  0.47787271622E+02  0.20000002632E+02 0.  0.
        -12    1    1    2    0    0  0.40889675584E+02 -0.20065799182E+01 -0.14409416763E+02  0.43400728378E+02  0.00000000000E+00 0.  1.
         11    1    3    3    0    0 -0.31678817542E+02 -0.30329394999E+01  0.13476129709E+02  0.34559402123E+02  0.51100000000E-03 0. -1.
        -11    1    3    3    0    0  0.11431471689E+01  0.13799384160E+01  0.13417034663E+01  0.22385673844E+01  0.51100000000E-03 0.  1.
         12    1    3    3    0    0 -0.10354005210E+02  0.36595810020E+01 -0.40841641170E+00  0.10989302115E+02  0.00000000000E+00 0. -1.
</event>
<event>
 7    1  0.2497395E-009  0.4778727E+02  0.7816164E-02  0.1312668E+00
        -11   -1    0    0    0    0  0.00000000000E+00  0.00000000000E+00  0.45593999997E+02  0.45594000000E+02  0.51100000000E-03 0.  1.
         11   -1    0    0    0    0 -0.00000000000E+00 -0.00000000000E+00 -0.45593999997E+02  0.45594000000E+02  0.51100000000E-03 0. -1.
    9900012    2    1    2    0    0  0.20283595345E+02 -0.61550271047E+01 -0.37872349867E+02  0.47787268633E+02  0.19999989004E+02 0.  0.
        -12    1    1    2    0    0 -0.20283595345E+02  0.61550271047E+01  0.37872349867E+02  0.43400731367E+02  0.00000000000E+00 0.  1.
         11    1    3    3    0    0  0.18993232051E+02 -0.70625697631E+01 -0.23258468697E+02  0.30847676116E+02  0.51100000000E-03 0.  1.
        -11    1    3    3    0    0 -0.12606625048E+01 -0.16067672707E+01 -0.16004227473E+00  0.20485567612E+01  0.51100000000E-03 0. -1.
         12    1    3    3    0    0  0.25510257990E+01  0.25143099290E+01 -0.14453838895E+02  0.14891035755E+02  0.00000000000E+00 0. -1.
</event>
<event>
 7    1  0.2497395E-009  0.4778727E+02  0.7816164E-02  0.1312668E+00
        -11   -1    0    0    0    0  0.00000000000E+00  0.00000000000E+00  0.45593999997E+02  0.45594000000E+02  0.51100000000E-03 0. -1.
         11   -1    0    0    0    0 -0.00000000000E+00 -0.00000000000E+00 -0.45593999997E+02  0.45594000000E+02  0.51100000000E-03 0.  1.
    9900012    2    1    2    0    0 -0.22009621568E+02 -0.37323430498E+02  0.24821815156E+01  0.47787272693E+02  0.20000007517E+02 0.  0.
        -12    1    1    2    0    0  0.22009621568E+02  0.37323430498E+02 -0.24821815156E+01  0.43400727307E+02  0.00000000000E+00 0.  1.
         11    1    3    3    0    0 -0.19085623260E+02 -0.31354779609E+02 -0.35932124777E+01  0.36882169076E+02  0.51100000000E-03 0. -1.
        -11    1    3    3    0    0 -0.19973879999E+01 -0.66161454733E+01  0.66897629945E+01  0.96185169819E+01  0.51100000000E-03 0.  1.
         12    1    3    3    0    0 -0.92661030816E+00  0.64749458476E+00 -0.61436900125E+00  0.12865866353E+01  0.00000000000E+00 0. -1.
</event>
<event>
 7    1  0.2497395E-009  0.4778727E+02  0.7816164E-02  0.1312668E+00
        -11   -1    0    0    0    0  0.00000000000E+00  0.00000000000E+00  0.45593999997E+02  0.45594000000E+02  0.51100000000E-03 0.  1.
         11   -1    0    0    0    0 -0.00000000000E+00 -0.00000000000E+00 -0.45593999997E+02  0.45594000000E+02  0.51100000000E-03 0. -1.
    9900012    2    1    2    0    0  0.20812036626E+02 -0.32298850344E+02 -0.20180853984E+02  0.47787268790E+02  0.19999989722E+02 0.  0.
        -12    1    1    2    0    0 -0.20812036626E+02  0.32298850344E+02  0.20180853984E+02  0.43400731210E+02  0.00000000000E+00 0.  1.
         11    1    3    3    0    0  0.13872570823E+02 -0.30668836455E+02 -0.16995252002E+02  0.37707616494E+02  0.51100000000E-03 0. -1.
        -11    1    3    3    0    0  0.69414674733E+01 -0.11680518362E+01 -0.47214230706E+01  0.84758569978E+01  0.51100000000E-03 0.  1.
         12    1    3    3    0    0 -0.20016707927E-02 -0.46196205195E+00  0.15358210885E+01  0.16037952986E+01  0.00000000000E+00 0. -1.
</event>
<event>
 7    1  0.2497395E-009  0.4778727E+02  0.7816164E-02  0.1312668E+00
        -11   -1    0    0    0    0  0.00000000000E+00  0.00000000000E+00  0.45593999997E+02  0.45594000000E+02  0.51100000000E-03 0.  1.
         11   -1    0    0    0    0 -0.00000000000E+00 -0.00000000000E+00 -0.45593999997E+02  0.45594000000E+02  0.51100000000E-03 0. -1.
    9900012    2    1    2    0    0  0.38135897358E+02  0.16753869743E+02  0.12189527578E+02  0.47787269577E+02  0.19999993308E+02 0.  0.
        -12    1    1    2    0    0 -0.38135897358E+02 -0.16753869743E+02 -0.12189527578E+02  0.43400730423E+02  0.00000000000E+00 0.  1.
         11    1    3    3    0    0  0.37235315389E+02  0.18093741152E+02  0.82719279358E+01  0.42217022313E+02  0.51100000000E-03 0. -1.
        -11    1    3    3    0    0 -0.12571635979E+01 -0.12808629967E+01  0.16200406434E+01  0.24177680359E+01  0.51100000000E-03 0.  1.
         12    1    3    3    0    0  0.21577455674E+01 -0.59008411892E-01  0.22975589988E+01  0.31524792274E+01  0.00000000000E+00 0. -1.
</event>
<event>
 7    1  0.2497395E-009  0.4778727E+02  0.7816164E-02  0.1312668E+00
        -11   -1    0    0    0    0  0.00000000000E+00  0.00000000000E+00  0.45593999997E+02  0.45594000000E+02  0.51100000000E-03 0.  1.
         11   -1    0    0    0    0 -0.00000000000E+00 -0.00000000000E+00 -0.45593999997E+02  0.45594000000E+02  0.51100000000E-03 0. -1.
    9900012    2    1    2    0    0  0.96633626075E+00 -0.29399712268E+02  0.31911538256E+02  0.47787272344E+02  0.20000005925E+02 0.  0.
        -12    1    1    2    0    0 -0.96633626075E+00  0.29399712268E+02 -0.31911538256E+02  0.43400727656E+02  0.00000000000E+00 0.  1.
         11    1    3    3    0    0  0.56182610886E+01 -0.25873103670E+02  0.23692895462E+02  0.35529363164E+02  0.51100000000E-03 0. -1.
        -11    1    3    3    0    0 -0.59272980094E+01 -0.28307406950E+01  0.37601386218E+01  0.75686588833E+01  0.51100000000E-03 0.  1.
         12    1    3    3    0    0  0.12753731816E+01 -0.69586790206E+00  0.44585041726E+01  0.46892502968E+01  0.00000000000E+00 0. -1.
</event>
<event>
 7    1  0.2497395E-009  0.4778727E+02  0.7816164E-02  0.1312668E+00
        -11   -1    0    0    0    0  0.00000000000E+00  0.00000000000E+00  0.45593999997E+02  0.45594000000E+02  0.51100000000E-03 0.  1.
         11   -1    0    0    0    0 -0.00000000000E+00 -0.00000000000E+00 -0.45593999997E+02  0.45594000000E+02  0.51100000000E-03 0. -1.
    9900012    2    1    2    0    0  0.10964911906E+02 -0.41989724534E+02 -0.50672248015E+00  0.47787273886E+02  0.20000012956E+02 0.  0.
        -12    1    1    2    0    0 -0.10964911906E+02  0.41989724534E+02  0.50672248015E+00  0.43400726114E+02  0.00000000000E+00 0.  1.
         11    1    3    3    0    0 -0.86019041645E+00 -0.28402609206E+02  0.22982880398E+01  0.28508424465E+02  0.51100000000E-03 0. -1.
        -11    1    3    3    0    0  0.40969452602E+01 -0.26457577016E+01 -0.32760065343E+01  0.58751351775E+01  0.51100000000E-03 0.  1.
        -12    1    3    3    0    0  0.77281570623E+01 -0.10941357626E+02  0.47099601444E+00  0.13403714244E+02  0.00000000000E+00 0.  1.
</event>
<event>
 7    1  0.2497395E-009  0.4778727E+02  0.7816164E-02  0.1312668E+00
        -11   -1    0    0    0    0  0.00000000000E+00  0.00000000000E+00  0.45593999997E+02  0.45594000000E+02  0.51100000000E-03 0.  1.
         11   -1    0    0    0    0 -0.00000000000E+00 -0.00000000000E+00 -0.45593999997E+02  0.45594000000E+02  0.51100000000E-03 0. -1.
    9900012    2    1    2    0    0 -0.21206832440E+01 -0.24450239779E+02 -0.35795415189E+02  0.47787271075E+02  0.20000000138E+02 0.  0.
        -12    1    1    2    0    0  0.21206832440E+01  0.24450239779E+02  0.35795415189E+02  0.43400728925E+02  0.00000000000E+00 0.  1.
         11    1    3    3    0    0 -0.17121077587E+01 -0.11178851916E+02 -0.11069895016E+02  0.15825315766E+02  0.51100000000E-03 0. -1.
        -11    1    3    3    0    0 -0.34695099192E+01 -0.12258082926E+02 -0.82585391424E+01  0.15182277995E+02  0.51100000000E-03 0.  1.
        -12    1    3    3    0    0  0.30609344338E+01 -0.10133049372E+01 -0.16466981030E+02  0.16779677314E+02  0.00000000000E+00 0.  1.
</event>
<event>
 7    1  0.2497395E-009  0.4778728E+02  0.7816164E-02  0.1312668E+00
        -11   -1    0    0    0    0  0.00000000000E+00  0.00000000000E+00  0.45593999997E+02  0.45594000000E+02  0.51100000000E-03 0. -1.
         11   -1    0    0    0    0 -0.00000000000E+00 -0.00000000000E+00 -0.45593999997E+02  0.45594000000E+02  0.51100000000E-03 0.  1.
    9900012    2    1    2    0    0  0.42073307282E+02 -0.70572021518E+00  0.10628314916E+02  0.47787282211E+02  0.20000050911E+02 0.  0.
        -12    1    1    2    0    0 -0.42073307282E+02  0.70572021518E+00 -0.10628314916E+02  0.43400717789E+02  0.00000000000E+00 0.  1.
         11    1    3    3    0    0  0.25474167051E+02 -0.88965655032E+01  0.92907536674E+01  0.28537697326E+02  0.51100000000E-03 0. -1.
        -11    1    3    3    0    0  0.60952503549E+01  0.58353308910E+01  0.55734363340E+00  0.84565829792E+01  0.51100000000E-03 0.  1.
        -12    1    3    3    0    0  0.10503889876E+02  0.23555143970E+01  0.78021761568E+00  0.10793001905E+02  0.00000000000E+00 0.  1.
</event>
<event>
 7    1  0.2497395E-009  0.4778727E+02  0.7816164E-02  0.1312668E+00
        -11   -1    0    0    0    0  0.00000000000E+00  0.00000000000E+00  0.45593999997E+02  0.45594000000E+02  0.51100000000E-03 0.  1.
         11   -1    0    0    0    0 -0.00000000000E+00 -0.00000000000E+00 -0.45593999997E+02  0.45594000000E+02  0.51100000000E-03 0. -1.
    9900012    2    1    2    0    0  0.85045900533E+01 -0.20284402770E+02 -0.37414408234E+02  0.47787274301E+02  0.20000014849E+02 0.  0.
        -12    1    1    2    0    0 -0.85045900533E+01  0.20284402770E+02  0.37414408234E+02  0.43400725699E+02  0.00000000000E+00 0.  1.
         11    1    3    3    0    0  0.24173145744E+01 -0.54302882663E+01 -0.90360887341E+01  0.10815837475E+02  0.51100000000E-03 0. -1.
        -11    1    3    3    0    0  0.10527572756E+02 -0.14778530928E+02 -0.26574283044E+02  0.32178055941E+02  0.51100000000E-03 0.  1.
        -12    1    3    3    0    0 -0.44402972772E+01 -0.75583575246E-01 -0.18040364554E+01  0.47933808861E+01  0.00000000000E+00 0.  1.
</event>
<event>
 7    1  0.2497395E-009  0.4778727E+02  0.7816164E-02  0.1312668E+00
        -11   -1    0    0    0    0  0.00000000000E+00  0.00000000000E+00  0.45593999997E+02  0.45594000000E+02  0.51100000000E-03 0.  1.
         11   -1    0    0    0    0 -0.00000000000E+00 -0.00000000000E+00 -0.45593999997E+02  0.45594000000E+02  0.51100000000E-03 0. -1.
    9900012    2    1    2    0    0 -0.19668645394E+02  0.70907205811E+00 -0.38681581513E+02  0.47787272550E+02  0.20000006865E+02 0.  0.
        -12    1    1    2    0    0  0.19668645394E+02 -0.70907205811E+00  0.38681581513E+02  0.43400727450E+02  0.00000000000E+00 0.  1.
         11    1    3    3    0    0 -0.97731767514E+01  0.41826600674E+01 -0.20574684187E+02  0.23158740439E+02  0.51100000000E-03 0. -1.
        -11    1    3    3    0    0 -0.15320101140E+01 -0.67624988177E+01 -0.11668918035E+02  0.13573580722E+02  0.51100000000E-03 0.  1.
        -12    1    3    3    0    0 -0.83634585285E+01  0.32889108084E+01 -0.64379792911E+01  0.11054951389E+02  0.00000000000E+00 0.  1.
</event>
<event>
 7    1  0.2497395E-009  0.4778727E+02  0.7816164E-02  0.1312668E+00
        -11   -1    0    0    0    0  0.00000000000E+00  0.00000000000E+00  0.45593999997E+02  0.45594000000E+02  0.51100000000E-03 0.  1.
         11   -1    0    0    0    0 -0.00000000000E+00 -0.00000000000E+00 -0.45593999997E+02  0.45594000000E+02  0.51100000000E-03 0. -1.
    9900012    2    1    2    0    0  0.31013842751E+01 -0.39867401231E+02 -0.16869934519E+02  0.47787274706E+02  0.20000016696E+02 0.  0.
        -12    1    1    2    0    0 -0.31013842751E+01  0.39867401231E+02  0.16869934519E+02  0.43400725294E+02  0.00000000000E+00 0.  1.
         11    1    3    3    0    0  0.66053427521E+00 -0.36061511404E+00 -0.19421115629E+00  0.77721748794E+00  0.51100000000E-03 0. -1.
        -11    1    3    3    0    0  0.38811525505E+01 -0.40939479256E+02 -0.17657576075E+02  0.44753707109E+02  0.51100000000E-03 0.  1.
        -12    1    3    3    0    0 -0.14403025507E+01  0.14326931391E+01  0.98185271219E+00  0.22563501095E+01  0.00000000000E+00 0.  1.
</event>
<event>
 7    1  0.2497395E-009  0.4778727E+02  0.7816164E-02  0.1312668E+00
        -11   -1    0    0    0    0  0.00000000000E+00  0.00000000000E+00  0.45593999997E+02  0.45594000000E+02  0.51100000000E-03 0.  1.
         11   -1    0    0    0    0 -0.00000000000E+00 -0.00000000000E+00 -0.45593999997E+02  0.45594000000E+02  0.51100000000E-03 0. -1.
    9900012    2    1    2    0    0 -0.42919411284E+02 -0.14086757195E+01 -0.62898892509E+01  0.47787274902E+02  0.20000017587E+02 0.  0.
        -12    1    1    2    0    0  0.42919411284E+02  0.14086757195E+01  0.62898892509E+01  0.43400725098E+02  0.00000000000E+00 0.  1.
         11    1    3    3    0    0 -0.10256435590E+02 -0.78597416334E+01 -0.62145243621E+01  0.14338421212E+02  0.51100000000E-03 0. -1.
        -11    1    3    3    0    0 -0.23316583418E+02  0.55936100952E+01 -0.11261234464E+01  0.24004576448E+02  0.51100000000E-03 0.  1.
         12    1    3    3    0    0 -0.93463922762E+01  0.85745581869E+00  0.10507585576E+01  0.94442772412E+01  0.00000000000E+00 0. -1.
</event>
<event>
 7    1  0.2497395E-009  0.4778727E+02  0.7816164E-02  0.1312668E+00
        -11   -1    0    0    0    0  0.00000000000E+00  0.00000000000E+00  0.45593999997E+02  0.45594000000E+02  0.51100000000E-03 0.  1.
         11   -1    0    0    0    0 -0.00000000000E+00 -0.00000000000E+00 -0.45593999997E+02  0.45594000000E+02  0.51100000000E-03 0. -1.
    9900012    2    1    2    0    0 -0.37693588030E+02  0.17757957426E+02 -0.12143791642E+02  0.47787270675E+02  0.19999998315E+02 0.  0.
        -12    1    1    2    0    0  0.37693588030E+02 -0.17757957426E+02  0.12143791642E+02  0.43400729325E+02  0.00000000000E+00 0.  1.
         11    1    3    3    0    0 -0.29265129745E+02  0.16002500094E+02 -0.42551045447E+01  0.33624897668E+02  0.51100000000E-03 0. -1.
        -11    1    3    3    0    0 -0.16728967073E+01 -0.22063520530E+01 -0.51836410210E+01  0.58767939619E+01  0.51100000000E-03 0.  1.
        -12    1    3    3    0    0 -0.67555615776E+01  0.39618093857E+01 -0.27050460761E+01  0.82855790450E+01  0.00000000000E+00 0.  1.
</event>
<event>
 7    1  0.2497395E-009  0.4778726E+02  0.7816164E-02  0.1312668E+00
        -11   -1    0    0    0    0  0.00000000000E+00  0.00000000000E+00  0.45593999997E+02  0.45594000000E+02  0.51100000000E-03 0.  1.
         11   -1    0    0    0    0 -0.00000000000E+00 -0.00000000000E+00 -0.45593999997E+02  0.45594000000E+02  0.51100000000E-03 0. -1.
    9900012    2    1    2    0    0 -0.44287617524E+01  0.20115342275E+02 -0.38201876403E+02  0.47787259381E+02  0.19999946823E+02 0.  0.
        -12    1    1    2    0    0  0.44287617524E+01 -0.20115342275E+02  0.38201876403E+02  0.43400740619E+02  0.00000000000E+00 0.  1.
         11    1    3    3    0    0 -0.48720893694E+01  0.18157217720E+02 -0.35510499366E+02  0.40179813036E+02  0.51100000000E-03 0. -1.
        -11    1    3    3    0    0 -0.34257599254E+00 -0.24267041782E+01 -0.18580189361E+01  0.30754651855E+01  0.51100000000E-03 0.  1.
         12    1    3    3    0    0  0.78590360954E+00  0.43848287336E+01 -0.83335810165E+00  0.45319811597E+01  0.00000000000E+00 0. -1.
</event>
<event>
 7    1  0.2497395E-009  0.4778727E+02  0.7816164E-02  0.1312668E+00
        -11   -1    0    0    0    0  0.00000000000E+00  0.00000000000E+00  0.45593999997E+02  0.45594000000E+02  0.51100000000E-03 0.  1.
         11   -1    0    0    0    0 -0.00000000000E+00 -0.00000000000E+00 -0.45593999997E+02  0.45594000000E+02  0.51100000000E-03 0. -1.
    9900012    2    1    2    0    0 -0.37853614694E+01 -0.42123344095E+02  0.97426001920E+01  0.47787270309E+02  0.19999996649E+02 0.  0.
        -12    1    1    2    0    0  0.37853614694E+01  0.42123344095E+02 -0.97426001920E+01  0.43400729691E+02  0.00000000000E+00 0.  1.
         11    1    3    3    0    0 -0.16594775497E+00 -0.40665007338E+01  0.71105686509E+01  0.81929331546E+01  0.51100000000E-03 0. -1.
        -11    1    3    3    0    0 -0.56375266190E+00 -0.12426643147E+00 -0.12147606213E+01  0.13449545859E+01  0.51100000000E-03 0.  1.
         12    1    3    3    0    0 -0.30556610526E+01 -0.37932576929E+02  0.38467921624E+01  0.38249382569E+02  0.00000000000E+00 0. -1.
</event>
<event>
 7    1  0.2497395E-009  0.4778727E+02  0.7816164E-02  0.1312668E+00
        -11   -1    0    0    0    0  0.00000000000E+00  0.00000000000E+00  0.45593999997E+02  0.45594000000E+02  0.51100000000E-03 0.  1.
         11   -1    0    0    0    0 -0.00000000000E+00 -0.00000000000E+00 -0.45593999997E+02  0.45594000000E+02  0.51100000000E-03 0. -1.
    9900012    2    1    2    0    0 -0.18263361919E+02 -0.21531877258E+02 -0.32961362227E+02  0.47787268132E+02  0.19999986720E+02 0.  0.
        -12    1    1    2    0    0  0.18263361919E+02  0.21531877258E+02  0.32961362227E+02  0.43400731868E+02  0.00000000000E+00 0.  1.
         11    1    3    3    0    0 -0.90935065746E+01 -0.15801328463E+02 -0.20707192847E+02  0.27589158720E+02  0.51100000000E-03 0. -1.
        -11    1    3    3    0    0 -0.10351930764E+02 -0.38560752730E+01 -0.41568444408E+01  0.11803014150E+02  0.51100000000E-03 0.  1.
         12    1    3    3    0    0  0.11820754199E+01 -0.18744735222E+01 -0.80973249395E+01  0.83950952621E+01  0.00000000000E+00 0. -1.
</event>
<event>
 7    1  0.2497395E-009  0.4778728E+02  0.7816164E-02  0.1312668E+00
        -11   -1    0    0    0    0  0.00000000000E+00  0.00000000000E+00  0.45593999997E+02  0.45594000000E+02  0.51100000000E-03 0. -1.
         11   -1    0    0    0    0 -0.00000000000E+00 -0.00000000000E+00 -0.45593999997E+02  0.45594000000E+02  0.51100000000E-03 0.  1.
    9900012    2    1    2    0    0 -0.87917224798E+01 -0.39871868263E+02  0.14716067318E+02  0.47787275348E+02  0.20000019623E+02 0.  0.
        -12    1    1    2    0    0  0.87917224798E+01  0.39871868263E+02 -0.14716067318E+02  0.43400724652E+02  0.00000000000E+00 0.  1.
         11    1    3    3    0    0 -0.12642581431E+02 -0.15614152936E+02  0.79412569613E+01  0.21603245116E+02  0.51100000000E-03 0. -1.
        -11    1    3    3    0    0  0.20442282331E+01 -0.61959141152E+01 -0.68235413596E+00  0.65600173948E+01  0.51100000000E-03 0.  1.
         12    1    3    3    0    0  0.18066307183E+01 -0.18061801212E+02  0.74571644927E+01  0.19624012837E+02  0.00000000000E+00 0. -1.
</event>
<event>
 7    1  0.2497395E-009  0.4778728E+02  0.7816164E-02  0.1312668E+00
        -11   -1    0    0    0    0  0.00000000000E+00  0.00000000000E+00  0.45593999997E+02  0.45594000000E+02  0.51100000000E-03 0.  1.
         11   -1    0    0    0    0 -0.00000000000E+00 -0.00000000000E+00 -0.45593999997E+02  0.45594000000E+02  0.51100000000E-03 0. -1.
    9900012    2    1    2    0    0 -0.44026423174E+01 -0.43027721668E+02 -0.35853427296E+01  0.47787276805E+02  0.20000026266E+02 0.  0.
        -12    1    1    2    0    0  0.44026423174E+01  0.43027721668E+02  0.35853427296E+01  0.43400723195E+02  0.00000000000E+00 0.  1.
         11    1    3    3    0    0 -0.13413357976E+01 -0.35595372749E+02 -0.88328111733E+00  0.35631586109E+02  0.51100000000E-03 0. -1.
        -11    1    3    3    0    0 -0.11997158775E+01  0.19012653537E+01 -0.11055365158E+01  0.25052623377E+01  0.51100000000E-03 0.  1.
        -12    1    3    3    0    0 -0.18615906423E+01 -0.93336142732E+01 -0.15965250965E+01  0.96504283585E+01  0.00000000000E+00 0.  1.
</event>
<event>
 7    1  0.2497395E-009  0.4778727E+02  0.7816164E-02  0.1312668E+00
        -11   -1    0    0    0    0  0.00000000000E+00  0.00000000000E+00  0.45593999997E+02  0.45594000000E+02  0.51100000000E-03 0.  1.
         11   -1    0    0    0    0 -0.00000000000E+00 -0.00000000000E+00 -0.45593999997E+02  0.45594000000E+02  0.51100000000E-03 0. -1.
    9900012    2    1    2    0    0 -0.77289636103E+01  0.28374859536E+02 -0.31917924356E+02  0.47787269276E+02  0.19999991939E+02 0.  0.
        -12    1    1    2    0    0  0.77289636103E+01 -0.28374859536E+02  0.31917924356E+02  0.43400730724E+02  0.00000000000E+00 0.  1.
         11    1    3    3    0    0 -0.12532086942E+02  0.23988084015E+02 -0.23222980311E+02  0.35662139485E+02  0.51100000000E-03 0. -1.
        -11    1    3    3    0    0  0.44469185340E+01  0.48349455501E+01 -0.46703478779E+01  0.80600206254E+01  0.51100000000E-03 0.  1.
         12    1    3    3    0    0  0.35620479749E+00 -0.44817002888E+00 -0.40245961663E+01  0.40651091663E+01  0.00000000000E+00 0. -1.
</event>
<event>
 7    1  0.2497395E-009  0.4778727E+02  0.7816164E-02  0.1312668E+00
        -11   -1    0    0    0    0  0.00000000000E+00  0.00000000000E+00  0.45593999997E+02  0.45594000000E+02  0.51100000000E-03 0.  1.
         11   -1    0    0    0    0 -0.00000000000E+00 -0.00000000000E+00 -0.45593999997E+02  0.45594000000E+02  0.51100000000E-03 0. -1.
    9900012    2    1    2    0    0  0.49412425246E+01  0.41902508562E+01 -0.42914442408E+02  0.47787269049E+02  0.19999990901E+02 0.  0.
        -12    1    1    2    0    0 -0.49412425246E+01 -0.41902508562E+01  0.42914442408E+02  0.43400730951E+02  0.00000000000E+00 0.  1.
         11    1    3    3    0    0  0.11368287490E+01  0.18036601064E+01 -0.15561232179E+02  0.15706607418E+02  0.51100000000E-03 0. -1.
        -11    1    3    3    0    0  0.89685016162E+01  0.36079598346E+01 -0.23816194410E+02  0.25703356043E+02  0.51100000000E-03 0.  1.
        -12    1    3    3    0    0 -0.51640878406E+01 -0.12213690848E+01 -0.35370158182E+01  0.63773055882E+01  0.00000000000E+00 0.  1.
</event>
<event>
 7    1  0.2497395E-009  0.4778727E+02  0.7816164E-02  0.1312668E+00
        -11   -1    0    0    0    0  0.00000000000E+00  0.00000000000E+00  0.45593999997E+02  0.45594000000E+02  0.51100000000E-03 0.  1.
         11   -1    0    0    0    0 -0.00000000000E+00 -0.00000000000E+00 -0.45593999997E+02  0.45594000000E+02  0.51100000000E-03 0. -1.
    9900012    2    1    2    0    0 -0.13087112457E+02  0.17027817668E+02 -0.37714769965E+02  0.47787274655E+02  0.20000016461E+02 0.  0.
        -12    1    1    2    0    0  0.13087112457E+02 -0.17027817668E+02  0.37714769965E+02  0.43400725345E+02  0.00000000000E+00 0.  1.
         11    1    3    3    0    0 -0.88794143926E+01  0.10175569144E+02 -0.75614379222E+01  0.15477776037E+02  0.51100000000E-03 0. -1.
        -11    1    3    3    0    0 -0.48996858142E+01  0.23526799866E+01 -0.78609229941E+01  0.95569940241E+01  0.51100000000E-03 0.  1.
         12    1    3    3    0    0  0.69198774988E+00  0.44995685380E+01 -0.22292409049E+02  0.22752504593E+02  0.00000000000E+00 0. -1.
</event>
<event>
 7    1  0.2497395E-009  0.4778727E+02  0.7816164E-02  0.1312668E+00
        -11   -1    0    0    0    0  0.00000000000E+00  0.00000000000E+00  0.45593999997E+02  0.45594000000E+02  0.51100000000E-03 0.  1.
         11   -1    0    0    0    0 -0.00000000000E+00 -0.00000000000E+00 -0.45593999997E+02  0.45594000000E+02  0.51100000000E-03 0. -1.
    9900012    2    1    2    0    0 -0.40767398236E+02  0.84811653484E+01 -0.12235709019E+02  0.47787268441E+02  0.19999988131E+02 0.  0.
        -12    1    1    2    0    0  0.40767398236E+02 -0.84811653484E+01  0.12235709019E+02  0.43400731559E+02  0.00000000000E+00 0.  1.
         11    1    3    3    0    0 -0.25506455999E+02  0.68895095919E+01  0.22053393888E+01  0.26512415245E+02  0.51100000000E-03 0. -1.
        -11    1    3    3    0    0 -0.26860087838E+01 -0.10874745910E+00 -0.41133643417E+01  0.49138819344E+01  0.51100000000E-03 0.  1.
         12    1    3    3    0    0 -0.12574933453E+02  0.17004032156E+01 -0.10327684066E+02  0.16360971261E+02  0.00000000000E+00 0. -1.
</event>
<event>
 7    1  0.2497395E-009  0.4778727E+02  0.7816164E-02  0.1312668E+00
        -11   -1    0    0    0    0  0.00000000000E+00  0.00000000000E+00  0.45593999997E+02  0.45594000000E+02  0.51100000000E-03 0.  1.
         11   -1    0    0    0    0 -0.00000000000E+00 -0.00000000000E+00 -0.45593999997E+02  0.45594000000E+02  0.51100000000E-03 0. -1.
    9900012    2    1    2    0    0 -0.19041711299E+02  0.38304150619E+02  0.73368024832E+01  0.47787269655E+02  0.19999993664E+02 0.  0.
        -12    1    1    2    0    0  0.19041711299E+02 -0.38304150619E+02 -0.73368024832E+01  0.43400730345E+02  0.00000000000E+00 0.  1.
         11    1    3    3    0    0 -0.83611770802E+01  0.12825582470E+01  0.11679261626E+01  0.85392206673E+01  0.51100000000E-03 0. -1.
        -11    1    3    3    0    0 -0.60286427709E+01  0.21138175180E+02  0.56209163305E+01  0.22688360105E+02  0.51100000000E-03 0.  1.
         12    1    3    3    0    0 -0.46518914478E+01  0.15883417192E+02  0.54795999004E+00  0.16559688882E+02  0.00000000000E+00 0. -1.
</event>
<event>
 7    1  0.2497395E-009  0.4778727E+02  0.7816164E-02  0.1312668E+00
        -11   -1    0    0    0    0  0.00000000000E+00  0.00000000000E+00  0.45593999997E+02  0.45594000000E+02  0.51100000000E-03 0.  1.
         11   -1    0    0    0    0 -0.00000000000E+00 -0.00000000000E+00 -0.45593999997E+02  0.45594000000E+02  0.51100000000E-03 0. -1.
    9900012    2    1    2    0    0  0.32247756714E+02  0.21404914320E+02 -0.19635052643E+02  0.47787268872E+02  0.19999990095E+02 0.  0.
        -12    1    1    2    0    0 -0.32247756714E+02 -0.21404914320E+02  0.19635052643E+02  0.43400731128E+02  0.00000000000E+00 0.  1.
         11    1    3    3    0    0  0.17700264078E+02  0.21143427383E+02 -0.82531951562E+01  0.28782965456E+02  0.51100000000E-03 0. -1.
        -11    1    3    3    0    0  0.36611549719E+01 -0.11524004818E+00 -0.55465305843E+01  0.66469043757E+01  0.51100000000E-03 0.  1.
         12    1    3    3    0    0  0.10886337665E+02  0.37672698524E+00 -0.58353269027E+01  0.12357399040E+02  0.00000000000E+00 0. -1.
</event>
<event>
 7    1  0.2497395E-009  0.4778727E+02  0.7816164E-02  0.1312668E+00
        -11   -1    0    0    0    0  0.00000000000E+00  0.00000000000E+00  0.45593999997E+02  0.45594000000E+02  0.51100000000E-03 0. -1.
         11   -1    0    0    0    0 -0.00000000000E+00 -0.00000000000E+00 -0.45593999997E+02  0.45594000000E+02  0.51100000000E-03 0.  1.
    9900012    2    1    2    0    0 -0.31742791668E+02  0.14782457377E+02  0.25641711038E+02  0.47787271735E+02  0.20000003149E+02 0.  0.
        -12    1    1    2    0    0  0.31742791668E+02 -0.14782457377E+02 -0.25641711038E+02  0.43400728265E+02  0.00000000000E+00 0.  1.
         11    1    3    3    0    0 -0.21471849464E+02  0.99708988011E+01  0.15023151506E+02  0.28038441892E+02  0.51100000000E-03 0. -1.
        -11    1    3    3    0    0 -0.33263287754E+01 -0.13422861992E+01 -0.19838196486E+01  0.40989920739E+01  0.51100000000E-03 0.  1.
        -12    1    3    3    0    0 -0.69446134290E+01  0.61538447752E+01  0.12602379181E+02  0.15649837769E+02  0.00000000000E+00 0.  1.
</event>
<event>
 7    1  0.2497395E-009  0.4778731E+02  0.7816164E-02  0.1312668E+00
        -11   -1    0    0    0    0  0.00000000000E+00  0.00000000000E+00  0.45593999997E+02  0.45594000000E+02  0.51100000000E-03 0. -1.
         11   -1    0    0    0    0 -0.00000000000E+00 -0.00000000000E+00 -0.45593999997E+02  0.45594000000E+02  0.51100000000E-03 0.  1.
    9900012    2    1    2    0    0 -0.56191684557E+01  0.34137344975E+02 -0.26204698455E+02  0.47787313402E+02  0.20000193124E+02 0.  0.
        -12    1    1    2    0    0  0.56191684557E+01 -0.34137344975E+02  0.26204698455E+02  0.43400686598E+02  0.00000000000E+00 0.  1.
         11    1    3    3    0    0  0.28867310622E+01  0.88360401288E+01 -0.46037826095E+01  0.10373217242E+02  0.51100000000E-03 0. -1.
        -11    1    3    3    0    0 -0.34380441717E+01  0.12584614857E+02 -0.15524971856E+01  0.13137843301E+02  0.51100000000E-03 0.  1.
        -12    1    3    3    0    0 -0.50678553463E+01  0.12716689989E+02 -0.20048418660E+02  0.24276252859E+02  0.00000000000E+00 0.  1.
</event>
<event>
 7    1  0.2497395E-009  0.4778727E+02  0.7816164E-02  0.1312668E+00
        -11   -1    0    0    0    0  0.00000000000E+00  0.00000000000E+00  0.45593999997E+02  0.45594000000E+02  0.51100000000E-03 0. -1.
         11   -1    0    0    0    0 -0.00000000000E+00 -0.00000000000E+00 -0.45593999997E+02  0.45594000000E+02  0.51100000000E-03 0.  1.
    9900012    2    1    2    0    0 -0.18272758451E+02 -0.26437673790E+02  0.29168114448E+02  0.47787271927E+02  0.20000004023E+02 0.  0.
        -12    1    1    2    0    0  0.18272758451E+02  0.26437673790E+02 -0.29168114448E+02  0.43400728073E+02  0.00000000000E+00 0.  1.
         11    1    3    3    0    0 -0.84287664945E+01 -0.14264158341E+02  0.91512955367E+01  0.18927665679E+02  0.51100000000E-03 0. -1.
        -11    1    3    3    0    0 -0.47851562866E+01  0.24013873886E+01  0.55042961292E+01  0.76786495047E+01  0.51100000000E-03 0.  1.
        -12    1    3    3    0    0 -0.50588356702E+01 -0.14574902837E+02  0.14512522782E+02  0.21180956743E+02  0.00000000000E+00 0.  1.
</event>
<event>
 7    1  0.2497395E-009  0.4778727E+02  0.7816164E-02  0.1312668E+00
        -11   -1    0    0    0    0  0.00000000000E+00  0.00000000000E+00  0.45593999997E+02  0.45594000000E+02  0.51100000000E-03 0. -1.
         11   -1    0    0    0    0 -0.00000000000E+00 -0.00000000000E+00 -0.45593999997E+02  0.45594000000E+02  0.51100000000E-03 0.  1.
    9900012    2    1    2    0    0  0.15815930883E+02  0.20760414074E+02  0.34676867300E+02  0.47787267426E+02  0.19999983500E+02 0.  0.
        -12    1    1    2    0    0 -0.15815930883E+02 -0.20760414074E+02 -0.34676867300E+02  0.43400732574E+02  0.00000000000E+00 0.  1.
         11    1    3    3    0    0 -0.22297914168E+01  0.55473998797E+01  0.78078443374E+01  0.98340250481E+01  0.51100000000E-03 0. -1.
        -11    1    3    3    0    0  0.12020144454E+02  0.65055250814E+01  0.68088001794E+01  0.15269757346E+02  0.51100000000E-03 0.  1.
        -12    1    3    3    0    0  0.60255778465E+01  0.87074891130E+01  0.20060222784E+02  0.22683485031E+02  0.00000000000E+00 0.  1.
</event>
<event>
 7    1  0.2497395E-009  0.4778727E+02  0.7816164E-02  0.1312668E+00
        -11   -1    0    0    0    0  0.00000000000E+00  0.00000000000E+00  0.45593999997E+02  0.45594000000E+02  0.51100000000E-03 0. -1.
         11   -1    0    0    0    0 -0.00000000000E+00 -0.00000000000E+00 -0.45593999997E+02  0.45594000000E+02  0.51100000000E-03 0.  1.
    9900012    2    1    2    0    0 -0.20247707058E+02  0.41078966526E+01  0.38167773276E+02  0.47787269904E+02  0.19999994800E+02 0.  0.
        -12    1    1    2    0    0  0.20247707058E+02 -0.41078966526E+01 -0.38167773276E+02  0.43400730096E+02  0.00000000000E+00 0.  1.
         11    1    3    3    0    0 -0.16581266402E+02  0.67131967890E+01  0.30195433363E+02  0.35096575373E+02  0.51100000000E-03 0. -1.
        -11    1    3    3    0    0  0.88098152581E+00 -0.47006149588E+01  0.47249096776E+01  0.67228476974E+01  0.51100000000E-03 0.  1.
         12    1    3    3    0    0 -0.45474221816E+01  0.20953148223E+01  0.32474302353E+01  0.59678468341E+01  0.00000000000E+00 0. -1.
</event>
<event>
 7    1  0.2497395E-009  0.4778727E+02  0.7816164E-02  0.1312668E+00
        -11   -1    0    0    0    0  0.00000000000E+00  0.00000000000E+00  0.45593999997E+02  0.45594000000E+02  0.51100000000E-03 0. -1.
         11   -1    0    0    0    0 -0.00000000000E+00 -0.00000000000E+00 -0.45593999997E+02  0.45594000000E+02  0.51100000000E-03 0.  1.
    9900012    2    1    2    0    0  0.12752413885E+02 -0.28432467364E+02  0.30209174413E+02  0.47787268681E+02  0.19999989224E+02 0.  0.
        -12    1    1    2    0    0 -0.12752413885E+02  0.28432467364E+02 -0.30209174413E+02  0.43400731319E+02  0.00000000000E+00 0.  1.
         11    1    3    3    0    0  0.11584264804E+02 -0.19515011005E+02  0.18353394448E+02  0.29186948001E+02  0.51100000000E-03 0. -1.
        -11    1    3    3    0    0 -0.48853392116E+01 -0.35588935711E+01  0.35501105105E+01  0.70096752821E+01  0.51100000000E-03 0.  1.
         12    1    3    3    0    0  0.60534882922E+01 -0.53585627879E+01  0.83056694546E+01  0.11590645398E+02  0.00000000000E+00 0. -1.
</event>
<event>
 7    1  0.2497395E-009  0.4778727E+02  0.7816164E-02  0.1312668E+00
        -11   -1    0    0    0    0  0.00000000000E+00  0.00000000000E+00  0.45593999997E+02  0.45594000000E+02  0.51100000000E-03 0.  1.
         11   -1    0    0    0    0 -0.00000000000E+00 -0.00000000000E+00 -0.45593999997E+02  0.45594000000E+02  0.51100000000E-03 0. -1.
    9900012    2    1    2    0    0  0.31890186260E+02 -0.29245650848E+02  0.33661453994E+01  0.47787274106E+02  0.20000013960E+02 0.  0.
        -12    1    1    2    0    0 -0.31890186260E+02  0.29245650848E+02 -0.33661453994E+01  0.43400725894E+02  0.00000000000E+00 0.  1.
         11    1    3    3    0    0  0.21739209307E+02 -0.24937450478E+02 -0.20695911269E+01  0.33147441309E+02  0.51100000000E-03 0. -1.
        -11    1    3    3    0    0  0.20115178267E+01 -0.12943147867E+01 -0.20713593723E+01  0.31641720314E+01  0.51100000000E-03 0.  1.
         12    1    3    3    0    0  0.81394591267E+01 -0.30138855833E+01  0.75070958986E+01  0.11475660766E+02  0.00000000000E+00 0. -1.
</event>
<event>
 7    1  0.2497395E-009  0.4778726E+02  0.7816164E-02  0.1312668E+00
        -11   -1    0    0    0    0  0.00000000000E+00  0.00000000000E+00  0.45593999997E+02  0.45594000000E+02  0.51100000000E-03 0. -1.
         11   -1    0    0    0    0 -0.00000000000E+00 -0.00000000000E+00 -0.45593999997E+02  0.45594000000E+02  0.51100000000E-03 0.  1.
    9900012    2    1    2    0    0 -0.69666332208E+01  0.18117065317E+02  0.38818320622E+02  0.47787262102E+02  0.19999959229E+02 0.  0.
        -12    1    1    2    0    0  0.69666332208E+01 -0.18117065317E+02 -0.38818320622E+02  0.43400737898E+02  0.00000000000E+00 0.  1.
         11    1    3    3    0    0 -0.10280257108E+01  0.93806944182E+01  0.33675096989E+02  0.34972366550E+02  0.51100000000E-03 0. -1.
        -11    1    3    3    0    0 -0.17808412459E+01  0.69739206973E+01  0.27600997462E+01  0.77087687931E+01  0.51100000000E-03 0.  1.
         12    1    3    3    0    0 -0.41577662641E+01  0.17624502015E+01  0.23831238874E+01  0.51061267594E+01  0.00000000000E+00 0. -1.
</event>
<event>
 7    1  0.2497395E-009  0.4778727E+02  0.7816164E-02  0.1312668E+00
        -11   -1    0    0    0    0  0.00000000000E+00  0.00000000000E+00  0.45593999997E+02  0.45594000000E+02  0.51100000000E-03 0.  1.
         11   -1    0    0    0    0 -0.00000000000E+00 -0.00000000000E+00 -0.45593999997E+02  0.45594000000E+02  0.51100000000E-03 0. -1.
    9900012    2    1    2    0    0  0.14466713189E+00 -0.43030428960E+02 -0.56554725989E+01  0.47787272870E+02  0.20000008323E+02 0.  0.
        -12    1    1    2    0    0 -0.14466713189E+00  0.43030428960E+02  0.56554725989E+01  0.43400727130E+02  0.00000000000E+00 0.  1.
         11    1    3    3    0    0  0.50667270476E+01 -0.24775484765E+02 -0.55414165302E+01  0.25888292059E+02  0.51100000000E-03 0. -1.
        -11    1    3    3    0    0 -0.20149014260E+01  0.11026512824E+01  0.32263336919E+00  0.23194309990E+01  0.51100000000E-03 0.  1.
        -12    1    3    3    0    0 -0.29071584898E+01 -0.19357595478E+02 -0.43668943786E+00  0.19579549812E+02  0.00000000000E+00 0.  1.
</event>
<event>
 7    1  0.2497395E-009  0.4778727E+02  0.7816164E-02  0.1312668E+00
        -11   -1    0    0    0    0  0.00000000000E+00  0.00000000000E+00  0.45593999997E+02  0.45594000000E+02  0.51100000000E-03 0.  1.
         11   -1    0    0    0    0 -0.00000000000E+00 -0.00000000000E+00 -0.45593999997E+02  0.45594000000E+02  0.51100000000E-03 0. -1.
    9900012    2    1    2    0    0 -0.24956136990E+02  0.10715281800E+01 -0.35491776792E+02  0.47787272288E+02  0.20000005668E+02 0.  0.
        -12    1    1    2    0    0  0.24956136990E+02 -0.10715281800E+01  0.35491776792E+02  0.43400727712E+02  0.00000000000E+00 0.  1.
         11    1    3    3    0    0 -0.15743614222E+02 -0.56457901784E+01 -0.15503540614E+02  0.22805615698E+02  0.51100000000E-03 0.  1.
        -11    1    3    3    0    0 -0.10017577976E+02  0.20338262880E+01 -0.13194355762E+02  0.16690696274E+02  0.51100000000E-03 0. -1.
         12    1    3    3    0    0  0.80505520771E+00  0.46834920704E+01 -0.67938804155E+01  0.82909603160E+01  0.00000000000E+00 0. -1.
</event>
<event>
 7    1  0.2497395E-009  0.4778727E+02  0.7816164E-02  0.1312668E+00
        -11   -1    0    0    0    0  0.00000000000E+00  0.00000000000E+00  0.45593999997E+02  0.45594000000E+02  0.51100000000E-03 0.  1.
         11   -1    0    0    0    0 -0.00000000000E+00 -0.00000000000E+00 -0.45593999997E+02  0.45594000000E+02  0.51100000000E-03 0. -1.
    9900012    2    1    2    0    0 -0.71042251440E+01  0.42067645374E+02 -0.79665760456E+01  0.47787272631E+02  0.20000007236E+02 0.  0.
        -12    1    1    2    0    0  0.71042251440E+01 -0.42067645374E+02  0.79665760456E+01  0.43400727369E+02  0.00000000000E+00 0.  1.
         11    1    3    3    0    0 -0.58043522841E+00  0.14901107579E+02 -0.10859549179E+02  0.18447485486E+02  0.51100000000E-03 0. -1.
        -11    1    3    3    0    0  0.96943980526E+00  0.14103874757E+02  0.13252894489E+01  0.14199136913E+02  0.51100000000E-03 0.  1.
         12    1    3    3    0    0 -0.74932297208E+01  0.13062663039E+02  0.15676836849E+01  0.15140650232E+02  0.00000000000E+00 0. -1.
</event>
<event>
 7    1  0.2497395E-009  0.4778727E+02  0.7816164E-02  0.1312668E+00
        -11   -1    0    0    0    0  0.00000000000E+00  0.00000000000E+00  0.45593999997E+02  0.45594000000E+02  0.51100000000E-03 0. -1.
         11   -1    0    0    0    0 -0.00000000000E+00 -0.00000000000E+00 -0.45593999997E+02  0.45594000000E+02  0.51100000000E-03 0.  1.
    9900012    2    1    2    0    0 -0.26380395005E+02  0.32951880827E+02  0.10093139459E+02  0.47787272417E+02  0.20000006257E+02 0.  0.
        -12    1    1    2    0    0  0.26380395005E+02 -0.32951880827E+02 -0.10093139459E+02  0.43400727583E+02  0.00000000000E+00 0.  1.
         11    1    3    3    0    0 -0.12064332186E+02  0.49460329053E+01 -0.12910367899E+01  0.13102600080E+02  0.51100000000E-03 0. -1.
        -11    1    3    3    0    0 -0.35609156907E+01  0.12616290837E+02  0.86635010381E+01  0.15713279911E+02  0.51100000000E-03 0.  1.
        -12    1    3    3    0    0 -0.10755147128E+02  0.15389557084E+02  0.27206752110E+01  0.18971392426E+02  0.00000000000E+00 0.  1.
</event>
<event>
 7    1  0.2497395E-009  0.4778727E+02  0.7816164E-02  0.1312668E+00
        -11   -1    0    0    0    0  0.00000000000E+00  0.00000000000E+00  0.45593999997E+02  0.45594000000E+02  0.51100000000E-03 0.  1.
         11   -1    0    0    0    0 -0.00000000000E+00 -0.00000000000E+00 -0.45593999997E+02  0.45594000000E+02  0.51100000000E-03 0. -1.
    9900012    2    1    2    0    0 -0.39880533683E+02  0.14512527592E+02 -0.90858608081E+01  0.47787270852E+02  0.19999999122E+02 0.  0.
        -12    1    1    2    0    0  0.39880533683E+02 -0.14512527592E+02  0.90858608081E+01  0.43400729148E+02  0.00000000000E+00 0.  1.
         11    1    3    3    0    0 -0.25304115677E+02  0.11714061413E+02 -0.97310856759E+01  0.29533227620E+02  0.51100000000E-03 0. -1.
        -11    1    3    3    0    0 -0.85527821619E+01 -0.31706865886E+01  0.27298420399E+01  0.95213115680E+01  0.51100000000E-03 0.  1.
        -12    1    3    3    0    0 -0.60236358445E+01  0.59691527678E+01 -0.20846171722E+01  0.87327316636E+01  0.00000000000E+00 0.  1.
</event>
<event>
 7    1  0.2497395E-009  0.4778728E+02  0.7816164E-02  0.1312668E+00
        -11   -1    0    0    0    0  0.00000000000E+00  0.00000000000E+00  0.45593999997E+02  0.45594000000E+02  0.51100000000E-03 0.  1.
         11   -1    0    0    0    0 -0.00000000000E+00 -0.00000000000E+00 -0.45593999997E+02  0.45594000000E+02  0.51100000000E-03 0. -1.
    9900012    2    1    2    0    0  0.24629420662E+02 -0.18104254981E+02 -0.30809907647E+02  0.47787276276E+02  0.20000023852E+02 0.  0.
        -12    1    1    2    0    0 -0.24629420662E+02  0.18104254981E+02  0.30809907647E+02  0.43400723724E+02  0.00000000000E+00 0.  1.
         11    1    3    3    0    0  0.15948880438E+00  0.33136277820E+01 -0.27860194878E+01  0.43321438808E+01  0.51100000000E-03 0. -1.
        -11    1    3    3    0    0  0.10684676577E+02 -0.13649826337E+02 -0.15885253880E+02  0.23512153531E+02  0.51100000000E-03 0.  1.
         12    1    3    3    0    0  0.13785255281E+02 -0.77680564259E+01 -0.12138634279E+02  0.19942978864E+02  0.00000000000E+00 0. -1.
</event>
<event>
 7    1  0.2497395E-009  0.4778727E+02  0.7816164E-02  0.1312668E+00
        -11   -1    0    0    0    0  0.00000000000E+00  0.00000000000E+00  0.45593999997E+02  0.45594000000E+02  0.51100000000E-03 0.  1.
         11   -1    0    0    0    0 -0.00000000000E+00 -0.00000000000E+00 -0.45593999997E+02  0.45594000000E+02  0.51100000000E-03 0. -1.
    9900012    2    1    2    0    0 -0.47432734024E+01  0.18119681851E+02 -0.39151011379E+02  0.47787271839E+02  0.20000003622E+02 0.  0.
        -12    1    1    2    0    0  0.47432734024E+01 -0.18119681851E+02  0.39151011379E+02  0.43400728161E+02  0.00000000000E+00 0.  1.
         11    1    3    3    0    0 -0.42332235424E+01  0.10001803417E+02 -0.19791285157E+02  0.22575456176E+02  0.51100000000E-03 0. -1.
        -11    1    3    3    0    0  0.16825882041E+01 -0.31877264906E+01 -0.13790856771E+01  0.38593497910E+01  0.51100000000E-03 0.  1.
        -12    1    3    3    0    0 -0.21926380641E+01  0.11305604924E+02 -0.17980640545E+02  0.21352465871E+02  0.00000000000E+00 0.  1.
</event>
<event>
 7    1  0.2497395E-009  0.4778726E+02  0.7816164E-02  0.1312668E+00
        -11   -1    0    0    0    0  0.00000000000E+00  0.00000000000E+00  0.45593999997E+02  0.45594000000E+02  0.51100000000E-03 0.  1.
         11   -1    0    0    0    0 -0.00000000000E+00 -0.00000000000E+00 -0.45593999997E+02  0.45594000000E+02  0.51100000000E-03 0. -1.
    9900012    2    1    2    0    0 -0.39867792377E+02  0.10026973937E+01 -0.17122427819E+02  0.47787264920E+02  0.19999972074E+02 0.  0.
        -12    1    1    2    0    0  0.39867792377E+02 -0.10026973937E+01  0.17122427819E+02  0.43400735080E+02  0.00000000000E+00 0.  1.
         11    1    3    3    0    0 -0.52237985817E+01  0.37658008984E+00 -0.45213305559E+01  0.69189821826E+01  0.51100000000E-03 0. -1.
        -11    1    3    3    0    0  0.15520600223E+01  0.37905683374E+00 -0.30331209087E+01  0.34281769360E+01  0.51100000000E-03 0.  1.
         12    1    3    3    0    0 -0.36196053818E+02  0.24706047012E+00 -0.95679763541E+01  0.37440105801E+02  0.00000000000E+00 0. -1.
</event>
<event>
 7    1  0.2497395E-009  0.4778728E+02  0.7816164E-02  0.1312668E+00
        -11   -1    0    0    0    0  0.00000000000E+00  0.00000000000E+00  0.45593999997E+02  0.45594000000E+02  0.51100000000E-03 0. -1.
         11   -1    0    0    0    0 -0.00000000000E+00 -0.00000000000E+00 -0.45593999997E+02  0.45594000000E+02  0.51100000000E-03 0.  1.
    9900012    2    1    2    0    0 -0.42913175806E+02 -0.46000585445E+01  0.45740131541E+01  0.47787276587E+02  0.20000025272E+02 0.  0.
        -12    1    1    2    0    0  0.42913175806E+02  0.46000585445E+01 -0.45740131541E+01  0.43400723413E+02  0.00000000000E+00 0.  1.
         11    1    3    3    0    0 -0.18579324053E+02  0.64876320616E+01  0.22397318878E+01  0.19806490129E+02  0.51100000000E-03 0.  1.
        -11    1    3    3    0    0 -0.22122166833E+02 -0.73276923655E+01  0.67602693012E+00  0.23313994798E+02  0.51100000000E-03 0. -1.
         12    1    3    3    0    0 -0.22116849208E+01 -0.37599982406E+01  0.16582543362E+01  0.46667916604E+01  0.00000000000E+00 0. -1.
</event>
<event>
 7    1  0.2497395E-009  0.4778727E+02  0.7816164E-02  0.1312668E+00
        -11   -1    0    0    0    0  0.00000000000E+00  0.00000000000E+00  0.45593999997E+02  0.45594000000E+02  0.51100000000E-03 0. -1.
         11   -1    0    0    0    0 -0.00000000000E+00 -0.00000000000E+00 -0.45593999997E+02  0.45594000000E+02  0.51100000000E-03 0.  1.
    9900012    2    1    2    0    0  0.17102319869E+02  0.20175717067E+02  0.34410379577E+02  0.47787272740E+02  0.20000007729E+02 0.  0.
        -12    1    1    2    0    0 -0.17102319869E+02 -0.20175717067E+02 -0.34410379577E+02  0.43400727260E+02  0.00000000000E+00 0.  1.
         11    1    3    3    0    0  0.10925435024E+02  0.75738806944E+01  0.70426950493E+01  0.15044213275E+02  0.51100000000E-03 0. -1.
        -11    1    3    3    0    0  0.71296500097E+01  0.50320107723E+01  0.76654793274E+01  0.11615188989E+02  0.51100000000E-03 0.  1.
         12    1    3    3    0    0 -0.95276516439E+00  0.75698256008E+01  0.19702205200E+02  0.21127870476E+02  0.00000000000E+00 0. -1.
</event>
<event>
 7    1  0.2497395E-009  0.4778727E+02  0.7816164E-02  0.1312668E+00
        -11   -1    0    0    0    0  0.00000000000E+00  0.00000000000E+00  0.45593999997E+02  0.45594000000E+02  0.51100000000E-03 0.  1.
         11   -1    0    0    0    0 -0.00000000000E+00 -0.00000000000E+00 -0.45593999997E+02  0.45594000000E+02  0.51100000000E-03 0. -1.
    9900012    2    1    2    0    0  0.19376229936E+02  0.27671107492E+01 -0.38736648629E+02  0.47787272639E+02  0.20000007270E+02 0.  0.
        -12    1    1    2    0    0 -0.19376229936E+02 -0.27671107492E+01  0.38736648629E+02  0.43400727361E+02  0.00000000000E+00 0.  1.
         11    1    3    3    0    0  0.45261342547E+01  0.50658327333E+01 -0.14278661707E+02  0.15812296891E+02  0.51100000000E-03 0.  1.
        -11    1    3    3    0    0  0.15063455353E+02 -0.57725998974E+01 -0.23234931497E+02  0.28285908836E+02  0.51100000000E-03 0. -1.
        -12    1    3    3    0    0 -0.21335967131E+00  0.34738779133E+01 -0.12230554253E+01  0.36890669118E+01  0.00000000000E+00 0.  1.
</event>
<event>
 7    1  0.2497395E-009  0.4778727E+02  0.7816164E-02  0.1312668E+00
        -11   -1    0    0    0    0  0.00000000000E+00  0.00000000000E+00  0.45593999997E+02  0.45594000000E+02  0.51100000000E-03 0. -1.
         11   -1    0    0    0    0 -0.00000000000E+00 -0.00000000000E+00 -0.45593999997E+02  0.45594000000E+02  0.51100000000E-03 0.  1.
    9900012    2    1    2    0    0 -0.33052629693E+01  0.20621308386E+02  0.38045502995E+02  0.47787269349E+02  0.19999992272E+02 0.  0.
        -12    1    1    2    0    0  0.33052629693E+01 -0.20621308386E+02 -0.38045502995E+02  0.43400730651E+02  0.00000000000E+00 0.  1.
         11    1    3    3    0    0  0.57932739790E+01 -0.43452389004E+00  0.90266300740E+01  0.10734564973E+02  0.51100000000E-03 0. -1.
        -11    1    3    3    0    0 -0.53482658102E+01  0.11011562314E+02  0.16964248734E+02  0.20919947111E+02  0.51100000000E-03 0.  1.
         12    1    3    3    0    0 -0.37502711381E+01  0.10044269962E+02  0.12054624187E+02  0.16132757265E+02  0.00000000000E+00 0. -1.
</event>
<event>
 7    1  0.2497395E-009  0.4778727E+02  0.7816164E-02  0.1312668E+00
        -11   -1    0    0    0    0  0.00000000000E+00  0.00000000000E+00  0.45593999997E+02  0.45594000000E+02  0.51100000000E-03 0.  1.
         11   -1    0    0    0    0 -0.00000000000E+00 -0.00000000000E+00 -0.45593999997E+02  0.45594000000E+02  0.51100000000E-03 0. -1.
    9900012    2    1    2    0    0  0.77133304686E+00  0.23376921585E+02 -0.36558826582E+02  0.47787271682E+02  0.20000002907E+02 0.  0.
        -12    1    1    2    0    0 -0.77133304686E+00 -0.23376921585E+02  0.36558826582E+02  0.43400728318E+02  0.00000000000E+00 0.  1.
         11    1    3    3    0    0  0.72707093159E+00  0.25530837990E+01 -0.30727450595E+01  0.40606195939E+01  0.51100000000E-03 0. -1.
        -11    1    3    3    0    0  0.55347374322E+01  0.20934625198E+02 -0.21365341011E+02  0.30419889011E+02  0.51100000000E-03 0.  1.
        -12    1    3    3    0    0 -0.54904753170E+01 -0.11078741229E+00 -0.12120740512E+02  0.13306763078E+02  0.00000000000E+00 0.  1.
</event>
<event>
 7    1  0.2497395E-009  0.4778727E+02  0.7816164E-02  0.1312668E+00
        -11   -1    0    0    0    0  0.00000000000E+00  0.00000000000E+00  0.45593999997E+02  0.45594000000E+02  0.51100000000E-03 0.  1.
         11   -1    0    0    0    0 -0.00000000000E+00 -0.00000000000E+00 -0.45593999997E+02  0.45594000000E+02  0.51100000000E-03 0. -1.
    9900012    2    1    2    0    0  0.12542353776E+02  0.38849790700E+02 -0.14731134697E+02  0.47787271836E+02  0.20000003611E+02 0.  0.
        -12    1    1    2    0    0 -0.12542353776E+02 -0.38849790700E+02  0.14731134697E+02  0.43400728164E+02  0.00000000000E+00 0.  1.
         11    1    3    3    0    0  0.17840397109E+02  0.31637849892E+02 -0.12575160742E+02  0.38436544886E+02  0.51100000000E-03 0. -1.
        -11    1    3    3    0    0 -0.44477414507E+01  0.67179111071E+01 -0.22436790566E+01  0.83634221241E+01  0.51100000000E-03 0.  1.
         12    1    3    3    0    0 -0.85030188213E+00  0.49402970055E+00  0.87705102018E-01  0.98730482664E+00  0.00000000000E+00 0. -1.
</event>
<event>
 7    1  0.2497395E-009  0.4778727E+02  0.7816164E-02  0.1312668E+00
        -11   -1    0    0    0    0  0.00000000000E+00  0.00000000000E+00  0.45593999997E+02  0.45594000000E+02  0.51100000000E-03 0. -1.
         11   -1    0    0    0    0 -0.00000000000E+00 -0.00000000000E+00 -0.45593999997E+02  0.45594000000E+02  0.51100000000E-03 0.  1.
    9900012    2    1    2    0    0 -0.90323765043E+01  0.11664881190E+02  0.40816299035E+02  0.47787267916E+02  0.19999985738E+02 0.  0.
        -12    1    1    2    0    0  0.90323765043E+01 -0.11664881190E+02 -0.40816299035E+02  0.43400732084E+02  0.00000000000E+00 0.  1.
         11    1    3    3    0    0 -0.54262487136E+01  0.13221275885E+02  0.16421171366E+02  0.21769271472E+02  0.51100000000E-03 0. -1.
        -11    1    3    3    0    0 -0.52377820074E+01  0.17112528228E+00  0.22105292227E+02  0.22718001429E+02  0.51100000000E-03 0.  1.
         12    1    3    3    0    0  0.16316542168E+01 -0.17275199768E+01  0.22898354412E+01  0.32999950153E+01  0.00000000000E+00 0. -1.
</event>
<event>
 7    1  0.2497395E-009  0.4778726E+02  0.7816164E-02  0.1312668E+00
        -11   -1    0    0    0    0  0.00000000000E+00  0.00000000000E+00  0.45593999997E+02  0.45594000000E+02  0.51100000000E-03 0. -1.
         11   -1    0    0    0    0 -0.00000000000E+00 -0.00000000000E+00 -0.45593999997E+02  0.45594000000E+02  0.51100000000E-03 0.  1.
    9900012    2    1    2    0    0  0.42657563010E+02 -0.96574879703E+00 -0.79387374174E+01  0.47787263780E+02  0.19999966879E+02 0.  0.
        -12    1    1    2    0    0 -0.42657563010E+02  0.96574879703E+00  0.79387374174E+01  0.43400736220E+02  0.00000000000E+00 0.  1.
         11    1    3    3    0    0  0.28535659444E+02 -0.11810708606E+01 -0.11503752525E+02  0.30789854022E+02  0.51100000000E-03 0. -1.
        -11    1    3    3    0    0  0.64062707672E+01  0.35580772940E+01 -0.10543073355E+01  0.74034980510E+01  0.51100000000E-03 0.  1.
         12    1    3    3    0    0  0.77156327988E+01 -0.33427552305E+01  0.46193224431E+01  0.95939117075E+01  0.00000000000E+00 0. -1.
</event>
<event>
 7    1  0.2497395E-009  0.4778727E+02  0.7816164E-02  0.1312668E+00
        -11   -1    0    0    0    0  0.00000000000E+00  0.00000000000E+00  0.45593999997E+02  0.45594000000E+02  0.51100000000E-03 0.  1.
         11   -1    0    0    0    0 -0.00000000000E+00 -0.00000000000E+00 -0.45593999997E+02  0.45594000000E+02  0.51100000000E-03 0. -1.
    9900012    2    1    2    0    0 -0.28706646421E+02  0.48642647013E+00 -0.32547118226E+02  0.47787273459E+02  0.20000011011E+02 0.  0.
        -12    1    1    2    0    0  0.28706646421E+02 -0.48642647013E+00  0.32547118226E+02  0.43400726541E+02  0.00000000000E+00 0.  1.
         11    1    3    3    0    0 -0.24225351881E+02 -0.55108484382E+01 -0.22567659862E+02  0.33563915091E+02  0.51100000000E-03 0. -1.
        -11    1    3    3    0    0 -0.88404052564E+00 -0.85821645041E+00  0.38112138667E+00  0.12896964369E+01  0.51100000000E-03 0.  1.
         12    1    3    3    0    0 -0.35972540138E+01  0.68554913587E+01 -0.10360579750E+02  0.12933661932E+02  0.00000000000E+00 0. -1.
</event>
<event>
 7    1  0.2497395E-009  0.4778728E+02  0.7816164E-02  0.1312668E+00
        -11   -1    0    0    0    0  0.00000000000E+00  0.00000000000E+00  0.45593999997E+02  0.45594000000E+02  0.51100000000E-03 0.  1.
         11   -1    0    0    0    0 -0.00000000000E+00 -0.00000000000E+00 -0.45593999997E+02  0.45594000000E+02  0.51100000000E-03 0. -1.
    9900012    2    1    2    0    0  0.15615097274E+02 -0.20523935629E+02 -0.34907874647E+02  0.47787275249E+02  0.20000019169E+02 0.  0.
        -12    1    1    2    0    0 -0.15615097274E+02  0.20523935629E+02  0.34907874647E+02  0.43400724751E+02  0.00000000000E+00 0.  1.
         11    1    3    3    0    0  0.12344314982E+02 -0.11934842628E+02 -0.10247452606E+02  0.19995821216E+02  0.51100000000E-03 0. -1.
        -11    1    3    3    0    0 -0.16817362577E+01 -0.21331177810E+01 -0.12177093213E+01  0.29767842650E+01  0.51100000000E-03 0.  1.
         12    1    3    3    0    0  0.49525185497E+01 -0.64559752205E+01 -0.23442712720E+02  0.24814669768E+02  0.00000000000E+00 0. -1.
</event>
<event>
 7    1  0.2497395E-009  0.4778727E+02  0.7816164E-02  0.1312668E+00
        -11   -1    0    0    0    0  0.00000000000E+00  0.00000000000E+00  0.45593999997E+02  0.45594000000E+02  0.51100000000E-03 0.  1.
         11   -1    0    0    0    0 -0.00000000000E+00 -0.00000000000E+00 -0.45593999997E+02  0.45594000000E+02  0.51100000000E-03 0. -1.
    9900012    2    1    2    0    0 -0.13272165217E+02  0.11475126998E+02 -0.39696276791E+02  0.47787270741E+02  0.19999998617E+02 0.  0.
        -12    1    1    2    0    0  0.13272165217E+02 -0.11475126998E+02  0.39696276791E+02  0.43400729259E+02  0.00000000000E+00 0.  1.
         11    1    3    3    0    0  0.31114985825E+01  0.76167977747E+01 -0.12513566286E+02  0.14976193549E+02  0.51100000000E-03 0. -1.
        -11    1    3    3    0    0 -0.17016642262E+02  0.29752867821E+01 -0.25247588705E+02  0.30591815588E+02  0.51100000000E-03 0.  1.
        -12    1    3    3    0    0  0.63297846238E+00  0.88304244075E+00 -0.19351217998E+01  0.22192616038E+01  0.00000000000E+00 0.  1.
</event>
<event>
 7    1  0.2497395E-009  0.4778727E+02  0.7816164E-02  0.1312668E+00
        -11   -1    0    0    0    0  0.00000000000E+00  0.00000000000E+00  0.45593999997E+02  0.45594000000E+02  0.51100000000E-03 0.  1.
         11   -1    0    0    0    0 -0.00000000000E+00 -0.00000000000E+00 -0.45593999997E+02  0.45594000000E+02  0.51100000000E-03 0. -1.
    9900012    2    1    2    0    0  0.27656245011E+01 -0.21219442257E+02 -0.37758577348E+02  0.47787267611E+02  0.19999984345E+02 0.  0.
        -12    1    1    2    0    0 -0.27656245011E+01  0.21219442257E+02  0.37758577348E+02  0.43400732389E+02  0.00000000000E+00 0.  1.
         11    1    3    3    0    0 -0.72193400274E+01 -0.96343315081E+01 -0.13499802386E+02  0.18088224865E+02  0.51100000000E-03 0. -1.
        -11    1    3    3    0    0  0.86132548184E+01 -0.50233195123E+01 -0.11031046042E+02  0.14869629267E+02  0.51100000000E-03 0.  1.
         12    1    3    3    0    0  0.13717097102E+01 -0.65617912363E+01 -0.13227728920E+02  0.14829413479E+02  0.00000000000E+00 0. -1.
</event>
<event>
 7    1  0.2497395E-009  0.4778728E+02  0.7816164E-02  0.1312668E+00
        -11   -1    0    0    0    0  0.00000000000E+00  0.00000000000E+00  0.45593999997E+02  0.45594000000E+02  0.51100000000E-03 0. -1.
         11   -1    0    0    0    0 -0.00000000000E+00 -0.00000000000E+00 -0.45593999997E+02  0.45594000000E+02  0.51100000000E-03 0.  1.
    9900012    2    1    2    0    0  0.29421211231E+02  0.29698567903E+02  0.11662339768E+02  0.47787276796E+02  0.20000026224E+02 0.  0.
        -12    1    1    2    0    0 -0.29421211231E+02 -0.29698567903E+02 -0.11662339768E+02  0.43400723204E+02  0.00000000000E+00 0.  1.
         11    1    3    3    0    0  0.91075019889E+01  0.55946228576E+01  0.10581472390E+02  0.15040410752E+02  0.51100000000E-03 0. -1.
        -11    1    3    3    0    0 -0.60446659355E+00  0.22930602569E+01 -0.70375548777E+00  0.24736162298E+01  0.51100000000E-03 0.  1.
         12    1    3    3    0    0  0.20918175836E+02  0.21810884788E+02  0.17846228657E+01  0.30273249814E+02  0.00000000000E+00 0. -1.
</event>
<event>
 7    1  0.2497395E-009  0.4778727E+02  0.7816164E-02  0.1312668E+00
        -11   -1    0    0    0    0  0.00000000000E+00  0.00000000000E+00  0.45593999997E+02  0.45594000000E+02  0.51100000000E-03 0. -1.
         11   -1    0    0    0    0 -0.00000000000E+00 -0.00000000000E+00 -0.45593999997E+02  0.45594000000E+02  0.51100000000E-03 0.  1.
    9900012    2    1    2    0    0 -0.39048372488E+02  0.41782234758E+01  0.18476746276E+02  0.47787273067E+02  0.20000009221E+02 0.  0.
        -12    1    1    2    0    0  0.39048372488E+02 -0.41782234758E+01 -0.18476746276E+02  0.43400726933E+02  0.00000000000E+00 0.  1.
         11    1    3    3    0    0 -0.21331548667E+02 -0.26939197480E+01  0.14002573224E+02  0.25658609263E+02  0.51100000000E-03 0. -1.
        -11    1    3    3    0    0 -0.17977805875E+00  0.38755974409E+01  0.73530001621E+00  0.39488279336E+01  0.51100000000E-03 0.  1.
         12    1    3    3    0    0 -0.17537045762E+02  0.29965457830E+01  0.37388730353E+01  0.18179835870E+02  0.00000000000E+00 0. -1.
</event>
<event>
 7    1  0.2497395E-009  0.4778725E+02  0.7816164E-02  0.1312668E+00
        -11   -1    0    0    0    0  0.00000000000E+00  0.00000000000E+00  0.45593999997E+02  0.45594000000E+02  0.51100000000E-03 0. -1.
         11   -1    0    0    0    0 -0.00000000000E+00 -0.00000000000E+00 -0.45593999997E+02  0.45594000000E+02  0.51100000000E-03 0.  1.
    9900012    2    1    2    0    0 -0.20494905169E+02  0.13978210505E+02  0.35611700671E+02  0.47787254252E+02  0.19999923436E+02 0.  0.
        -12    1    1    2    0    0  0.20494905169E+02 -0.13978210505E+02 -0.35611700671E+02  0.43400745748E+02  0.00000000000E+00 0.  1.
         11    1    3    3    0    0 -0.11758253416E+02  0.10660608837E+02  0.24100630234E+02  0.28857329782E+02  0.51100000000E-03 0. -1.
        -11    1    3    3    0    0 -0.93521018760E-01 -0.90037272826E+00 -0.20868034325E+01  0.22746793308E+01  0.51100000000E-03 0.  1.
        -12    1    3    3    0    0 -0.86431307343E+01  0.42179743960E+01  0.13597873869E+02  0.16655245139E+02  0.00000000000E+00 0.  1.
</event>
<event>
 7    1  0.2497395E-009  0.4778727E+02  0.7816164E-02  0.1312668E+00
        -11   -1    0    0    0    0  0.00000000000E+00  0.00000000000E+00  0.45593999997E+02  0.45594000000E+02  0.51100000000E-03 0.  1.
         11   -1    0    0    0    0 -0.00000000000E+00 -0.00000000000E+00 -0.45593999997E+02  0.45594000000E+02  0.51100000000E-03 0. -1.
    9900012    2    1    2    0    0 -0.34774316980E+02  0.15259745915E+02 -0.21012142069E+02  0.47787273265E+02  0.20000010125E+02 0.  0.
        -12    1    1    2    0    0  0.34774316980E+02 -0.15259745915E+02  0.21012142069E+02  0.43400726735E+02  0.00000000000E+00 0.  1.
         11    1    3    3    0    0 -0.26756895293E+02  0.10740858525E+02 -0.12437844298E+02  0.31400596469E+02  0.51100000000E-03 0. -1.
        -11    1    3    3    0    0 -0.10037730633E+02  0.20758385246E+01 -0.83281531016E+01  0.13206940455E+02  0.51100000000E-03 0.  1.
         12    1    3    3    0    0  0.20203089463E+01  0.24430488658E+01 -0.24614466904E+00  0.31797363409E+01  0.00000000000E+00 0. -1.
</event>
<event>
 7    1  0.2497395E-009  0.4778727E+02  0.7816164E-02  0.1312668E+00
        -11   -1    0    0    0    0  0.00000000000E+00  0.00000000000E+00  0.45593999997E+02  0.45594000000E+02  0.51100000000E-03 0.  1.
         11   -1    0    0    0    0 -0.00000000000E+00 -0.00000000000E+00 -0.45593999997E+02  0.45594000000E+02  0.51100000000E-03 0. -1.
    9900012    2    1    2    0    0 -0.23842797722E+02 -0.15935480485E+01 -0.36229893260E+02  0.47787267700E+02  0.19999984750E+02 0.  0.
        -12    1    1    2    0    0  0.23842797722E+02  0.15935480485E+01  0.36229893260E+02  0.43400732300E+02  0.00000000000E+00 0.  1.
         11    1    3    3    0    0 -0.20448141106E+02 -0.80147426222E+01 -0.27482661242E+02  0.35180381509E+02  0.51100000000E-03 0. -1.
        -11    1    3    3    0    0 -0.18295334855E+01 -0.26348829001E-03 -0.25730748760E+00  0.18475389707E+01  0.51100000000E-03 0.  1.
         12    1    3    3    0    0 -0.15651231307E+01  0.64214580620E+01 -0.84899245306E+01  0.10759347220E+02  0.00000000000E+00 0. -1.
</event>
<event>
 7    1  0.2497395E-009  0.4778727E+02  0.7816164E-02  0.1312668E+00
        -11   -1    0    0    0    0  0.00000000000E+00  0.00000000000E+00  0.45593999997E+02  0.45594000000E+02  0.51100000000E-03 0.  1.
         11   -1    0    0    0    0 -0.00000000000E+00 -0.00000000000E+00 -0.45593999997E+02  0.45594000000E+02  0.51100000000E-03 0. -1.
    9900012    2    1    2    0    0 -0.21211549260E+02 -0.35019974189E+02  0.14397744438E+02  0.47787268910E+02  0.19999990270E+02 0.  0.
        -12    1    1    2    0    0  0.21211549260E+02  0.35019974189E+02 -0.14397744438E+02  0.43400731090E+02  0.00000000000E+00 0.  1.
         11    1    3    3    0    0 -0.11328364889E+02 -0.13517209190E+02  0.22815371742E+01  0.17783481309E+02  0.51100000000E-03 0. -1.
        -11    1    3    3    0    0 -0.84670678332E+00 -0.75302925988E+01  0.10958885833E+02  0.13323640567E+02  0.51100000000E-03 0.  1.
        -12    1    3    3    0    0 -0.90364775877E+01 -0.13972472400E+02  0.11573214303E+01  0.16680147034E+02  0.00000000000E+00 0.  1.
</event>
<event>
 7    1  0.2497395E-009  0.4778728E+02  0.7816164E-02  0.1312668E+00
        -11   -1    0    0    0    0  0.00000000000E+00  0.00000000000E+00  0.45593999997E+02  0.45594000000E+02  0.51100000000E-03 0. -1.
         11   -1    0    0    0    0 -0.00000000000E+00 -0.00000000000E+00 -0.45593999997E+02  0.45594000000E+02  0.51100000000E-03 0.  1.
    9900012    2    1    2    0    0  0.25319659851E+02 -0.34968659005E+02 -0.44418831888E+01  0.47787278648E+02  0.20000034669E+02 0.  0.
        -12    1    1    2    0    0 -0.25319659851E+02  0.34968659005E+02  0.44418831888E+01  0.43400721352E+02  0.00000000000E+00 0.  1.
         11    1    3    3    0    0  0.15213722042E+02 -0.22600991193E+02  0.14307808703E+01  0.27282032099E+02  0.51100000000E-03 0. -1.
        -11    1    3    3    0    0 -0.10484124202E+01  0.11808880562E+01  0.74947591173E+00  0.17479644183E+01  0.51100000000E-03 0.  1.
        -12    1    3    3    0    0  0.11154350229E+02 -0.13548555868E+02 -0.66221399708E+01  0.18757282131E+02  0.00000000000E+00 0.  1.
</event>
<event>
 7    1  0.2497395E-009  0.4778727E+02  0.7816164E-02  0.1312668E+00
        -11   -1    0    0    0    0  0.00000000000E+00  0.00000000000E+00  0.45593999997E+02  0.45594000000E+02  0.51100000000E-03 0.  1.
         11   -1    0    0    0    0 -0.00000000000E+00 -0.00000000000E+00 -0.45593999997E+02  0.45594000000E+02  0.51100000000E-03 0. -1.
    9900012    2    1    2    0    0  0.12450707009E+02  0.18768758123E+02 -0.37099013787E+02  0.47787271775E+02  0.20000003330E+02 0.  0.
        -12    1    1    2    0    0 -0.12450707009E+02 -0.18768758123E+02  0.37099013787E+02  0.43400728225E+02  0.00000000000E+00 0.  1.
         11    1    3    3    0    0  0.35534935739E+01  0.13253061234E+02 -0.24056526278E+02  0.27694537466E+02  0.51100000000E-03 0. -1.
        -11    1    3    3    0    0 -0.25067754423E+00  0.24015193505E+01  0.13429527816E+01  0.27629073196E+01  0.51100000000E-03 0.  1.
         12    1    3    3    0    0  0.91478909792E+01  0.31141775386E+01 -0.14385440291E+02  0.17329826989E+02  0.00000000000E+00 0. -1.
</event>
<event>
 7    1  0.2497395E-009  0.4778727E+02  0.7816164E-02  0.1312668E+00
        -11   -1    0    0    0    0  0.00000000000E+00  0.00000000000E+00  0.45593999997E+02  0.45594000000E+02  0.51100000000E-03 0. -1.
         11   -1    0    0    0    0 -0.00000000000E+00 -0.00000000000E+00 -0.45593999997E+02  0.45594000000E+02  0.51100000000E-03 0.  1.
    9900012    2    1    2    0    0  0.82215177712E+01 -0.26603085875E+02  0.33291231639E+02  0.47787266866E+02  0.19999980948E+02 0.  0.
        -12    1    1    2    0    0 -0.82215177712E+01  0.26603085875E+02 -0.33291231639E+02  0.43400733134E+02  0.00000000000E+00 0.  1.
         11    1    3    3    0    0  0.53302017255E+01 -0.50981225901E+01  0.75498088557E+01  0.10554691772E+02  0.51100000000E-03 0. -1.
        -11    1    3    3    0    0  0.70313402768E+01 -0.29872290109E+01  0.50490158989E+01  0.91572837163E+01  0.51100000000E-03 0.  1.
        -12    1    3    3    0    0 -0.41400242311E+01 -0.18517734274E+02  0.20692406885E+02  0.28075291378E+02  0.00000000000E+00 0.  1.
</event>
<event>
 7    1  0.2497395E-009  0.4778725E+02  0.7816164E-02  0.1312668E+00
        -11   -1    0    0    0    0  0.00000000000E+00  0.00000000000E+00  0.45593999997E+02  0.45594000000E+02  0.51100000000E-03 0.  1.
         11   -1    0    0    0    0 -0.00000000000E+00 -0.00000000000E+00 -0.45593999997E+02  0.45594000000E+02  0.51100000000E-03 0. -1.
    9900012    2    1    2    0    0  0.16791995018E+02  0.25986639526E+02 -0.30435968485E+02  0.47787254520E+02  0.19999924660E+02 0.  0.
        -12    1    1    2    0    0 -0.16791995018E+02 -0.25986639526E+02  0.30435968485E+02  0.43400745480E+02  0.00000000000E+00 0.  1.
         11    1    3    3    0    0  0.28452765196E+01  0.13001453180E+02 -0.76568664997E+01  0.15354510351E+02  0.51100000000E-03 0. -1.
        -11    1    3    3    0    0  0.13202882930E+02  0.37968582696E+01 -0.15293964225E+02  0.20558151483E+02  0.51100000000E-03 0.  1.
        -12    1    3    3    0    0  0.74383556854E+00  0.91883280766E+01 -0.74851377602E+01  0.11874592687E+02  0.00000000000E+00 0.  1.
</event>
<event>
 7    1  0.2497395E-009  0.4778727E+02  0.7816164E-02  0.1312668E+00
        -11   -1    0    0    0    0  0.00000000000E+00  0.00000000000E+00  0.45593999997E+02  0.45594000000E+02  0.51100000000E-03 0.  1.
         11   -1    0    0    0    0 -0.00000000000E+00 -0.00000000000E+00 -0.45593999997E+02  0.45594000000E+02  0.51100000000E-03 0. -1.
    9900012    2    1    2    0    0 -0.36180175097E+02  0.23211553458E+02 -0.59867915181E+01  0.47787274699E+02  0.20000016664E+02 0.  0.
        -12    1    1    2    0    0  0.36180175097E+02 -0.23211553458E+02  0.59867915181E+01  0.43400725301E+02  0.00000000000E+00 0.  1.
         11    1    3    3    0    0 -0.80469595657E+01  0.40905094226E+01 -0.15175532563E+01  0.91536218917E+01  0.51100000000E-03 0.  1.
        -11    1    3    3    0    0 -0.15114877708E+02  0.92736159918E+01 -0.11203680076E+02  0.20975746213E+02  0.51100000000E-03 0. -1.
        -12    1    3    3    0    0 -0.13018337823E+02  0.98474280431E+01  0.67344418146E+01  0.17657906595E+02  0.00000000000E+00 0.  1.
</event>
<event>
 7    1  0.2497395E-009  0.4778727E+02  0.7816164E-02  0.1312668E+00
        -11   -1    0    0    0    0  0.00000000000E+00  0.00000000000E+00  0.45593999997E+02  0.45594000000E+02  0.51100000000E-03 0.  1.
         11   -1    0    0    0    0 -0.00000000000E+00 -0.00000000000E+00 -0.45593999997E+02  0.45594000000E+02  0.51100000000E-03 0. -1.
    9900012    2    1    2    0    0  0.24463143245E+02 -0.54796773784E+01 -0.35428113483E+02  0.47787268825E+02  0.19999989880E+02 0.  0.
        -12    1    1    2    0    0 -0.24463143245E+02  0.54796773784E+01  0.35428113483E+02  0.43400731175E+02  0.00000000000E+00 0.  1.
         11    1    3    3    0    0  0.55963439273E+01 -0.75589407776E+01 -0.87208914578E+01  0.12826168528E+02  0.51100000000E-03 0. -1.
        -11    1    3    3    0    0  0.11924548560E+02  0.52990523838E+01 -0.23032236553E+02  0.26471847979E+02  0.51100000000E-03 0.  1.
        -12    1    3    3    0    0  0.69422507584E+01 -0.32197889846E+01 -0.36749854715E+01  0.84892523177E+01  0.00000000000E+00 0.  1.
</event>
<event>
 7    1  0.2497395E-009  0.4778727E+02  0.7816164E-02  0.1312668E+00
        -11   -1    0    0    0    0  0.00000000000E+00  0.00000000000E+00  0.45593999997E+02  0.45594000000E+02  0.51100000000E-03 0.  1.
         11   -1    0    0    0    0 -0.00000000000E+00 -0.00000000000E+00 -0.45593999997E+02  0.45594000000E+02  0.51100000000E-03 0. -1.
    9900012    2    1    2    0    0  0.16535203675E+02  0.40103704675E+02  0.13795541732E+01  0.47787271216E+02  0.20000000784E+02 0.  0.
        -12    1    1    2    0    0 -0.16535203675E+02 -0.40103704675E+02 -0.13795541732E+01  0.43400728784E+02  0.00000000000E+00 0.  1.
         11    1    3    3    0    0  0.16324322417E+02  0.17372156858E+02 -0.25229757618E+01  0.23971665425E+02  0.51100000000E-03 0. -1.
        -11    1    3    3    0    0 -0.21105724540E+01  0.18481035518E+02  0.24659983659E+01  0.18763910522E+02  0.51100000000E-03 0.  1.
        -12    1    3    3    0    0  0.23214537117E+01  0.42505122995E+01  0.14365315691E+01  0.50516952692E+01  0.00000000000E+00 0.  1.
</event>
<event>
 7    1  0.2497395E-009  0.4778727E+02  0.7816164E-02  0.1312668E+00
        -11   -1    0    0    0    0  0.00000000000E+00  0.00000000000E+00  0.45593999997E+02  0.45594000000E+02  0.51100000000E-03 0. -1.
         11   -1    0    0    0    0 -0.00000000000E+00 -0.00000000000E+00 -0.45593999997E+02  0.45594000000E+02  0.51100000000E-03 0.  1.
    9900012    2    1    2    0    0  0.40371262987E+02  0.10367294048E+02 -0.12095593956E+02  0.47787273575E+02  0.20000011539E+02 0.  0.
        -12    1    1    2    0    0 -0.40371262987E+02 -0.10367294048E+02  0.12095593956E+02  0.43400726425E+02  0.00000000000E+00 0.  1.
         11    1    3    3    0    0  0.35109719689E+02  0.72800972352E+01 -0.32465342773E+01  0.36003225098E+02  0.51100000000E-03 0. -1.
        -11    1    3    3    0    0  0.34219470158E+01  0.30939520482E+01 -0.88091435517E+01  0.99440067895E+01  0.51100000000E-03 0.  1.
        -12    1    3    3    0    0  0.18395962828E+01 -0.67552352401E-02 -0.39916126673E-01  0.18400416881E+01  0.00000000000E+00 0.  1.
</event>
<event>
 7    1  0.2497395E-009  0.4778727E+02  0.7816164E-02  0.1312668E+00
        -11   -1    0    0    0    0  0.00000000000E+00  0.00000000000E+00  0.45593999997E+02  0.45594000000E+02  0.51100000000E-03 0. -1.
         11   -1    0    0    0    0 -0.00000000000E+00 -0.00000000000E+00 -0.45593999997E+02  0.45594000000E+02  0.51100000000E-03 0.  1.
    9900012    2    1    2    0    0 -0.86641389375E+01 -0.95828568787E+00  0.42516324001E+02  0.47787269343E+02  0.19999992243E+02 0.  0.
        -12    1    1    2    0    0  0.86641389375E+01  0.95828568787E+00 -0.42516324001E+02  0.43400730657E+02  0.00000000000E+00 0.  1.
         11    1    3    3    0    0 -0.54550314985E+01 -0.67978437479E+01  0.19051067302E+02  0.20950207968E+02  0.51100000000E-03 0. -1.
        -11    1    3    3    0    0  0.71274784119E+00  0.36442795873E+01  0.88964817404E+00  0.38184103145E+01  0.51100000000E-03 0.  1.
        -12    1    3    3    0    0 -0.39218552803E+01  0.21952784728E+01  0.22575608524E+02  0.23018651061E+02  0.00000000000E+00 0.  1.
</event>
<event>
 7    1  0.2497395E-009  0.4778727E+02  0.7816164E-02  0.1312668E+00
        -11   -1    0    0    0    0  0.00000000000E+00  0.00000000000E+00  0.45593999997E+02  0.45594000000E+02  0.51100000000E-03 0.  1.
         11   -1    0    0    0    0 -0.00000000000E+00 -0.00000000000E+00 -0.45593999997E+02  0.45594000000E+02  0.51100000000E-03 0. -1.
    9900012    2    1    2    0    0  0.32919489151E+02  0.28229660768E+02  0.17370282958E+01  0.47787265210E+02  0.19999973397E+02 0.  0.
        -12    1    1    2    0    0 -0.32919489151E+02 -0.28229660768E+02 -0.17370282958E+01  0.43400734790E+02  0.00000000000E+00 0.  1.
         11    1    3    3    0    0  0.23679948898E+02  0.17431995202E+02  0.21842304174E+01  0.29485340414E+02  0.51100000000E-03 0. -1.
        -11    1    3    3    0    0  0.19761115569E+01 -0.13107986790E+01  0.29442131927E+01  0.37804234746E+01  0.51100000000E-03 0.  1.
        -12    1    3    3    0    0  0.72634286962E+01  0.12108464245E+02 -0.33914153143E+01  0.14521501321E+02  0.00000000000E+00 0.  1.
</event>
<event>
 7    1  0.2497395E-009  0.4778727E+02  0.7816164E-02  0.1312668E+00
        -11   -1    0    0    0    0  0.00000000000E+00  0.00000000000E+00  0.45593999997E+02  0.45594000000E+02  0.51100000000E-03 0.  1.
         11   -1    0    0    0    0 -0.00000000000E+00 -0.00000000000E+00 -0.45593999997E+02  0.45594000000E+02  0.51100000000E-03 0. -1.
    9900012    2    1    2    0    0  0.23464801193E+02  0.20294511962E+02 -0.30350604093E+02  0.47787270978E+02  0.19999999696E+02 0.  0.
        -12    1    1    2    0    0 -0.23464801193E+02 -0.20294511962E+02  0.30350604093E+02  0.43400729022E+02  0.00000000000E+00 0.  1.
         11    1    3    3    0    0  0.64591009626E+01  0.13812502380E+02 -0.65049823394E+01  0.16577695942E+02  0.51100000000E-03 0.  1.
        -11    1    3    3    0    0  0.17827926650E+02  0.69704259211E+01 -0.23075664759E+02  0.29981796319E+02  0.51100000000E-03 0. -1.
        -12    1    3    3    0    0 -0.82222641947E+00 -0.48841633874E+00 -0.76995699440E+00  0.12277787170E+01  0.00000000000E+00 0.  1.
</event>
<event>
 7    1  0.2497395E-009  0.4778728E+02  0.7816164E-02  0.1312668E+00
        -11   -1    0    0    0    0  0.00000000000E+00  0.00000000000E+00  0.45593999997E+02  0.45594000000E+02  0.51100000000E-03 0. -1.
         11   -1    0    0    0    0 -0.00000000000E+00 -0.00000000000E+00 -0.45593999997E+02  0.45594000000E+02  0.51100000000E-03 0.  1.
    9900012    2    1    2    0    0 -0.72891308234E+01  0.42612933492E+02  0.38248343550E+01  0.47787275503E+02  0.20000020330E+02 0.  0.
        -12    1    1    2    0    0  0.72891308234E+01 -0.42612933492E+02 -0.38248343550E+01  0.43400724497E+02  0.00000000000E+00 0.  1.
         11    1    3    3    0    0 -0.62152354472E+01  0.13106425617E+02  0.98056375880E+01  0.17508799870E+02  0.51100000000E-03 0. -1.
        -11    1    3    3    0    0 -0.96273260898E+00  0.23323930193E+02 -0.59691742629E+01  0.24094887743E+02  0.51100000000E-03 0.  1.
         12    1    3    3    0    0 -0.11116276719E+00  0.61825776826E+01 -0.11628970062E-01  0.61835878902E+01  0.00000000000E+00 0. -1.
</event>
<event>
 7    1  0.2497395E-009  0.4778727E+02  0.7816164E-02  0.1312668E+00
        -11   -1    0    0    0    0  0.00000000000E+00  0.00000000000E+00  0.45593999997E+02  0.45594000000E+02  0.51100000000E-03 0.  1.
         11   -1    0    0    0    0 -0.00000000000E+00 -0.00000000000E+00 -0.45593999997E+02  0.45594000000E+02  0.51100000000E-03 0. -1.
    9900012    2    1    2    0    0 -0.32468662719E+00 -0.38524640191E+02 -0.19984241038E+02  0.47787271744E+02  0.20000003190E+02 0.  0.
        -12    1    1    2    0    0  0.32468662719E+00  0.38524640191E+02  0.19984241038E+02  0.43400728256E+02  0.00000000000E+00 0.  1.
         11    1    3    3    0    0 -0.47526045335E-01 -0.28256538039E+02 -0.16963168295E+02  0.32957294785E+02  0.51100000000E-03 0. -1.
        -11    1    3    3    0    0 -0.26492238158E+01  0.10167552297E+01 -0.14665436847E+01  0.31942023517E+01  0.51100000000E-03 0.  1.
        -12    1    3    3    0    0  0.23720632340E+01 -0.11284857382E+02 -0.15545290582E+01  0.11635774608E+02  0.00000000000E+00 0.  1.
</event>
<event>
 7    1  0.2497395E-009  0.4778727E+02  0.7816164E-02  0.1312668E+00
        -11   -1    0    0    0    0  0.00000000000E+00  0.00000000000E+00  0.45593999997E+02  0.45594000000E+02  0.51100000000E-03 0. -1.
         11   -1    0    0    0    0 -0.00000000000E+00 -0.00000000000E+00 -0.45593999997E+02  0.45594000000E+02  0.51100000000E-03 0.  1.
    9900012    2    1    2    0    0  0.53276992161E+01  0.14451868495E+02  0.40575636177E+02  0.47787272666E+02  0.20000007395E+02 0.  0.
        -12    1    1    2    0    0 -0.53276992161E+01 -0.14451868495E+02 -0.40575636177E+02  0.43400727334E+02  0.00000000000E+00 0.  1.
         11    1    3    3    0    0  0.67846258035E+01  0.26560025798E+01  0.72074373875E+01  0.10248543846E+02  0.51100000000E-03 0. -1.
        -11    1    3    3    0    0 -0.50871510842E+01  0.80448229732E+01  0.10894722402E+02  0.14466971325E+02  0.51100000000E-03 0.  1.
        -12    1    3    3    0    0  0.36302244967E+01  0.37510429416E+01  0.22473476387E+02  0.23071757496E+02  0.00000000000E+00 0.  1.
</event>
<event>
 7    1  0.2497395E-009  0.4778726E+02  0.7816164E-02  0.1312668E+00
        -11   -1    0    0    0    0  0.00000000000E+00  0.00000000000E+00  0.45593999997E+02  0.45594000000E+02  0.51100000000E-03 0. -1.
         11   -1    0    0    0    0 -0.00000000000E+00 -0.00000000000E+00 -0.45593999997E+02  0.45594000000E+02  0.51100000000E-03 0.  1.
    9900012    2    1    2    0    0 -0.18540325381E+02 -0.14592892561E+02  0.36427021505E+02  0.47787261824E+02  0.19999957960E+02 0.  0.
        -12    1    1    2    0    0  0.18540325381E+02  0.14592892561E+02 -0.36427021505E+02  0.43400738176E+02  0.00000000000E+00 0.  1.
         11    1    3    3    0    0 -0.17368041952E+02 -0.12282027273E+02  0.18850019641E+02  0.28422179999E+02  0.51100000000E-03 0. -1.
        -11    1    3    3    0    0 -0.13187632438E+00  0.22002959291E+01  0.11585635159E+02  0.11793457332E+02  0.51100000000E-03 0.  1.
        -12    1    3    3    0    0 -0.10404071049E+01 -0.45111612173E+01  0.59913667044E+01  0.75716244927E+01  0.00000000000E+00 0.  1.
</event>
<event>
 7    1  0.2497395E-009  0.4778727E+02  0.7816164E-02  0.1312668E+00
        -11   -1    0    0    0    0  0.00000000000E+00  0.00000000000E+00  0.45593999997E+02  0.45594000000E+02  0.51100000000E-03 0.  1.
         11   -1    0    0    0    0 -0.00000000000E+00 -0.00000000000E+00 -0.45593999997E+02  0.45594000000E+02  0.51100000000E-03 0. -1.
    9900012    2    1    2    0    0  0.99299034704E+01  0.22978841071E+02 -0.35454100750E+02  0.47787269823E+02  0.19999994433E+02 0.  0.
        -12    1    1    2    0    0 -0.99299034704E+01 -0.22978841071E+02  0.35454100750E+02  0.43400730177E+02  0.00000000000E+00 0.  1.
         11    1    3    3    0    0  0.27191454621E+01  0.98238262730E+01 -0.13757601215E+02  0.17122292666E+02  0.51100000000E-03 0. -1.
        -11    1    3    3    0    0  0.76057209251E+01  0.99443640049E+01 -0.23739900904E+02  0.26838782786E+02  0.51100000000E-03 0.  1.
        -12    1    3    3    0    0 -0.39496291679E+00  0.32106507927E+01  0.20434013686E+01  0.38261943719E+01  0.00000000000E+00 0.  1.
</event>
<event>
 7    1  0.2497395E-009  0.4778727E+02  0.7816164E-02  0.1312668E+00
        -11   -1    0    0    0    0  0.00000000000E+00  0.00000000000E+00  0.45593999997E+02  0.45594000000E+02  0.51100000000E-03 0. -1.
         11   -1    0    0    0    0 -0.00000000000E+00 -0.00000000000E+00 -0.45593999997E+02  0.45594000000E+02  0.51100000000E-03 0.  1.
    9900012    2    1    2    0    0 -0.46826416332E+01  0.42821256230E+02  0.52949196254E+01  0.47787270840E+02  0.19999999066E+02 0.  0.
        -12    1    1    2    0    0  0.46826416332E+01 -0.42821256230E+02 -0.52949196254E+01  0.43400729160E+02  0.00000000000E+00 0.  1.
         11    1    3    3    0    0 -0.50283660496E+01  0.11911473095E+02  0.47819595934E+01  0.13785310814E+02  0.51100000000E-03 0. -1.
        -11    1    3    3    0    0  0.68794492234E+01  0.10573888156E+02 -0.42054747399E+00  0.12621837933E+02  0.51100000000E-03 0.  1.
        -12    1    3    3    0    0 -0.65337248071E+01  0.20335894979E+02  0.93350750597E+00  0.21380122093E+02  0.00000000000E+00 0.  1.
</event>
<event>
 7    1  0.2497395E-009  0.4778727E+02  0.7816164E-02  0.1312668E+00
        -11   -1    0    0    0    0  0.00000000000E+00  0.00000000000E+00  0.45593999997E+02  0.45594000000E+02  0.51100000000E-03 0. -1.
         11   -1    0    0    0    0 -0.00000000000E+00 -0.00000000000E+00 -0.45593999997E+02  0.45594000000E+02  0.51100000000E-03 0.  1.
    9900012    2    1    2    0    0 -0.38090297840E+02  0.11022842649E+02  0.17642271967E+02  0.47787267174E+02  0.19999982355E+02 0.  0.
        -12    1    1    2    0    0  0.38090297840E+02 -0.11022842649E+02 -0.17642271967E+02  0.43400732826E+02  0.00000000000E+00 0.  1.
         11    1    3    3    0    0  0.16334988299E+01  0.18427974824E+01  0.17122564673E+01  0.29993405041E+01  0.51100000000E-03 0. -1.
        -11    1    3    3    0    0 -0.29133134360E+02  0.52049907012E+01  0.70911912507E+01  0.30432161268E+02  0.51100000000E-03 0.  1.
         12    1    3    3    0    0 -0.10590662310E+02  0.39750544653E+01  0.88388242490E+01  0.14355765402E+02  0.00000000000E+00 0. -1.
</event>
<event>
 7    1  0.2497395E-009  0.4778727E+02  0.7816164E-02  0.1312668E+00
        -11   -1    0    0    0    0  0.00000000000E+00  0.00000000000E+00  0.45593999997E+02  0.45594000000E+02  0.51100000000E-03 0.  1.
         11   -1    0    0    0    0 -0.00000000000E+00 -0.00000000000E+00 -0.45593999997E+02  0.45594000000E+02  0.51100000000E-03 0. -1.
    9900012    2    1    2    0    0  0.25758947073E+02  0.28013235608E+02 -0.20865241238E+02  0.47787274021E+02  0.20000013573E+02 0.  0.
        -12    1    1    2    0    0 -0.25758947073E+02 -0.28013235608E+02  0.20865241238E+02  0.43400725979E+02  0.00000000000E+00 0.  1.
         11    1    3    3    0    0  0.16689046116E+02  0.16648696563E+02 -0.20407315439E+02  0.31179510599E+02  0.51100000000E-03 0. -1.
        -11    1    3    3    0    0  0.26181863143E+01  0.93741553802E+01  0.69739788566E+00  0.97578713222E+01  0.51100000000E-03 0.  1.
         12    1    3    3    0    0  0.64517146428E+01  0.19903836650E+01 -0.11553236842E+01  0.68498921000E+01  0.00000000000E+00 0. -1.
</event>
<event>
 7    1  0.2497395E-009  0.4778727E+02  0.7816164E-02  0.1312668E+00
        -11   -1    0    0    0    0  0.00000000000E+00  0.00000000000E+00  0.45593999997E+02  0.45594000000E+02  0.51100000000E-03 0.  1.
         11   -1    0    0    0    0 -0.00000000000E+00 -0.00000000000E+00 -0.45593999997E+02  0.45594000000E+02  0.51100000000E-03 0. -1.
    9900012    2    1    2    0    0 -0.22941723518E+02 -0.36472699274E+02 -0.52002685174E+01  0.47787271170E+02  0.20000000572E+02 0.  0.
        -12    1    1    2    0    0  0.22941723518E+02  0.36472699274E+02  0.52002685174E+01  0.43400728830E+02  0.00000000000E+00 0.  1.
         11    1    3    3    0    0 -0.19824070384E+02 -0.25278527941E+02 -0.57119879098E+01  0.32628584824E+02  0.51100000000E-03 0. -1.
        -11    1    3    3    0    0 -0.10103690990E+00  0.17500403324E+01 -0.51771686059E+00  0.18278076023E+01  0.51100000000E-03 0.  1.
         12    1    3    3    0    0 -0.30166162241E+01 -0.12944211665E+02  0.10294362530E+01  0.13330878744E+02  0.00000000000E+00 0. -1.
</event>
<event>
 7    1  0.2497395E-009  0.4778728E+02  0.7816164E-02  0.1312668E+00
        -11   -1    0    0    0    0  0.00000000000E+00  0.00000000000E+00  0.45593999997E+02  0.45594000000E+02  0.51100000000E-03 0. -1.
         11   -1    0    0    0    0 -0.00000000000E+00 -0.00000000000E+00 -0.45593999997E+02  0.45594000000E+02  0.51100000000E-03 0.  1.
    9900012    2    1    2    0    0 -0.37744987559E+02 -0.17865845564E+01 -0.21348230474E+02  0.47787275184E+02  0.20000018875E+02 0.  0.
        -12    1    1    2    0    0  0.37744987559E+02  0.17865845564E+01  0.21348230474E+02  0.43400724816E+02  0.00000000000E+00 0.  1.
         11    1    3    3    0    0 -0.71299373951E+01 -0.76664896396E+00 -0.24583411178E+01  0.75807123151E+01  0.51100000000E-03 0. -1.
        -11    1    3    3    0    0 -0.16082069623E+02  0.74808147464E+01 -0.14222873310E+02  0.22735119927E+02  0.51100000000E-03 0.  1.
        -12    1    3    3    0    0 -0.14532980541E+02 -0.85007503389E+01 -0.46670160462E+01  0.17471442942E+02  0.00000000000E+00 0.  1.
</event>
<event>
 7    1  0.2497395E-009  0.4778728E+02  0.7816164E-02  0.1312668E+00
        -11   -1    0    0    0    0  0.00000000000E+00  0.00000000000E+00  0.45593999997E+02  0.45594000000E+02  0.51100000000E-03 0.  1.
         11   -1    0    0    0    0 -0.00000000000E+00 -0.00000000000E+00 -0.45593999997E+02  0.45594000000E+02  0.51100000000E-03 0. -1.
    9900012    2    1    2    0    0  0.18477402952E+02  0.39260668854E+02 -0.89908348162E+00  0.47787275469E+02  0.20000020171E+02 0.  0.
        -12    1    1    2    0    0 -0.18477402952E+02 -0.39260668854E+02  0.89908348162E+00  0.43400724531E+02  0.00000000000E+00 0.  1.
         11    1    3    3    0    0  0.68184375567E+00  0.28108716756E+01  0.46196543243E+01  0.54504235451E+01  0.51100000000E-03 0.  1.
        -11    1    3    3    0    0  0.17946219764E+02  0.36702414461E+02 -0.42972084991E+01  0.41080409348E+02  0.51100000000E-03 0. -1.
         12    1    3    3    0    0 -0.15066056767E+00 -0.25261728179E+00 -0.12215293068E+01  0.12564425754E+01  0.00000000000E+00 0. -1.
</event>
<event>
 7    1  0.2497395E-009  0.4778727E+02  0.7816164E-02  0.1312668E+00
        -11   -1    0    0    0    0  0.00000000000E+00  0.00000000000E+00  0.45593999997E+02  0.45594000000E+02  0.51100000000E-03 0. -1.
         11   -1    0    0    0    0 -0.00000000000E+00 -0.00000000000E+00 -0.45593999997E+02  0.45594000000E+02  0.51100000000E-03 0.  1.
    9900012    2    1    2    0    0 -0.22085030914E+02  0.36100597682E+02 -0.96239979653E+01  0.47787273274E+02  0.20000010168E+02 0.  0.
        -12    1    1    2    0    0  0.22085030914E+02 -0.36100597682E+02  0.96239979653E+01  0.43400726726E+02  0.00000000000E+00 0.  1.
         11    1    3    3    0    0 -0.98023739181E+01  0.13504820399E+02  0.38046698297E+01  0.17115554949E+02  0.51100000000E-03 0. -1.
        -11    1    3    3    0    0 -0.83400929253E+01  0.74387184761E+01 -0.91306668457E+01  0.14431242492E+02  0.51100000000E-03 0.  1.
         12    1    3    3    0    0 -0.39425640711E+01  0.15157058807E+02 -0.42980009492E+01  0.16240475833E+02  0.00000000000E+00 0. -1.
</event>
<event>
 7    1  0.2497395E-009  0.4778727E+02  0.7816164E-02  0.1312668E+00
        -11   -1    0    0    0    0  0.00000000000E+00  0.00000000000E+00  0.45593999997E+02  0.45594000000E+02  0.51100000000E-03 0.  1.
         11   -1    0    0    0    0 -0.00000000000E+00 -0.00000000000E+00 -0.45593999997E+02  0.45594000000E+02  0.51100000000E-03 0. -1.
    9900012    2    1    2    0    0 -0.28518264238E+02 -0.29724373631E+02  0.13667246688E+02  0.47787269419E+02  0.19999992590E+02 0.  0.
        -12    1    1    2    0    0  0.28518264238E+02  0.29724373631E+02 -0.13667246688E+02  0.43400730581E+02  0.00000000000E+00 0.  1.
         11    1    3    3    0    0 -0.42134288731E+01 -0.27289058091E+01  0.24017925315E+01  0.55649364245E+01  0.51100000000E-03 0. -1.
        -11    1    3    3    0    0 -0.19844545948E+01  0.10766175158E+01 -0.28885456510E+01  0.36661780581E+01  0.51100000000E-03 0.  1.
        -12    1    3    3    0    0 -0.22320380770E+02 -0.28072085338E+02  0.14153999808E+02  0.38556154937E+02  0.00000000000E+00 0.  1.
</event>
<event>
 7    1  0.2497395E-009  0.4778727E+02  0.7816164E-02  0.1312668E+00
        -11   -1    0    0    0    0  0.00000000000E+00  0.00000000000E+00  0.45593999997E+02  0.45594000000E+02  0.51100000000E-03 0.  1.
         11   -1    0    0    0    0 -0.00000000000E+00 -0.00000000000E+00 -0.45593999997E+02  0.45594000000E+02  0.51100000000E-03 0. -1.
    9900012    2    1    2    0    0  0.35470877866E+02  0.16304113465E+02 -0.18963540616E+02  0.47787272297E+02  0.20000005709E+02 0.  0.
        -12    1    1    2    0    0 -0.35470877866E+02 -0.16304113465E+02  0.18963540616E+02  0.43400727703E+02  0.00000000000E+00 0.  1.
         11    1    3    3    0    0  0.48418483669E+01  0.33818920173E+01 -0.26463850555E+01  0.64717882651E+01  0.51100000000E-03 0. -1.
        -11    1    3    3    0    0 -0.96019888496E+00  0.53535902504E+01 -0.29688729656E+01  0.61965407620E+01  0.51100000000E-03 0.  1.
        -12    1    3    3    0    0  0.31589228385E+02  0.75686311973E+01 -0.13348282595E+02  0.35118943269E+02  0.00000000000E+00 0.  1.
</event>
<event>
 7    1  0.2497395E-009  0.4778727E+02  0.7816164E-02  0.1312668E+00
        -11   -1    0    0    0    0  0.00000000000E+00  0.00000000000E+00  0.45593999997E+02  0.45594000000E+02  0.51100000000E-03 0.  1.
         11   -1    0    0    0    0 -0.00000000000E+00 -0.00000000000E+00 -0.45593999997E+02  0.45594000000E+02  0.51100000000E-03 0. -1.
    9900012    2    1    2    0    0  0.43002020304E+02  0.58681004091E+01  0.12107648518E+00  0.47787274059E+02  0.20000013745E+02 0.  0.
        -12    1    1    2    0    0 -0.43002020304E+02 -0.58681004091E+01 -0.12107648518E+00  0.43400725941E+02  0.00000000000E+00 0.  1.
         11    1    3    3    0    0  0.30569873853E+02  0.85691047650E+01  0.39490010208E+01  0.31992832840E+02  0.51100000000E-03 0. -1.
        -11    1    3    3    0    0  0.65633168959E+01  0.29126365685E+01 -0.22154666338E+01  0.75145773748E+01  0.51100000000E-03 0.  1.
         12    1    3    3    0    0  0.58688295561E+01 -0.56136409245E+01 -0.16124579018E+01  0.82798638438E+01  0.00000000000E+00 0. -1.
</event>
<event>
 7    1  0.2497395E-009  0.4778728E+02  0.7816164E-02  0.1312668E+00
        -11   -1    0    0    0    0  0.00000000000E+00  0.00000000000E+00  0.45593999997E+02  0.45594000000E+02  0.51100000000E-03 0.  1.
         11   -1    0    0    0    0 -0.00000000000E+00 -0.00000000000E+00 -0.45593999997E+02  0.45594000000E+02  0.51100000000E-03 0. -1.
    9900012    2    1    2    0    0  0.34427726446E+02  0.26092047212E+02 -0.41903694841E+01  0.47787280278E+02  0.20000042100E+02 0.  0.
        -12    1    1    2    0    0 -0.34427726446E+02 -0.26092047212E+02  0.41903694841E+01  0.43400719722E+02  0.00000000000E+00 0.  1.
         11    1    3    3    0    0  0.24404431840E+02  0.23695481883E+02  0.18159327249E+01  0.34063907101E+02  0.51100000000E-03 0. -1.
        -11    1    3    3    0    0 -0.10010362624E+01  0.44582096472E+00 -0.20804873195E+00  0.11153987929E+01  0.51100000000E-03 0.  1.
         12    1    3    3    0    0  0.11024330869E+02  0.19507443641E+01 -0.57982534770E+01  0.12607974384E+02  0.00000000000E+00 0. -1.
</event>
<event>
 7    1  0.2497395E-009  0.4778727E+02  0.7816164E-02  0.1312668E+00
        -11   -1    0    0    0    0  0.00000000000E+00  0.00000000000E+00  0.45593999997E+02  0.45594000000E+02  0.51100000000E-03 0.  1.
         11   -1    0    0    0    0 -0.00000000000E+00 -0.00000000000E+00 -0.45593999997E+02  0.45594000000E+02  0.51100000000E-03 0. -1.
    9900012    2    1    2    0    0  0.19964543323E+02  0.23019138476E+02 -0.30905655213E+02  0.47787271315E+02  0.20000001233E+02 0.  0.
        -12    1    1    2    0    0 -0.19964543323E+02 -0.23019138476E+02  0.30905655213E+02  0.43400728685E+02  0.00000000000E+00 0.  1.
         11    1    3    3    0    0  0.70799641214E+01  0.26220910947E+01 -0.16727629567E+02  0.18352516036E+02  0.51100000000E-03 0. -1.
        -11    1    3    3    0    0  0.56222957667E+01  0.19194249865E+01 -0.33548638125E+01  0.68227203833E+01  0.51100000000E-03 0.  1.
         12    1    3    3    0    0  0.72622834344E+01  0.18477622395E+02 -0.10823161834E+02  0.22612034896E+02  0.00000000000E+00 0. -1.
</event>
<event>
 7    1  0.2497395E-009  0.4778727E+02  0.7816164E-02  0.1312668E+00
        -11   -1    0    0    0    0  0.00000000000E+00  0.00000000000E+00  0.45593999997E+02  0.45594000000E+02  0.51100000000E-03 0.  1.
         11   -1    0    0    0    0 -0.00000000000E+00 -0.00000000000E+00 -0.45593999997E+02  0.45594000000E+02  0.51100000000E-03 0. -1.
    9900012    2    1    2    0    0  0.33197338311E+02 -0.23943302346E+02 -0.14431845002E+02  0.47787272491E+02  0.20000006595E+02 0.  0.
        -12    1    1    2    0    0 -0.33197338311E+02  0.23943302346E+02  0.14431845002E+02  0.43400727509E+02  0.00000000000E+00 0.  1.
         11    1    3    3    0    0  0.12730405891E+01 -0.25479964795E+01 -0.50822455588E+01  0.58259882065E+01  0.51100000000E-03 0. -1.
        -11    1    3    3    0    0  0.13258500183E+02 -0.43909186816E+01  0.22977402553E+01  0.14154419964E+02  0.51100000000E-03 0.  1.
        -12    1    3    3    0    0  0.18665797538E+02 -0.17004387185E+02 -0.11647339698E+02  0.27806864320E+02  0.00000000000E+00 0.  1.
</event>
<event>
 7    1  0.2497395E-009  0.4778728E+02  0.7816164E-02  0.1312668E+00
        -11   -1    0    0    0    0  0.00000000000E+00  0.00000000000E+00  0.45593999997E+02  0.45594000000E+02  0.51100000000E-03 0. -1.
         11   -1    0    0    0    0 -0.00000000000E+00 -0.00000000000E+00 -0.45593999997E+02  0.45594000000E+02  0.51100000000E-03 0.  1.
    9900012    2    1    2    0    0 -0.40581126571E+02 -0.15091152871E+02  0.30086876517E+01  0.47787275004E+02  0.20000018054E+02 0.  0.
        -12    1    1    2    0    0  0.40581126571E+02  0.15091152871E+02 -0.30086876517E+01  0.43400724996E+02  0.00000000000E+00 0.  1.
         11    1    3    3    0    0 -0.18018257363E+02 -0.67292882610E+01  0.10119780260E+02  0.21733634571E+02  0.51100000000E-03 0.  1.
        -11    1    3    3    0    0 -0.14271025533E+02 -0.50553073412E+01 -0.79269690779E+01  0.17089620859E+02  0.51100000000E-03 0. -1.
        -12    1    3    3    0    0 -0.82918436758E+01 -0.33065572690E+01  0.81587646945E+00  0.89640195744E+01  0.00000000000E+00 0.  1.
</event>
<event>
 7    1  0.2497395E-009  0.4778727E+02  0.7816164E-02  0.1312668E+00
        -11   -1    0    0    0    0  0.00000000000E+00  0.00000000000E+00  0.45593999997E+02  0.45594000000E+02  0.51100000000E-03 0.  1.
         11   -1    0    0    0    0 -0.00000000000E+00 -0.00000000000E+00 -0.45593999997E+02  0.45594000000E+02  0.51100000000E-03 0. -1.
    9900012    2    1    2    0    0 -0.35962985943E+02  0.23043195573E+02 -0.77005316785E+01  0.47787269496E+02  0.19999992939E+02 0.  0.
        -12    1    1    2    0    0  0.35962985943E+02 -0.23043195573E+02  0.77005316785E+01  0.43400730504E+02  0.00000000000E+00 0.  1.
         11    1    3    3    0    0 -0.18131944588E+02  0.51387544173E+01  0.32530475443E+01  0.19124762223E+02  0.51100000000E-03 0. -1.
        -11    1    3    3    0    0 -0.39356972574E+01  0.48036452624E+01 -0.66253644979E+01  0.90807585421E+01  0.51100000000E-03 0.  1.
         12    1    3    3    0    0 -0.13895344098E+02  0.13100795893E+02 -0.43282147249E+01  0.19581748730E+02  0.00000000000E+00 0. -1.
</event>
<event>
 7    1  0.2497395E-009  0.4778726E+02  0.7816164E-02  0.1312668E+00
        -11   -1    0    0    0    0  0.00000000000E+00  0.00000000000E+00  0.45593999997E+02  0.45594000000E+02  0.51100000000E-03 0.  1.
         11   -1    0    0    0    0 -0.00000000000E+00 -0.00000000000E+00 -0.45593999997E+02  0.45594000000E+02  0.51100000000E-03 0. -1.
    9900012    2    1    2    0    0  0.26562933055E+01  0.42893624957E+02  0.60584726013E+01  0.47787262145E+02  0.19999959423E+02 0.  0.
        -12    1    1    2    0    0 -0.26562933055E+01 -0.42893624957E+02 -0.60584726013E+01  0.43400737855E+02  0.00000000000E+00 0.  1.
         11    1    3    3    0    0  0.15186051253E+01  0.15207470790E+02 -0.57064308355E+01  0.16313696163E+02  0.51100000000E-03 0. -1.
        -11    1    3    3    0    0  0.36152477958E+01  0.25145772292E+02  0.11583168459E+02  0.27920416770E+02  0.51100000000E-03 0.  1.
        -12    1    3    3    0    0 -0.24775596156E+01  0.25403818758E+01  0.18173497783E+00  0.35531492125E+01  0.00000000000E+00 0.  1.
</event>
<event>
 7    1  0.2497395E-009  0.4778727E+02  0.7816164E-02  0.1312668E+00
        -11   -1    0    0    0    0  0.00000000000E+00  0.00000000000E+00  0.45593999997E+02  0.45594000000E+02  0.51100000000E-03 0. -1.
         11   -1    0    0    0    0 -0.00000000000E+00 -0.00000000000E+00 -0.45593999997E+02  0.45594000000E+02  0.51100000000E-03 0.  1.
    9900012    2    1    2    0    0 -0.44156233472E+01 -0.60967740034E+01  0.42742895149E+02  0.47787268802E+02  0.19999989776E+02 0.  0.
        -12    1    1    2    0    0  0.44156233472E+01  0.60967740034E+01 -0.42742895149E+02  0.43400731198E+02  0.00000000000E+00 0.  1.
         11    1    3    3    0    0  0.21964467349E+01  0.23053116421E+01  0.30967413246E+01  0.44416941722E+01  0.51100000000E-03 0. -1.
        -11    1    3    3    0    0 -0.52998947480E+01 -0.12124370990E+02  0.33741432319E+02  0.36243254703E+02  0.51100000000E-03 0.  1.
        -12    1    3    3    0    0 -0.13121753341E+01  0.37222853445E+01  0.59047215049E+01  0.71023199268E+01  0.00000000000E+00 0.  1.
</event>
<event>
 7    1  0.2497395E-009  0.4778728E+02  0.7816164E-02  0.1312668E+00
        -11   -1    0    0    0    0  0.00000000000E+00  0.00000000000E+00  0.45593999997E+02  0.45594000000E+02  0.51100000000E-03 0.  1.
         11   -1    0    0    0    0 -0.00000000000E+00 -0.00000000000E+00 -0.45593999997E+02  0.45594000000E+02  0.51100000000E-03 0. -1.
    9900012    2    1    2    0    0 -0.96650049224E+01  0.72221640422E+01 -0.41689933133E+02  0.47787279980E+02  0.20000040741E+02 0.  0.
        -12    1    1    2    0    0  0.96650049224E+01 -0.72221640422E+01  0.41689933133E+02  0.43400720020E+02  0.00000000000E+00 0.  1.
         11    1    3    3    0    0 -0.57315892257E+01  0.69972291768E+01 -0.47343617977E+01  0.10209138705E+02  0.51100000000E-03 0. -1.
        -11    1    3    3    0    0 -0.13267452146E+01 -0.45990107135E+00 -0.31104587888E+02  0.31136267436E+02  0.51100000000E-03 0.  1.
        -12    1    3    3    0    0 -0.26066704821E+01  0.68483593673E+00 -0.58509834472E+01  0.64418738394E+01  0.00000000000E+00 0.  1.
</event>
<event>
 7    1  0.2497395E-009  0.4778729E+02  0.7816164E-02  0.1312668E+00
        -11   -1    0    0    0    0  0.00000000000E+00  0.00000000000E+00  0.45593999997E+02  0.45594000000E+02  0.51100000000E-03 0.  1.
         11   -1    0    0    0    0 -0.00000000000E+00 -0.00000000000E+00 -0.45593999997E+02  0.45594000000E+02  0.51100000000E-03 0. -1.
    9900012    2    1    2    0    0 -0.18955257269E+02  0.15029467553E+02 -0.36033807479E+02  0.47787286244E+02  0.20000069300E+02 0.  0.
        -12    1    1    2    0    0  0.18955257269E+02 -0.15029467553E+02  0.36033807479E+02  0.43400713756E+02  0.00000000000E+00 0.  1.
         11    1    3    3    0    0 -0.72821680393E+01  0.60079874093E+01 -0.85563478439E+01  0.12741152725E+02  0.51100000000E-03 0. -1.
        -11    1    3    3    0    0 -0.19872714699E+01  0.74314294332E+01 -0.23093042205E+01  0.80317045239E+01  0.51100000000E-03 0.  1.
        -12    1    3    3    0    0 -0.96858177603E+01  0.15900507106E+01 -0.25168155415E+02  0.27014428995E+02  0.00000000000E+00 0.  1.
</event>
<event>
 7    1  0.2497395E-009  0.4778728E+02  0.7816164E-02  0.1312668E+00
        -11   -1    0    0    0    0  0.00000000000E+00  0.00000000000E+00  0.45593999997E+02  0.45594000000E+02  0.51100000000E-03 0. -1.
         11   -1    0    0    0    0 -0.00000000000E+00 -0.00000000000E+00 -0.45593999997E+02  0.45594000000E+02  0.51100000000E-03 0.  1.
    9900012    2    1    2    0    0 -0.11350708756E+02  0.24777043291E+02  0.33776945284E+02  0.47787280003E+02  0.20000040847E+02 0.  0.
        -12    1    1    2    0    0  0.11350708756E+02 -0.24777043291E+02 -0.33776945284E+02  0.43400719997E+02  0.00000000000E+00 0.  1.
         11    1    3    3    0    0 -0.98790919785E+01  0.58848293894E+01  0.12535637436E+02  0.17010875387E+02  0.51100000000E-03 0. -1.
        -11    1    3    3    0    0 -0.20410644208E+01 -0.63014186533E+00  0.47735664182E+01  0.52297188596E+01  0.51100000000E-03 0.  1.
         12    1    3    3    0    0  0.56944764310E+00  0.19522355767E+02  0.16467741430E+02  0.25546685756E+02  0.00000000000E+00 0. -1.
</event>
<event>
 7    1  0.2497395E-009  0.4778727E+02  0.7816164E-02  0.1312668E+00
        -11   -1    0    0    0    0  0.00000000000E+00  0.00000000000E+00  0.45593999997E+02  0.45594000000E+02  0.51100000000E-03 0.  1.
         11   -1    0    0    0    0 -0.00000000000E+00 -0.00000000000E+00 -0.45593999997E+02  0.45594000000E+02  0.51100000000E-03 0. -1.
    9900012    2    1    2    0    0  0.34217191030E+01 -0.40179097868E+01 -0.43078671988E+02  0.47787265663E+02  0.19999975466E+02 0.  0.
        -12    1    1    2    0    0 -0.34217191030E+01  0.40179097868E+01  0.43078671988E+02  0.43400734337E+02  0.00000000000E+00 0.  1.
         11    1    3    3    0    0  0.75613070402E+01  0.27381873528E+01 -0.90221183135E+01  0.12085927902E+02  0.51100000000E-03 0. -1.
        -11    1    3    3    0    0 -0.34036854536E+01 -0.59758347296E+01 -0.33931624886E+02  0.34621537272E+02  0.51100000000E-03 0.  1.
         12    1    3    3    0    0 -0.73590248363E+00 -0.78026241008E+00 -0.12492878848E+00  0.10798004891E+01  0.00000000000E+00 0. -1.
</event>
<event>
 7    1  0.2497395E-009  0.4778727E+02  0.7816164E-02  0.1312668E+00
        -11   -1    0    0    0    0  0.00000000000E+00  0.00000000000E+00  0.45593999997E+02  0.45594000000E+02  0.51100000000E-03 0. -1.
         11   -1    0    0    0    0 -0.00000000000E+00 -0.00000000000E+00 -0.45593999997E+02  0.45594000000E+02  0.51100000000E-03 0.  1.
    9900012    2    1    2    0    0 -0.71522883007E+01  0.40951036447E+02 -0.12469189213E+02  0.47787270817E+02  0.19999998963E+02 0.  0.
        -12    1    1    2    0    0  0.71522883007E+01 -0.40951036447E+02  0.12469189213E+02  0.43400729183E+02  0.00000000000E+00 0.  1.
         11    1    3    3    0    0 -0.29828365273E+00  0.71873354631E+01 -0.77312931964E+00  0.72349494403E+01  0.51100000000E-03 0. -1.
        -11    1    3    3    0    0 -0.10707267515E+02  0.96883598574E+01 -0.47336487754E+01  0.15195964114E+02  0.51100000000E-03 0.  1.
        -12    1    3    3    0    0  0.38532628670E+01  0.24075341126E+02 -0.69624111183E+01  0.25356357263E+02  0.00000000000E+00 0.  1.
</event>
<event>
 7    1  0.2497395E-009  0.4778733E+02  0.7816164E-02  0.1312668E+00
        -11   -1    0    0    0    0  0.00000000000E+00  0.00000000000E+00  0.45593999997E+02  0.45594000000E+02  0.51100000000E-03 0.  1.
         11   -1    0    0    0    0 -0.00000000000E+00 -0.00000000000E+00 -0.45593999997E+02  0.45594000000E+02  0.51100000000E-03 0. -1.
    9900012    2    1    2    0    0 -0.75980491030E+01  0.28278597877E+02 -0.32034497444E+02  0.47787326335E+02  0.20000252090E+02 0.  0.
        -12    1    1    2    0    0  0.75980491030E+01 -0.28278597877E+02  0.32034497444E+02  0.43400673665E+02  0.00000000000E+00 0.  1.
         11    1    3    3    0    0 -0.56510738304E+00  0.25186905323E+02 -0.20301907420E+02  0.32355324001E+02  0.51100000000E-03 0. -1.
        -11    1    3    3    0    0 -0.56040245948E+01  0.39279197317E+01 -0.49391266698E+01  0.84397048289E+01  0.51100000000E-03 0.  1.
         12    1    3    3    0    0 -0.14289171252E+01 -0.83622717713E+00 -0.67934633546E+01  0.69922975046E+01  0.00000000000E+00 0. -1.
</event>
<event>
 7    1  0.2497395E-009  0.4778727E+02  0.7816164E-02  0.1312668E+00
        -11   -1    0    0    0    0  0.00000000000E+00  0.00000000000E+00  0.45593999997E+02  0.45594000000E+02  0.51100000000E-03 0.  1.
         11   -1    0    0    0    0 -0.00000000000E+00 -0.00000000000E+00 -0.45593999997E+02  0.45594000000E+02  0.51100000000E-03 0. -1.
    9900012    2    1    2    0    0  0.35829952462E+02  0.11559469188E+01 -0.24464293646E+02  0.47787269934E+02  0.19999994935E+02 0.  0.
        -12    1    1    2    0    0 -0.35829952462E+02 -0.11559469188E+01  0.24464293646E+02  0.43400730066E+02  0.00000000000E+00 0.  1.
         11    1    3    3    0    0  0.26232792578E+02  0.27234293018E+01 -0.20259215485E+02  0.33256763011E+02  0.51100000000E-03 0. -1.
        -11    1    3    3    0    0  0.87114172282E+01 -0.49714482537E+01 -0.16078905142E+01  0.10158218349E+02  0.51100000000E-03 0.  1.
        -12    1    3    3    0    0  0.88574265557E+00  0.34039658707E+01 -0.25971876464E+01  0.43722885737E+01  0.00000000000E+00 0.  1.
</event>
<event>
 7    1  0.2497395E-009  0.4778726E+02  0.7816164E-02  0.1312668E+00
        -11   -1    0    0    0    0  0.00000000000E+00  0.00000000000E+00  0.45593999997E+02  0.45594000000E+02  0.51100000000E-03 0.  1.
         11   -1    0    0    0    0 -0.00000000000E+00 -0.00000000000E+00 -0.45593999997E+02  0.45594000000E+02  0.51100000000E-03 0. -1.
    9900012    2    1    2    0    0  0.11258174328E+02  0.34369030724E+02 -0.23992657980E+02  0.47787258082E+02  0.19999940897E+02 0.  0.
        -12    1    1    2    0    0 -0.11258174328E+02 -0.34369030724E+02  0.23992657980E+02  0.43400741918E+02  0.00000000000E+00 0.  1.
         11    1    3    3    0    0 -0.69170460866E-02  0.14064771830E+02 -0.16242621224E+02  0.21485823209E+02  0.51100000000E-03 0. -1.
        -11    1    3    3    0    0  0.57495891174E+01  0.11061062694E+02  0.89158313732E+00  0.12497991986E+02  0.51100000000E-03 0.  1.
         12    1    3    3    0    0  0.55155022563E+01  0.92431962004E+01 -0.86416198934E+01  0.13803442886E+02  0.00000000000E+00 0. -1.
</event>
<event>
 7    1  0.2497395E-009  0.4778725E+02  0.7816164E-02  0.1312668E+00
        -11   -1    0    0    0    0  0.00000000000E+00  0.00000000000E+00  0.45593999997E+02  0.45594000000E+02  0.51100000000E-03 0. -1.
         11   -1    0    0    0    0 -0.00000000000E+00 -0.00000000000E+00 -0.45593999997E+02  0.45594000000E+02  0.51100000000E-03 0.  1.
    9900012    2    1    2    0    0 -0.26563449595E+02  0.60993085028E+01  0.33775823743E+02  0.47787254752E+02  0.19999925716E+02 0.  0.
        -12    1    1    2    0    0  0.26563449595E+02 -0.60993085028E+01 -0.33775823743E+02  0.43400745248E+02  0.00000000000E+00 0.  1.
         11    1    3    3    0    0 -0.17944563725E+02  0.10759751346E+02  0.16685186910E+02  0.26761447622E+02  0.51100000000E-03 0. -1.
        -11    1    3    3    0    0 -0.53817352443E+01 -0.56740676371E+01  0.74309155540E+01  0.10787799777E+02  0.51100000000E-03 0.  1.
        -12    1    3    3    0    0 -0.32371506251E+01  0.10136247941E+01  0.96597212784E+01  0.10238007353E+02  0.00000000000E+00 0.  1.
</event>
<event>
 7    1  0.2497395E-009  0.4778727E+02  0.7816164E-02  0.1312668E+00
        -11   -1    0    0    0    0  0.00000000000E+00  0.00000000000E+00  0.45593999997E+02  0.45594000000E+02  0.51100000000E-03 0.  1.
         11   -1    0    0    0    0 -0.00000000000E+00 -0.00000000000E+00 -0.45593999997E+02  0.45594000000E+02  0.51100000000E-03 0. -1.
    9900012    2    1    2    0    0  0.35038771201E+02 -0.88634978911E+01 -0.24028028824E+02  0.47787271305E+02  0.20000001187E+02 0.  0.
        -12    1    1    2    0    0 -0.35038771201E+02  0.88634978911E+01  0.24028028824E+02  0.43400728695E+02  0.00000000000E+00 0.  1.
         11    1    3    3    0    0  0.27702841746E+02 -0.25458205341E+01 -0.10938469388E+02  0.29892787689E+02  0.51100000000E-03 0. -1.
        -11    1    3    3    0    0  0.82865134212E+01 -0.69316049105E+01 -0.10485605866E+02  0.15055277545E+02  0.51100000000E-03 0.  1.
         12    1    3    3    0    0 -0.95058396696E+00  0.61392755358E+00 -0.26039535691E+01  0.28392060702E+01  0.00000000000E+00 0. -1.
</event>
<event>
 7    1  0.2497395E-009  0.4778727E+02  0.7816164E-02  0.1312668E+00
        -11   -1    0    0    0    0  0.00000000000E+00  0.00000000000E+00  0.45593999997E+02  0.45594000000E+02  0.51100000000E-03 0.  1.
         11   -1    0    0    0    0 -0.00000000000E+00 -0.00000000000E+00 -0.45593999997E+02  0.45594000000E+02  0.51100000000E-03 0. -1.
    9900012    2    1    2    0    0 -0.42392158300E+02 -0.92014991753E+01 -0.13640593742E+01  0.47787270393E+02  0.19999997031E+02 0.  0.
        -12    1    1    2    0    0  0.42392158300E+02  0.92014991753E+01  0.13640593742E+01  0.43400729607E+02  0.00000000000E+00 0.  1.
         11    1    3    3    0    0 -0.40456490388E+02 -0.12724120278E+02 -0.20123926402E+01  0.42457986007E+02  0.51100000000E-03 0. -1.
        -11    1    3    3    0    0 -0.23439258759E+01  0.31818287682E+01 -0.57667956177E+00  0.39938180229E+01  0.51100000000E-03 0.  1.
         12    1    3    3    0    0  0.40825796390E+00  0.34079233408E+00  0.12250128278E+01  0.13354663636E+01  0.00000000000E+00 0. -1.
</event>
<event>
 7    1  0.2497395E-009  0.4778727E+02  0.7816164E-02  0.1312668E+00
        -11   -1    0    0    0    0  0.00000000000E+00  0.00000000000E+00  0.45593999997E+02  0.45594000000E+02  0.51100000000E-03 0.  1.
         11   -1    0    0    0    0 -0.00000000000E+00 -0.00000000000E+00 -0.45593999997E+02  0.45594000000E+02  0.51100000000E-03 0. -1.
    9900012    2    1    2    0    0 -0.54171370591E+00  0.41366236979E+02 -0.13121146090E+02  0.47787268552E+02  0.19999988636E+02 0.  0.
        -12    1    1    2    0    0  0.54171370591E+00 -0.41366236979E+02  0.13121146090E+02  0.43400731448E+02  0.00000000000E+00 0.  1.
         11    1    3    3    0    0  0.78709405605E+01  0.11529779030E+02 -0.73536049313E+01  0.15778561897E+02  0.51100000000E-03 0. -1.
        -11    1    3    3    0    0 -0.58743373445E+01  0.11544485590E+02 -0.33874048557E+01  0.13388707880E+02  0.51100000000E-03 0.  1.
         12    1    3    3    0    0 -0.25383169219E+01  0.18291972359E+02 -0.23801363033E+01  0.18619998776E+02  0.00000000000E+00 0. -1.
</event>
<event>
 7    1  0.2497395E-009  0.4778727E+02  0.7816164E-02  0.1312668E+00
        -11   -1    0    0    0    0  0.00000000000E+00  0.00000000000E+00  0.45593999997E+02  0.45594000000E+02  0.51100000000E-03 0. -1.
         11   -1    0    0    0    0 -0.00000000000E+00 -0.00000000000E+00 -0.45593999997E+02  0.45594000000E+02  0.51100000000E-03 0.  1.
    9900012    2    1    2    0    0  0.68395163742E+00 -0.39468877432E+02  0.18037827309E+02  0.47787270863E+02  0.19999999174E+02 0.  0.
        -12    1    1    2    0    0 -0.68395163742E+00  0.39468877432E+02 -0.18037827309E+02  0.43400729137E+02  0.00000000000E+00 0.  1.
         11    1    3    3    0    0  0.38753228580E+01 -0.34734749091E+02  0.16794254241E+02  0.38775867462E+02  0.51100000000E-03 0. -1.
        -11    1    3    3    0    0 -0.34650320236E+01 -0.15634831442E+00  0.24773193009E+01  0.42623940339E+01  0.51100000000E-03 0.  1.
         12    1    3    3    0    0  0.27366080308E+00 -0.45777800266E+01 -0.12337462326E+01  0.47490093676E+01  0.00000000000E+00 0. -1.
</event>
<event>
 7    1  0.2497395E-009  0.4778727E+02  0.7816164E-02  0.1312668E+00
        -11   -1    0    0    0    0  0.00000000000E+00  0.00000000000E+00  0.45593999997E+02  0.45594000000E+02  0.51100000000E-03 0.  1.
         11   -1    0    0    0    0 -0.00000000000E+00 -0.00000000000E+00 -0.45593999997E+02  0.45594000000E+02  0.51100000000E-03 0. -1.
    9900012    2    1    2    0    0  0.40644244302E+02  0.13683040400E+02 -0.66665745077E+01  0.47787269532E+02  0.19999993104E+02 0.  0.
        -12    1    1    2    0    0 -0.40644244302E+02 -0.13683040400E+02  0.66665745077E+01  0.43400730468E+02  0.00000000000E+00 0.  1.
         11    1    3    3    0    0  0.15818309198E+02  0.12410501906E+02  0.50873661195E+00  0.20112142517E+02  0.51100000000E-03 0. -1.
        -11    1    3    3    0    0  0.22045196472E+01 -0.29808670490E+01 -0.84187188338E+00  0.38018710877E+01  0.51100000000E-03 0.  1.
         12    1    3    3    0    0  0.22621415457E+02  0.42534055435E+01 -0.63334392363E+01  0.23873255927E+02  0.00000000000E+00 0. -1.
</event>
<event>
 7    1  0.2497395E-009  0.4778727E+02  0.7816164E-02  0.1312668E+00
        -11   -1    0    0    0    0  0.00000000000E+00  0.00000000000E+00  0.45593999997E+02  0.45594000000E+02  0.51100000000E-03 0. -1.
         11   -1    0    0    0    0 -0.00000000000E+00 -0.00000000000E+00 -0.45593999997E+02  0.45594000000E+02  0.51100000000E-03 0.  1.
    9900012    2    1    2    0    0  0.12046933561E+02 -0.31256423511E+02  0.27595846967E+02  0.47787269721E+02  0.19999993965E+02 0.  0.
        -12    1    1    2    0    0 -0.12046933561E+02  0.31256423511E+02 -0.27595846967E+02  0.43400730279E+02  0.00000000000E+00 0.  1.
         11    1    3    3    0    0 -0.18783755554E+01 -0.12438483785E+02  0.13560679576E+02  0.18496924188E+02  0.51100000000E-03 0. -1.
        -11    1    3    3    0    0  0.11634993659E+02 -0.79992162030E+01  0.48965590433E+01  0.14944458104E+02  0.51100000000E-03 0.  1.
        -12    1    3    3    0    0  0.22903154574E+01 -0.10818723524E+02  0.91386083475E+01  0.14345887428E+02  0.00000000000E+00 0.  1.
</event>
<event>
 7    1  0.2497395E-009  0.4778727E+02  0.7816164E-02  0.1312668E+00
        -11   -1    0    0    0    0  0.00000000000E+00  0.00000000000E+00  0.45593999997E+02  0.45594000000E+02  0.51100000000E-03 0. -1.
         11   -1    0    0    0    0 -0.00000000000E+00 -0.00000000000E+00 -0.45593999997E+02  0.45594000000E+02  0.51100000000E-03 0.  1.
    9900012    2    1    2    0    0 -0.33701944995E+01 -0.21774505788E+02  0.37391656386E+02  0.47787270967E+02  0.19999999649E+02 0.  0.
        -12    1    1    2    0    0  0.33701944995E+01  0.21774505788E+02 -0.37391656386E+02  0.43400729033E+02  0.00000000000E+00 0.  1.
         11    1    3    3    0    0 -0.79466204305E+01 -0.10204082821E+02  0.23495557990E+02  0.26820017301E+02  0.51100000000E-03 0. -1.
        -11    1    3    3    0    0 -0.14405684219E+01 -0.40330320122E+01  0.29367272172E+00  0.42926481941E+01  0.51100000000E-03 0.  1.
         12    1    3    3    0    0  0.60169943529E+01 -0.75373909550E+01  0.13602425674E+02  0.16674605473E+02  0.00000000000E+00 0. -1.
</event>
<event>
 7    1  0.2497395E-009  0.4778727E+02  0.7816164E-02  0.1312668E+00
        -11   -1    0    0    0    0  0.00000000000E+00  0.00000000000E+00  0.45593999997E+02  0.45594000000E+02  0.51100000000E-03 0.  1.
         11   -1    0    0    0    0 -0.00000000000E+00 -0.00000000000E+00 -0.45593999997E+02  0.45594000000E+02  0.51100000000E-03 0. -1.
    9900012    2    1    2    0    0 -0.10865977222E+01 -0.41379196618E+00 -0.43385150286E+02  0.47787272083E+02  0.20000004736E+02 0.  0.
        -12    1    1    2    0    0  0.10865977222E+01  0.41379196618E+00  0.43385150286E+02  0.43400727917E+02  0.00000000000E+00 0.  1.
         11    1    3    3    0    0 -0.28317654539E+01 -0.84283535420E+01 -0.18610014685E+02  0.20624952991E+02  0.51100000000E-03 0. -1.
        -11    1    3    3    0    0 -0.11657237920E+00  0.81916606768E+01 -0.23530447608E+02  0.24915835500E+02  0.51100000000E-03 0.  1.
        -12    1    3    3    0    0  0.18617401110E+01 -0.17709910101E+00 -0.12446879919E+01  0.22464835921E+01  0.00000000000E+00 0.  1.
</event>
<event>
 7    1  0.2497395E-009  0.4778727E+02  0.7816164E-02  0.1312668E+00
        -11   -1    0    0    0    0  0.00000000000E+00  0.00000000000E+00  0.45593999997E+02  0.45594000000E+02  0.51100000000E-03 0.  1.
         11   -1    0    0    0    0 -0.00000000000E+00 -0.00000000000E+00 -0.45593999997E+02  0.45594000000E+02  0.51100000000E-03 0. -1.
    9900012    2    1    2    0    0  0.13617133447E+01 -0.14367257176E+02 -0.40931051332E+02  0.47787270684E+02  0.19999998358E+02 0.  0.
        -12    1    1    2    0    0 -0.13617133447E+01  0.14367257176E+02  0.40931051332E+02  0.43400729316E+02  0.00000000000E+00 0.  1.
         11    1    3    3    0    0  0.15301383509E+01 -0.32135117414E+01 -0.10995863453E+02  0.11557551403E+02  0.51100000000E-03 0. -1.
        -11    1    3    3    0    0 -0.31708393773E+01 -0.11726346854E+02 -0.30753386371E+02  0.33065574340E+02  0.51100000000E-03 0.  1.
        -12    1    3    3    0    0  0.30024143710E+01  0.57260141944E+00  0.81819849174E+00  0.31641449418E+01  0.00000000000E+00 0.  1.
</event>
<event>
 7    1  0.2497395E-009  0.4778727E+02  0.7816164E-02  0.1312668E+00
        -11   -1    0    0    0    0  0.00000000000E+00  0.00000000000E+00  0.45593999997E+02  0.45594000000E+02  0.51100000000E-03 0.  1.
         11   -1    0    0    0    0 -0.00000000000E+00 -0.00000000000E+00 -0.45593999997E+02  0.45594000000E+02  0.51100000000E-03 0. -1.
    9900012    2    1    2    0    0 -0.14170986490E+02 -0.41843969884E+01 -0.40808053455E+02  0.47787271170E+02  0.20000000570E+02 0.  0.
        -12    1    1    2    0    0  0.14170986490E+02  0.41843969884E+01  0.40808053455E+02  0.43400728830E+02  0.00000000000E+00 0.  1.
         11    1    3    3    0    0 -0.18125897136E+01  0.47941607957E+01 -0.17482252637E+02  0.18218084881E+02  0.51100000000E-03 0. -1.
        -11    1    3    3    0    0 -0.88482158519E+01 -0.81198130652E+01 -0.22992840932E+02  0.25940181618E+02  0.51100000000E-03 0.  1.
        -12    1    3    3    0    0 -0.35101809247E+01 -0.85874471887E+00 -0.33295988564E+00  0.36290046709E+01  0.00000000000E+00 0.  1.
</event>
<event>
 7    1  0.2497395E-009  0.4778721E+02  0.7816164E-02  0.1312668E+00
        -11   -1    0    0    0    0  0.00000000000E+00  0.00000000000E+00  0.45593999997E+02  0.45594000000E+02  0.51100000000E-03 0.  1.
         11   -1    0    0    0    0 -0.00000000000E+00 -0.00000000000E+00 -0.45593999997E+02  0.45594000000E+02  0.51100000000E-03 0. -1.
    9900012    2    1    2    0    0  0.49941863940E+01  0.89135263690E+01 -0.42180983466E+02  0.47787214106E+02  0.19999740394E+02 0.  0.
        -12    1    1    2    0    0 -0.49941863940E+01 -0.89135263690E+01  0.42180983466E+02  0.43400785894E+02  0.00000000000E+00 0.  1.
         11    1    3    3    0    0  0.93277956159E+01  0.49052847359E+01 -0.20266320446E+02  0.22842796109E+02  0.51100000000E-03 0. -1.
        -11    1    3    3    0    0 -0.74535448646E+01  0.42715979636E+01 -0.13907737676E+02  0.16347080710E+02  0.51100000000E-03 0.  1.
        -12    1    3    3    0    0  0.31199356427E+01 -0.26335633058E+00 -0.80069253437E+01  0.85973372872E+01  0.00000000000E+00 0.  1.
</event>
<event>
 7    1  0.2497395E-009  0.4778728E+02  0.7816164E-02  0.1312668E+00
        -11   -1    0    0    0    0  0.00000000000E+00  0.00000000000E+00  0.45593999997E+02  0.45594000000E+02  0.51100000000E-03 0. -1.
         11   -1    0    0    0    0 -0.00000000000E+00 -0.00000000000E+00 -0.45593999997E+02  0.45594000000E+02  0.51100000000E-03 0.  1.
    9900012    2    1    2    0    0  0.41262690039E+02  0.11827911973E+02  0.64119840347E+01  0.47787278461E+02  0.20000033813E+02 0.  0.
        -12    1    1    2    0    0 -0.41262690039E+02 -0.11827911973E+02 -0.64119840347E+01  0.43400721539E+02  0.00000000000E+00 0.  1.
         11    1    3    3    0    0  0.23893847219E+02  0.32367312916E+01  0.70297288191E+01  0.25115920288E+02  0.51100000000E-03 0. -1.
        -11    1    3    3    0    0 -0.86091127557E+00 -0.30227088875E+00 -0.21445120916E+01  0.23305510693E+01  0.51100000000E-03 0.  1.
        -12    1    3    3    0    0  0.18229754095E+02  0.88934515703E+01  0.15267673072E+01  0.20340807104E+02  0.00000000000E+00 0.  1.
</event>
<event>
 7    1  0.2497395E-009  0.4778725E+02  0.7816164E-02  0.1312668E+00
        -11   -1    0    0    0    0  0.00000000000E+00  0.00000000000E+00  0.45593999997E+02  0.45594000000E+02  0.51100000000E-03 0.  1.
         11   -1    0    0    0    0 -0.00000000000E+00 -0.00000000000E+00 -0.45593999997E+02  0.45594000000E+02  0.51100000000E-03 0. -1.
    9900012    2    1    2    0    0  0.40559494499E+02  0.15445110235E+02 -0.32572649511E-01  0.47787250178E+02  0.19999904860E+02 0.  0.
        -12    1    1    2    0    0 -0.40559494499E+02 -0.15445110235E+02  0.32572649511E-01  0.43400749822E+02  0.00000000000E+00 0.  1.
         11    1    3    3    0    0  0.16676731052E+02  0.22275525042E+01  0.55960563268E+01  0.17731079928E+02  0.51100000000E-03 0. -1.
        -11    1    3    3    0    0  0.58179666519E+01  0.94078027840E+01 -0.22182229293E+01  0.11281666650E+02  0.51100000000E-03 0.  1.
        -12    1    3    3    0    0  0.18064796794E+02  0.38097549464E+01 -0.34104060470E+01  0.18774503599E+02  0.00000000000E+00 0.  1.
</event>
<event>
 7    1  0.2497395E-009  0.4778728E+02  0.7816164E-02  0.1312668E+00
        -11   -1    0    0    0    0  0.00000000000E+00  0.00000000000E+00  0.45593999997E+02  0.45594000000E+02  0.51100000000E-03 0.  1.
         11   -1    0    0    0    0 -0.00000000000E+00 -0.00000000000E+00 -0.45593999997E+02  0.45594000000E+02  0.51100000000E-03 0. -1.
    9900012    2    1    2    0    0 -0.63641793000E+01  0.39257897050E+02 -0.17376351971E+02  0.47787275735E+02  0.20000021385E+02 0.  0.
        -12    1    1    2    0    0  0.63641793000E+01 -0.39257897050E+02  0.17376351971E+02  0.43400724265E+02  0.00000000000E+00 0.  1.
         11    1    3    3    0    0 -0.38594203608E+01  0.22021705619E+02 -0.32946216971E+01  0.22598787053E+02  0.51100000000E-03 0. -1.
        -11    1    3    3    0    0 -0.36950140454E+01  0.29921711936E+00 -0.39473566086E+01  0.54151901293E+01  0.51100000000E-03 0.  1.
        -12    1    3    3    0    0  0.11902551062E+01  0.16936974311E+02 -0.10134373666E+02  0.19773298552E+02  0.00000000000E+00 0.  1.
</event>
<event>
 7    1  0.2497395E-009  0.4778727E+02  0.7816164E-02  0.1312668E+00
        -11   -1    0    0    0    0  0.00000000000E+00  0.00000000000E+00  0.45593999997E+02  0.45594000000E+02  0.51100000000E-03 0.  1.
         11   -1    0    0    0    0 -0.00000000000E+00 -0.00000000000E+00 -0.45593999997E+02  0.45594000000E+02  0.51100000000E-03 0. -1.
    9900012    2    1    2    0    0 -0.40663299505E+02  0.82562529439E+01 -0.12726107005E+02  0.47787269145E+02  0.19999991338E+02 0.  0.
        -12    1    1    2    0    0  0.40663299505E+02 -0.82562529439E+01  0.12726107005E+02  0.43400730855E+02  0.00000000000E+00 0.  1.
         11    1    3    3    0    0 -0.13541206968E+02 -0.45183279413E+01 -0.92545416481E+00  0.14305105355E+02  0.51100000000E-03 0. -1.
        -11    1    3    3    0    0 -0.16687183279E+02  0.10858169992E+02 -0.11229294635E+02  0.22857362045E+02  0.51100000000E-03 0.  1.
         12    1    3    3    0    0 -0.10434909257E+02  0.19164108930E+01 -0.57135820424E+00  0.10624801745E+02  0.00000000000E+00 0. -1.
</event>
<event>
 7    1  0.2497395E-009  0.4778727E+02  0.7816164E-02  0.1312668E+00
        -11   -1    0    0    0    0  0.00000000000E+00  0.00000000000E+00  0.45593999997E+02  0.45594000000E+02  0.51100000000E-03 0.  1.
         11   -1    0    0    0    0 -0.00000000000E+00 -0.00000000000E+00 -0.45593999997E+02  0.45594000000E+02  0.51100000000E-03 0. -1.
    9900012    2    1    2    0    0  0.24218298215E+02 -0.20289689641E+02 -0.29756110109E+02  0.47787267714E+02  0.19999984815E+02 0.  0.
        -12    1    1    2    0    0 -0.24218298215E+02  0.20289689641E+02  0.29756110109E+02  0.43400732286E+02  0.00000000000E+00 0.  1.
         11    1    3    3    0    0  0.76074311374E+01 -0.13629648349E+02 -0.17305718954E+02  0.23305111701E+02  0.51100000000E-03 0. -1.
        -11    1    3    3    0    0  0.11810450352E+02  0.11092230974E+01 -0.59401033203E+01  0.13266572320E+02  0.51100000000E-03 0.  1.
        -12    1    3    3    0    0  0.48004167260E+01 -0.77692643889E+01 -0.65102878347E+01  0.11215583693E+02  0.00000000000E+00 0.  1.
</event>
<event>
 7    1  0.2497395E-009  0.4778727E+02  0.7816164E-02  0.1312668E+00
        -11   -1    0    0    0    0  0.00000000000E+00  0.00000000000E+00  0.45593999997E+02  0.45594000000E+02  0.51100000000E-03 0.  1.
         11   -1    0    0    0    0 -0.00000000000E+00 -0.00000000000E+00 -0.45593999997E+02  0.45594000000E+02  0.51100000000E-03 0. -1.
    9900012    2    1    2    0    0 -0.29396934981E+02  0.17190909753E+02 -0.26905692145E+02  0.47787269197E+02  0.19999991577E+02 0.  0.
        -12    1    1    2    0    0  0.29396934981E+02 -0.17190909753E+02  0.26905692145E+02  0.43400730803E+02  0.00000000000E+00 0.  1.
         11    1    3    3    0    0 -0.18513885392E+02  0.32983510796E+01 -0.18869823414E+02  0.26640444968E+02  0.51100000000E-03 0. -1.
        -11    1    3    3    0    0 -0.10165739087E+02  0.12532281040E+02 -0.37130198767E+01  0.16558587987E+02  0.51100000000E-03 0.  1.
        -12    1    3    3    0    0 -0.71731050244E+00  0.13602776337E+01 -0.43228488546E+01  0.45882362425E+01  0.00000000000E+00 0.  1.
</event>
<event>
 7    1  0.2497395E-009  0.4778727E+02  0.7816164E-02  0.1312668E+00
        -11   -1    0    0    0    0  0.00000000000E+00  0.00000000000E+00  0.45593999997E+02  0.45594000000E+02  0.51100000000E-03 0.  1.
         11   -1    0    0    0    0 -0.00000000000E+00 -0.00000000000E+00 -0.45593999997E+02  0.45594000000E+02  0.51100000000E-03 0. -1.
    9900012    2    1    2    0    0  0.32036298170E+00  0.17502958715E+02 -0.39713563384E+02  0.47787270595E+02  0.19999997953E+02 0.  0.
        -12    1    1    2    0    0 -0.32036298170E+00 -0.17502958715E+02  0.39713563384E+02  0.43400729405E+02  0.00000000000E+00 0.  1.
         11    1    3    3    0    0  0.92628333811E+01  0.67601745915E+01 -0.18516260567E+02  0.21779622320E+02  0.51100000000E-03 0.  1.
        -11    1    3    3    0    0 -0.96279433620E+01  0.10580780028E+02 -0.19632912241E+02  0.24292003678E+02  0.51100000000E-03 0. -1.
         12    1    3    3    0    0  0.68547296260E+00  0.16200409467E+00 -0.15643905764E+01  0.17156445975E+01  0.00000000000E+00 0. -1.
</event>
<event>
 7    1  0.2497395E-009  0.4778727E+02  0.7816164E-02  0.1312668E+00
        -11   -1    0    0    0    0  0.00000000000E+00  0.00000000000E+00  0.45593999997E+02  0.45594000000E+02  0.51100000000E-03 0.  1.
         11   -1    0    0    0    0 -0.00000000000E+00 -0.00000000000E+00 -0.45593999997E+02  0.45594000000E+02  0.51100000000E-03 0. -1.
    9900012    2    1    2    0    0 -0.31624452462E+02 -0.29301477194E+02 -0.49940930537E+01  0.47787268154E+02  0.19999986823E+02 0.  0.
        -12    1    1    2    0    0  0.31624452462E+02  0.29301477194E+02  0.49940930537E+01  0.43400731846E+02  0.00000000000E+00 0.  1.
         11    1    3    3    0    0 -0.19078416543E+02 -0.87405002794E+01 -0.46280075855E+01  0.21489550423E+02  0.51100000000E-03 0. -1.
        -11    1    3    3    0    0 -0.57765116343E+01 -0.85112631689E+01  0.50427590687E+01  0.11455963804E+02  0.51100000000E-03 0.  1.
        -12    1    3    3    0    0 -0.67695242847E+01 -0.12049713746E+02 -0.54088445369E+01  0.14841753927E+02  0.00000000000E+00 0.  1.
</event>
<event>
 7    1  0.2497395E-009  0.4778728E+02  0.7816164E-02  0.1312668E+00
        -11   -1    0    0    0    0  0.00000000000E+00  0.00000000000E+00  0.45593999997E+02  0.45594000000E+02  0.51100000000E-03 0.  1.
         11   -1    0    0    0    0 -0.00000000000E+00 -0.00000000000E+00 -0.45593999997E+02  0.45594000000E+02  0.51100000000E-03 0. -1.
    9900012    2    1    2    0    0  0.15535170182E+02  0.38823829289E+02  0.11618582965E+02  0.47787277617E+02  0.20000029967E+02 0.  0.
        -12    1    1    2    0    0 -0.15535170182E+02 -0.38823829289E+02 -0.11618582965E+02  0.43400722383E+02  0.00000000000E+00 0.  1.
         11    1    3    3    0    0  0.34512489889E+01  0.27451579643E+02  0.58600846147E+01  0.28281459234E+02  0.51100000000E-03 0. -1.
        -11    1    3    3    0    0  0.12064305580E+02  0.10221929732E+02  0.24477109843E+01  0.16000831413E+02  0.51100000000E-03 0.  1.
         12    1    3    3    0    0  0.19615613285E-01  0.11503199139E+01  0.33107873665E+01  0.35049869704E+01  0.00000000000E+00 0. -1.
</event>
<event>
 7    1  0.2497395E-009  0.4778727E+02  0.7816164E-02  0.1312668E+00
        -11   -1    0    0    0    0  0.00000000000E+00  0.00000000000E+00  0.45593999997E+02  0.45594000000E+02  0.51100000000E-03 0. -1.
         11   -1    0    0    0    0 -0.00000000000E+00 -0.00000000000E+00 -0.45593999997E+02  0.45594000000E+02  0.51100000000E-03 0.  1.
    9900012    2    1    2    0    0  0.33815873252E+02  0.26736566886E+02  0.50265177739E+01  0.47787272200E+02  0.20000005268E+02 0.  0.
        -12    1    1    2    0    0 -0.33815873252E+02 -0.26736566886E+02 -0.50265177739E+01  0.43400727800E+02  0.00000000000E+00 0.  1.
         11    1    3    3    0    0  0.23164653776E+02  0.96583204009E+01  0.63389105489E+01  0.25885635490E+02  0.51100000000E-03 0. -1.
        -11    1    3    3    0    0  0.92625952055E+01  0.15114238202E+02 -0.41254671590E+01  0.18200421586E+02  0.51100000000E-03 0.  1.
        -12    1    3    3    0    0  0.13886242704E+01  0.19640082830E+01  0.28130743840E+01  0.37012151234E+01  0.00000000000E+00 0.  1.
</event>
<event>
 7    1  0.2497395E-009  0.4778728E+02  0.7816164E-02  0.1312668E+00
        -11   -1    0    0    0    0  0.00000000000E+00  0.00000000000E+00  0.45593999997E+02  0.45594000000E+02  0.51100000000E-03 0.  1.
         11   -1    0    0    0    0 -0.00000000000E+00 -0.00000000000E+00 -0.45593999997E+02  0.45594000000E+02  0.51100000000E-03 0. -1.
    9900012    2    1    2    0    0  0.34264111384E+01  0.23622095122E+02 -0.36247467804E+02  0.47787278884E+02  0.20000035743E+02 0.  0.
        -12    1    1    2    0    0 -0.34264111384E+01 -0.23622095122E+02  0.36247467804E+02  0.43400721116E+02  0.00000000000E+00 0.  1.
         11    1    3    3    0    0  0.15318802617E+01  0.90979573107E+01 -0.11803412840E+01  0.93012198217E+01  0.51100000000E-03 0. -1.
        -11    1    3    3    0    0 -0.13705530592E+01  0.10424139853E+02 -0.21262378204E+02  0.23719819445E+02  0.51100000000E-03 0.  1.
        -12    1    3    3    0    0  0.32650839359E+01  0.40999979579E+01 -0.13804748316E+02  0.14766239617E+02  0.00000000000E+00 0.  1.
</event>
<event>
 7    1  0.2497395E-009  0.4778727E+02  0.7816164E-02  0.1312668E+00
        -11   -1    0    0    0    0  0.00000000000E+00  0.00000000000E+00  0.45593999997E+02  0.45594000000E+02  0.51100000000E-03 0. -1.
         11   -1    0    0    0    0 -0.00000000000E+00 -0.00000000000E+00 -0.45593999997E+02  0.45594000000E+02  0.51100000000E-03 0.  1.
    9900012    2    1    2    0    0 -0.20644529564E+02 -0.34832581008E+02  0.15624281543E+02  0.47787268735E+02  0.19999989470E+02 0.  0.
        -12    1    1    2    0    0  0.20644529564E+02  0.34832581008E+02 -0.15624281543E+02  0.43400731265E+02  0.00000000000E+00 0.  1.
         11    1    3    3    0    0 -0.18882718251E+02 -0.22337013941E+02  0.11149222341E+02  0.31301827413E+02  0.51100000000E-03 0. -1.
        -11    1    3    3    0    0 -0.48575946739E+01 -0.28733935846E+01  0.66319092130E+00  0.56826436776E+01  0.51100000000E-03 0.  1.
         12    1    3    3    0    0  0.30957833610E+01 -0.96221734826E+01  0.38118682807E+01  0.10802797644E+02  0.00000000000E+00 0. -1.
</event>
<event>
 7    1  0.2497395E-009  0.4778727E+02  0.7816164E-02  0.1312668E+00
        -11   -1    0    0    0    0  0.00000000000E+00  0.00000000000E+00  0.45593999997E+02  0.45594000000E+02  0.51100000000E-03 0.  1.
         11   -1    0    0    0    0 -0.00000000000E+00 -0.00000000000E+00 -0.45593999997E+02  0.45594000000E+02  0.51100000000E-03 0. -1.
    9900012    2    1    2    0    0 -0.29775843975E+02 -0.29564667744E+02 -0.11088416341E+02  0.47787269128E+02  0.19999991264E+02 0.  0.
        -12    1    1    2    0    0  0.29775843975E+02  0.29564667744E+02  0.11088416341E+02  0.43400730872E+02  0.00000000000E+00 0.  1.
         11    1    3    3    0    0 -0.15711928231E+02 -0.10511927186E+02 -0.98481768158E+01  0.21315531632E+02  0.51100000000E-03 0. -1.
        -11    1    3    3    0    0  0.36831715667E+00 -0.15052648915E+01  0.29838789972E+01  0.33622929754E+01  0.51100000000E-03 0.  1.
        -12    1    3    3    0    0 -0.14432232900E+02 -0.17547475667E+02 -0.42241185227E+01  0.23109444521E+02  0.00000000000E+00 0.  1.
</event>
<event>
 7    1  0.2497395E-009  0.4778727E+02  0.7816164E-02  0.1312668E+00
        -11   -1    0    0    0    0  0.00000000000E+00  0.00000000000E+00  0.45593999997E+02  0.45594000000E+02  0.51100000000E-03 0.  1.
         11   -1    0    0    0    0 -0.00000000000E+00 -0.00000000000E+00 -0.45593999997E+02  0.45594000000E+02  0.51100000000E-03 0. -1.
    9900012    2    1    2    0    0 -0.16833687125E+01  0.22216708636E+02 -0.37245236070E+02  0.47787268638E+02  0.19999989028E+02 0.  0.
        -12    1    1    2    0    0  0.16833687125E+01 -0.22216708636E+02  0.37245236070E+02  0.43400731362E+02  0.00000000000E+00 0.  1.
         11    1    3    3    0    0 -0.20310145060E+01  0.81178431234E+01 -0.13196683741E+02  0.15626159442E+02  0.51100000000E-03 0. -1.
        -11    1    3    3    0    0 -0.69017916239E+01  0.11233115094E+02 -0.12102210062E+02  0.17896398827E+02  0.51100000000E-03 0.  1.
        -12    1    3    3    0    0  0.72494374174E+01  0.28657504186E+01 -0.11946342268E+02  0.14264710369E+02  0.00000000000E+00 0.  1.
</event>
<event>
 7    1  0.2497395E-009  0.4778727E+02  0.7816164E-02  0.1312668E+00
        -11   -1    0    0    0    0  0.00000000000E+00  0.00000000000E+00  0.45593999997E+02  0.45594000000E+02  0.51100000000E-03 0.  1.
         11   -1    0    0    0    0 -0.00000000000E+00 -0.00000000000E+00 -0.45593999997E+02  0.45594000000E+02  0.51100000000E-03 0. -1.
    9900012    2    1    2    0    0  0.49760114665E+01  0.56208714922E+01 -0.42746564891E+02  0.47787266176E+02  0.19999977803E+02 0.  0.
        -12    1    1    2    0    0 -0.49760114665E+01 -0.56208714922E+01  0.42746564891E+02  0.43400733824E+02  0.00000000000E+00 0.  1.
         11    1    3    3    0    0  0.67032738486E+01  0.48060645198E+01 -0.32815069262E+02  0.33835793287E+02  0.51100000000E-03 0. -1.
        -11    1    3    3    0    0 -0.54239948696E+01  0.21012995072E+01 -0.67247262626E+01  0.88914072864E+01  0.51100000000E-03 0.  1.
        -12    1    3    3    0    0  0.36967324876E+01 -0.12864925348E+01 -0.32067693668E+01  0.50600656022E+01  0.00000000000E+00 0.  1.
</event>
<event>
 7    1  0.2497395E-009  0.4778727E+02  0.7816164E-02  0.1312668E+00
        -11   -1    0    0    0    0  0.00000000000E+00  0.00000000000E+00  0.45593999997E+02  0.45594000000E+02  0.51100000000E-03 0.  1.
         11   -1    0    0    0    0 -0.00000000000E+00 -0.00000000000E+00 -0.45593999997E+02  0.45594000000E+02  0.51100000000E-03 0. -1.
    9900012    2    1    2    0    0 -0.38196591470E+02  0.13688256372E+02 -0.15403739016E+02  0.47787272608E+02  0.20000007131E+02 0.  0.
        -12    1    1    2    0    0  0.38196591470E+02 -0.13688256372E+02  0.15403739016E+02  0.43400727392E+02  0.00000000000E+00 0.  1.
         11    1    3    3    0    0 -0.56455343504E+01  0.14973138468E+01 -0.10818550592E+02  0.12294512761E+02  0.51100000000E-03 0. -1.
        -11    1    3    3    0    0  0.12759043273E-01 -0.30610774770E+00  0.35980070286E-01  0.30847945307E+00  0.51100000000E-03 0.  1.
         12    1    3    3    0    0 -0.32563816163E+02  0.12497050273E+02 -0.46211684943E+01  0.35184280394E+02  0.00000000000E+00 0. -1.
</event>
<event>
 7    1  0.2497395E-009  0.4778727E+02  0.7816164E-02  0.1312668E+00
        -11   -1    0    0    0    0  0.00000000000E+00  0.00000000000E+00  0.45593999997E+02  0.45594000000E+02  0.51100000000E-03 0.  1.
         11   -1    0    0    0    0 -0.00000000000E+00 -0.00000000000E+00 -0.45593999997E+02  0.45594000000E+02  0.51100000000E-03 0. -1.
    9900012    2    1    2    0    0 -0.39208932820E+02 -0.16912896154E+02 -0.77612378127E+01  0.47787270955E+02  0.19999999593E+02 0.  0.
        -12    1    1    2    0    0  0.39208932820E+02  0.16912896154E+02  0.77612378127E+01  0.43400729045E+02  0.00000000000E+00 0.  1.
         11    1    3    3    0    0 -0.30370098169E+02 -0.12294549098E+02 -0.12431821766E+02  0.35043529974E+02  0.51100000000E-03 0. -1.
        -11    1    3    3    0    0 -0.18156714247E+01  0.12758003304E+01 -0.41721801264E+00  0.22579637589E+01  0.51100000000E-03 0.  1.
         12    1    3    3    0    0 -0.70231632263E+01 -0.58941473858E+01  0.50878019660E+01  0.10485777222E+02  0.00000000000E+00 0. -1.
</event>
<event>
 7    1  0.2497395E-009  0.4778727E+02  0.7816164E-02  0.1312668E+00
        -11   -1    0    0    0    0  0.00000000000E+00  0.00000000000E+00  0.45593999997E+02  0.45594000000E+02  0.51100000000E-03 0.  1.
         11   -1    0    0    0    0 -0.00000000000E+00 -0.00000000000E+00 -0.45593999997E+02  0.45594000000E+02  0.51100000000E-03 0. -1.
    9900012    2    1    2    0    0  0.17431412291E+01  0.17872060753E+02 -0.39511698824E+02  0.47787269121E+02  0.19999991231E+02 0.  0.
        -12    1    1    2    0    0 -0.17431412291E+01 -0.17872060753E+02  0.39511698824E+02  0.43400730879E+02  0.00000000000E+00 0.  1.
         11    1    3    3    0    0  0.78646999502E+01  0.93082323846E+01 -0.17517748917E+02  0.21339358538E+02  0.51100000000E-03 0. -1.
        -11    1    3    3    0    0 -0.64524905498E+01  0.23547044962E+01 -0.54314905181E+01  0.87567320998E+01  0.51100000000E-03 0.  1.
         12    1    3    3    0    0  0.33093182867E+00  0.62091238721E+01 -0.16562459388E+02  0.17691178483E+02  0.00000000000E+00 0. -1.
</event>
<event>
 7    1  0.2497395E-009  0.4778727E+02  0.7816164E-02  0.1312668E+00
        -11   -1    0    0    0    0  0.00000000000E+00  0.00000000000E+00  0.45593999997E+02  0.45594000000E+02  0.51100000000E-03 0.  1.
         11   -1    0    0    0    0 -0.00000000000E+00 -0.00000000000E+00 -0.45593999997E+02  0.45594000000E+02  0.51100000000E-03 0. -1.
    9900012    2    1    2    0    0  0.75735494692E+01  0.15271443393E+02 -0.39913003937E+02  0.47787268230E+02  0.19999987169E+02 0.  0.
        -12    1    1    2    0    0 -0.75735494692E+01 -0.15271443393E+02  0.39913003937E+02  0.43400731770E+02  0.00000000000E+00 0.  1.
         11    1    3    3    0    0 -0.17019468933E+01  0.42674278120E+01 -0.25119239698E+02  0.25535930894E+02  0.51100000000E-03 0.  1.
        -11    1    3    3    0    0  0.84059662068E+01  0.87710046749E+01 -0.15555006729E+02  0.19736996364E+02  0.51100000000E-03 0. -1.
         12    1    3    3    0    0  0.86953015568E+00  0.22330109057E+01  0.76124248945E+00  0.25143409722E+01  0.00000000000E+00 0. -1.
</event>
<event>
 7    1  0.2497395E-009  0.4778727E+02  0.7816164E-02  0.1312668E+00
        -11   -1    0    0    0    0  0.00000000000E+00  0.00000000000E+00  0.45593999997E+02  0.45594000000E+02  0.51100000000E-03 0.  1.
         11   -1    0    0    0    0 -0.00000000000E+00 -0.00000000000E+00 -0.45593999997E+02  0.45594000000E+02  0.51100000000E-03 0. -1.
    9900012    2    1    2    0    0  0.30200889319E+02  0.31110306616E+02  0.19179252475E+01  0.47787270390E+02  0.19999997017E+02 0.  0.
        -12    1    1    2    0    0 -0.30200889319E+02 -0.31110306616E+02 -0.19179252475E+01  0.43400729610E+02  0.00000000000E+00 0.  1.
         11    1    3    3    0    0  0.18777139163E+02  0.18867989850E+02  0.17575559922E+01  0.26677162508E+02  0.51100000000E-03 0. -1.
        -11    1    3    3    0    0  0.25671280957E+01  0.38457782356E+01 -0.58902802594E+01  0.74883615493E+01  0.51100000000E-03 0.  1.
        -12    1    3    3    0    0  0.88566220600E+01  0.83965385302E+01  0.60506495148E+01  0.13621746333E+02  0.00000000000E+00 0.  1.
</event>
<event>
 7    1  0.2497395E-009  0.4778727E+02  0.7816164E-02  0.1312668E+00
        -11   -1    0    0    0    0  0.00000000000E+00  0.00000000000E+00  0.45593999997E+02  0.45594000000E+02  0.51100000000E-03 0.  1.
         11   -1    0    0    0    0 -0.00000000000E+00 -0.00000000000E+00 -0.45593999997E+02  0.45594000000E+02  0.51100000000E-03 0. -1.
    9900012    2    1    2    0    0 -0.31769993342E+02  0.77326317050E+01 -0.28539392705E+02  0.47787274131E+02  0.20000014071E+02 0.  0.
        -12    1    1    2    0    0  0.31769993342E+02 -0.77326317050E+01  0.28539392705E+02  0.43400725869E+02  0.00000000000E+00 0.  1.
         11    1    3    3    0    0 -0.25751407200E+01 -0.54268561781E+00 -0.80269955587E+01  0.84473969582E+01  0.51100000000E-03 0. -1.
        -11    1    3    3    0    0 -0.26490099817E+02  0.56310823880E+01 -0.22369619766E+02  0.35125978505E+02  0.51100000000E-03 0.  1.
        -12    1    3    3    0    0 -0.27047528041E+01  0.26442349348E+01  0.18572226196E+01  0.42138986676E+01  0.00000000000E+00 0.  1.
</event>
<event>
 7    1  0.2497395E-009  0.4778727E+02  0.7816164E-02  0.1312668E+00
        -11   -1    0    0    0    0  0.00000000000E+00  0.00000000000E+00  0.45593999997E+02  0.45594000000E+02  0.51100000000E-03 0.  1.
         11   -1    0    0    0    0 -0.00000000000E+00 -0.00000000000E+00 -0.45593999997E+02  0.45594000000E+02  0.51100000000E-03 0. -1.
    9900012    2    1    2    0    0 -0.29430451523E+02 -0.13753423660E+02 -0.28780468492E+02  0.47787268372E+02  0.19999987815E+02 0.  0.
        -12    1    1    2    0    0  0.29430451523E+02  0.13753423660E+02  0.28780468492E+02  0.43400731628E+02  0.00000000000E+00 0.  1.
         11    1    3    3    0    0 -0.21466519193E+02 -0.67045504114E+01 -0.19659824629E+02  0.29870908041E+02  0.51100000000E-03 0. -1.
        -11    1    3    3    0    0  0.24729125221E+01  0.38591914935E+00 -0.23040398684E+01  0.34018862280E+01  0.51100000000E-03 0.  1.
        -12    1    3    3    0    0 -0.10436844852E+02 -0.74347923983E+01 -0.68166039953E+01  0.14514474103E+02  0.00000000000E+00 0.  1.
</event>
<event>
 7    1  0.2497395E-009  0.4778727E+02  0.7816164E-02  0.1312668E+00
        -11   -1    0    0    0    0  0.00000000000E+00  0.00000000000E+00  0.45593999997E+02  0.45594000000E+02  0.51100000000E-03 0. -1.
         11   -1    0    0    0    0 -0.00000000000E+00 -0.00000000000E+00 -0.45593999997E+02  0.45594000000E+02  0.51100000000E-03 0.  1.
    9900012    2    1    2    0    0 -0.23368453032E+02 -0.20216693351E+02  0.30476611893E+02  0.47787272360E+02  0.20000006000E+02 0.  0.
        -12    1    1    2    0    0  0.23368453032E+02  0.20216693351E+02 -0.30476611893E+02  0.43400727640E+02  0.00000000000E+00 0.  1.
         11    1    3    3    0    0 -0.26181738157E+01 -0.11664872417E+02  0.19179169000E+02  0.22600101912E+02  0.51100000000E-03 0. -1.
        -11    1    3    3    0    0 -0.15519038164E+02 -0.57503630200E+01  0.77648659934E+01  0.18281147791E+02  0.51100000000E-03 0.  1.
         12    1    3    3    0    0 -0.52312410521E+01 -0.28014579147E+01  0.35325768990E+01  0.69060226571E+01  0.00000000000E+00 0. -1.
</event>
<event>
 7    1  0.2497395E-009  0.4778729E+02  0.7816164E-02  0.1312668E+00
        -11   -1    0    0    0    0  0.00000000000E+00  0.00000000000E+00  0.45593999997E+02  0.45594000000E+02  0.51100000000E-03 0.  1.
         11   -1    0    0    0    0 -0.00000000000E+00 -0.00000000000E+00 -0.45593999997E+02  0.45594000000E+02  0.51100000000E-03 0. -1.
    9900012    2    1    2    0    0  0.78394509605E+01  0.31459188237E+02 -0.28852799360E+02  0.47787290942E+02  0.20000090719E+02 0.  0.
        -12    1    1    2    0    0 -0.78394509605E+01 -0.31459188237E+02  0.28852799360E+02  0.43400709058E+02  0.00000000000E+00 0.  1.
         11    1    3    3    0    0  0.81871478334E+01  0.29559463006E+02 -0.22916562056E+02  0.38287857861E+02  0.51100000000E-03 0. -1.
        -11    1    3    3    0    0 -0.31314785340E+01  0.23855512890E+01 -0.53013567355E+01  0.66031353355E+01  0.51100000000E-03 0.  1.
         12    1    3    3    0    0  0.27837816611E+01 -0.48582605806E+00 -0.63488056845E+00  0.28962977457E+01  0.00000000000E+00 0. -1.
</event>
<event>
 7    1  0.2497395E-009  0.4778727E+02  0.7816164E-02  0.1312668E+00
        -11   -1    0    0    0    0  0.00000000000E+00  0.00000000000E+00  0.45593999997E+02  0.45594000000E+02  0.51100000000E-03 0. -1.
         11   -1    0    0    0    0 -0.00000000000E+00 -0.00000000000E+00 -0.45593999997E+02  0.45594000000E+02  0.51100000000E-03 0.  1.
    9900012    2    1    2    0    0  0.19424290067E+02  0.30989229122E+02  0.23366382307E+02  0.47787272030E+02  0.20000004493E+02 0.  0.
        -12    1    1    2    0    0 -0.19424290067E+02 -0.30989229122E+02 -0.23366382307E+02  0.43400727970E+02  0.00000000000E+00 0.  1.
         11    1    3    3    0    0  0.41122604614E+01  0.23919800572E+01  0.60708076433E+01  0.77127790322E+01  0.51100000000E-03 0. -1.
        -11    1    3    3    0    0  0.13001404780E+02  0.19344005696E+02  0.19380109792E+02  0.30311973516E+02  0.51100000000E-03 0.  1.
        -12    1    3    3    0    0  0.23106248259E+01  0.92532433689E+01 -0.20845351280E+01  0.97625194817E+01  0.00000000000E+00 0.  1.
</event>
<event>
 7    1  0.2497395E-009  0.4778728E+02  0.7816164E-02  0.1312668E+00
        -11   -1    0    0    0    0  0.00000000000E+00  0.00000000000E+00  0.45593999997E+02  0.45594000000E+02  0.51100000000E-03 0.  1.
         11   -1    0    0    0    0 -0.00000000000E+00 -0.00000000000E+00 -0.45593999997E+02  0.45594000000E+02  0.51100000000E-03 0. -1.
    9900012    2    1    2    0    0 -0.18269959147E+02 -0.36592700311E+02 -0.14519149492E+02  0.47787276213E+02  0.20000023564E+02 0.  0.
        -12    1    1    2    0    0  0.18269959147E+02  0.36592700311E+02  0.14519149492E+02  0.43400723787E+02  0.00000000000E+00 0.  1.
         11    1    3    3    0    0 -0.65565733194E+01 -0.16011277798E+02  0.13674062679E+01  0.17355675457E+02  0.51100000000E-03 0. -1.
        -11    1    3    3    0    0 -0.44969325291E+01 -0.15789306130E+02 -0.13976709332E+02  0.21560913577E+02  0.51100000000E-03 0.  1.
        -12    1    3    3    0    0 -0.72164532989E+01 -0.47921163828E+01 -0.19098464274E+01  0.88706871784E+01  0.00000000000E+00 0.  1.
</event>
<event>
 7    1  0.2497395E-009  0.4778727E+02  0.7816164E-02  0.1312668E+00
        -11   -1    0    0    0    0  0.00000000000E+00  0.00000000000E+00  0.45593999997E+02  0.45594000000E+02  0.51100000000E-03 0. -1.
         11   -1    0    0    0    0 -0.00000000000E+00 -0.00000000000E+00 -0.45593999997E+02  0.45594000000E+02  0.51100000000E-03 0.  1.
    9900012    2    1    2    0    0 -0.21470253376E+02  0.68493770714E+01  0.37090937139E+02  0.47787270004E+02  0.19999995257E+02 0.  0.
        -12    1    1    2    0    0  0.21470253376E+02 -0.68493770714E+01 -0.37090937139E+02  0.43400729996E+02  0.00000000000E+00 0.  1.
         11    1    3    3    0    0 -0.61589553714E+01 -0.35825004347E+00  0.23395967155E+02  0.24195709407E+02  0.51100000000E-03 0. -1.
        -11    1    3    3    0    0  0.99562557467E+00 -0.55240662916E+00  0.62365883721E+00  0.12982195405E+01  0.51100000000E-03 0.  1.
         12    1    3    3    0    0 -0.16306923580E+02  0.77600337440E+01  0.13071311147E+02  0.22293341056E+02  0.00000000000E+00 0. -1.
</event>
<event>
 7    1  0.2497395E-009  0.4778727E+02  0.7816164E-02  0.1312668E+00
        -11   -1    0    0    0    0  0.00000000000E+00  0.00000000000E+00  0.45593999997E+02  0.45594000000E+02  0.51100000000E-03 0. -1.
         11   -1    0    0    0    0 -0.00000000000E+00 -0.00000000000E+00 -0.45593999997E+02  0.45594000000E+02  0.51100000000E-03 0.  1.
    9900012    2    1    2    0    0 -0.36264710115E+02 -0.20750180346E+02 -0.11744096493E+02  0.47787274355E+02  0.20000015094E+02 0.  0.
        -12    1    1    2    0    0  0.36264710115E+02  0.20750180346E+02  0.11744096493E+02  0.43400725645E+02  0.00000000000E+00 0.  1.
         11    1    3    3    0    0 -0.16606621571E+02 -0.63552826411E+01  0.26992345119E+01  0.17984864878E+02  0.51100000000E-03 0. -1.
        -11    1    3    3    0    0 -0.15678887315E+02 -0.72885863003E+01 -0.12752117349E+02  0.21484121924E+02  0.51100000000E-03 0.  1.
         12    1    3    3    0    0 -0.39792012284E+01 -0.71063114043E+01 -0.16912136562E+01  0.83182875534E+01  0.00000000000E+00 0. -1.
</event>
<event>
 7    1  0.2497395E-009  0.4778727E+02  0.7816164E-02  0.1312668E+00
        -11   -1    0    0    0    0  0.00000000000E+00  0.00000000000E+00  0.45593999997E+02  0.45594000000E+02  0.51100000000E-03 0.  1.
         11   -1    0    0    0    0 -0.00000000000E+00 -0.00000000000E+00 -0.45593999997E+02  0.45594000000E+02  0.51100000000E-03 0. -1.
    9900012    2    1    2    0    0  0.49695467796E+01 -0.36503844070E+02 -0.22943320168E+02  0.47787274575E+02  0.20000016097E+02 0.  0.
        -12    1    1    2    0    0 -0.49695467796E+01  0.36503844070E+02  0.22943320168E+02  0.43400725425E+02  0.00000000000E+00 0.  1.
         11    1    3    3    0    0  0.58757570855E+00 -0.11459800974E+02 -0.16884917623E+02  0.20415012294E+02  0.51100000000E-03 0.  1.
        -11    1    3    3    0    0  0.66614527900E+01 -0.16334307063E+02 -0.32163246805E+01  0.17931237694E+02  0.51100000000E-03 0. -1.
        -12    1    3    3    0    0 -0.22794817190E+01 -0.87097360325E+01 -0.28420778648E+01  0.94410245870E+01  0.00000000000E+00 0.  1.
</event>
<event>
 7    1  0.2497395E-009  0.4778727E+02  0.7816164E-02  0.1312668E+00
        -11   -1    0    0    0    0  0.00000000000E+00  0.00000000000E+00  0.45593999997E+02  0.45594000000E+02  0.51100000000E-03 0.  1.
         11   -1    0    0    0    0 -0.00000000000E+00 -0.00000000000E+00 -0.45593999997E+02  0.45594000000E+02  0.51100000000E-03 0. -1.
    9900012    2    1    2    0    0 -0.13242001661E+02 -0.39128443140E+02 -0.13313065554E+02  0.47787269765E+02  0.19999994165E+02 0.  0.
        -12    1    1    2    0    0  0.13242001661E+02  0.39128443140E+02  0.13313065554E+02  0.43400730235E+02  0.00000000000E+00 0.  1.
         11    1    3    3    0    0 -0.12707528048E+02 -0.17753830165E+02 -0.80946565095E+01  0.23285257544E+02  0.51100000000E-03 0. -1.
        -11    1    3    3    0    0  0.34125635644E+01 -0.32563002430E+01 -0.35113201226E+01  0.58803444303E+01  0.51100000000E-03 0.  1.
        -12    1    3    3    0    0 -0.39470371771E+01 -0.18118312731E+02 -0.17070889220E+01  0.18621667790E+02  0.00000000000E+00 0.  1.
</event>
<event>
 7    1  0.2497395E-009  0.4778727E+02  0.7816164E-02  0.1312668E+00
        -11   -1    0    0    0    0  0.00000000000E+00  0.00000000000E+00  0.45593999997E+02  0.45594000000E+02  0.51100000000E-03 0.  1.
         11   -1    0    0    0    0 -0.00000000000E+00 -0.00000000000E+00 -0.45593999997E+02  0.45594000000E+02  0.51100000000E-03 0. -1.
    9900012    2    1    2    0    0 -0.38380032542E+02 -0.13503616769E+02 -0.15107918293E+02  0.47787265457E+02  0.19999974525E+02 0.  0.
        -12    1    1    2    0    0  0.38380032542E+02  0.13503616769E+02  0.15107918293E+02  0.43400734543E+02  0.00000000000E+00 0.  1.
         11    1    3    3    0    0 -0.32437069611E+02 -0.12298055458E+02 -0.79784018355E+01  0.35595793981E+02  0.51100000000E-03 0. -1.
        -11    1    3    3    0    0 -0.77891103568E+01 -0.38147578355E+00 -0.50476704918E+01  0.92894963038E+01  0.51100000000E-03 0.  1.
         12    1    3    3    0    0  0.18461474266E+01 -0.82408552712E+00 -0.20818459655E+01  0.29019751723E+01  0.00000000000E+00 0. -1.
</event>
<event>
 7    1  0.2497395E-009  0.4778726E+02  0.7816164E-02  0.1312668E+00
        -11   -1    0    0    0    0  0.00000000000E+00  0.00000000000E+00  0.45593999997E+02  0.45594000000E+02  0.51100000000E-03 0. -1.
         11   -1    0    0    0    0 -0.00000000000E+00 -0.00000000000E+00 -0.45593999997E+02  0.45594000000E+02  0.51100000000E-03 0.  1.
    9900012    2    1    2    0    0  0.30872107870E+02 -0.20953282685E+02 -0.22169725778E+02  0.47787264514E+02  0.19999970226E+02 0.  0.
        -12    1    1    2    0    0 -0.30872107870E+02  0.20953282685E+02  0.22169725778E+02  0.43400735486E+02  0.00000000000E+00 0.  1.
         11    1    3    3    0    0  0.21929051921E+02 -0.62628967417E+01 -0.12035275344E+02  0.25786722293E+02  0.51100000000E-03 0. -1.
        -11    1    3    3    0    0  0.80880265376E+01 -0.85331455084E+01 -0.10514056179E+02  0.15772638433E+02  0.51100000000E-03 0.  1.
         12    1    3    3    0    0  0.85502941076E+00 -0.61572404353E+01  0.37960574428E+00  0.62279037880E+01  0.00000000000E+00 0. -1.
</event>
<event>
 7    1  0.2497395E-009  0.4778726E+02  0.7816164E-02  0.1312668E+00
        -11   -1    0    0    0    0  0.00000000000E+00  0.00000000000E+00  0.45593999997E+02  0.45594000000E+02  0.51100000000E-03 0. -1.
         11   -1    0    0    0    0 -0.00000000000E+00 -0.00000000000E+00 -0.45593999997E+02  0.45594000000E+02  0.51100000000E-03 0.  1.
    9900012    2    1    2    0    0  0.10605885555E+02 -0.31263409110E+02  0.28173362173E+02  0.47787263903E+02  0.19999967440E+02 0.  0.
        -12    1    1    2    0    0 -0.10605885555E+02  0.31263409110E+02 -0.28173362173E+02  0.43400736097E+02  0.00000000000E+00 0.  1.
         11    1    3    3    0    0  0.25346593267E+01 -0.18762863672E+02  0.22074455830E+02  0.29081801036E+02  0.51100000000E-03 0. -1.
        -11    1    3    3    0    0  0.10138933876E+02 -0.11483951000E+02  0.47655095656E+01  0.16043353528E+02  0.51100000000E-03 0.  1.
        -12    1    3    3    0    0 -0.20677076478E+01 -0.10165944382E+01  0.13333967778E+01  0.26621093395E+01  0.00000000000E+00 0.  1.
</event>
<event>
 7    1  0.2497395E-009  0.4778727E+02  0.7816164E-02  0.1312668E+00
        -11   -1    0    0    0    0  0.00000000000E+00  0.00000000000E+00  0.45593999997E+02  0.45594000000E+02  0.51100000000E-03 0.  1.
         11   -1    0    0    0    0 -0.00000000000E+00 -0.00000000000E+00 -0.45593999997E+02  0.45594000000E+02  0.51100000000E-03 0. -1.
    9900012    2    1    2    0    0 -0.43266639338E+02  0.21768492461E+01 -0.26234411219E+01  0.47787271947E+02  0.20000004114E+02 0.  0.
        -12    1    1    2    0    0  0.43266639338E+02 -0.21768492461E+01  0.26234411219E+01  0.43400728053E+02  0.00000000000E+00 0.  1.
         11    1    3    3    0    0 -0.20667078100E+02  0.22977977306E+01  0.70496385319E+01  0.21956898581E+02  0.51100000000E-03 0.  1.
        -11    1    3    3    0    0 -0.19850239597E+02  0.19638759394E+01 -0.60900774329E+01  0.20856122942E+02  0.51100000000E-03 0. -1.
         12    1    3    3    0    0 -0.27493216409E+01 -0.20848244239E+01 -0.35830022210E+01  0.49742504238E+01  0.00000000000E+00 0. -1.
</event>
<event>
 7    1  0.2497395E-009  0.4778726E+02  0.7816164E-02  0.1312668E+00
        -11   -1    0    0    0    0  0.00000000000E+00  0.00000000000E+00  0.45593999997E+02  0.45594000000E+02  0.51100000000E-03 0.  1.
         11   -1    0    0    0    0 -0.00000000000E+00 -0.00000000000E+00 -0.45593999997E+02  0.45594000000E+02  0.51100000000E-03 0. -1.
    9900012    2    1    2    0    0  0.28015128145E+02  0.11016641983E+02 -0.31263562217E+02  0.47787261204E+02  0.19999955132E+02 0.  0.
        -12    1    1    2    0    0 -0.28015128145E+02 -0.11016641983E+02  0.31263562217E+02  0.43400738796E+02  0.00000000000E+00 0.  1.
         11    1    3    3    0    0  0.36221776783E+01  0.67031206488E+01 -0.53014159146E+00  0.76376074744E+01  0.51100000000E-03 0. -1.
        -11    1    3    3    0    0  0.22906225715E+02  0.19094850639E+01 -0.27874028270E+02  0.36128973996E+02  0.51100000000E-03 0.  1.
         12    1    3    3    0    0  0.14867247518E+01  0.24040362706E+01 -0.28593923554E+01  0.40206797336E+01  0.00000000000E+00 0. -1.
</event>
<event>
 7    1  0.2497395E-009  0.4778727E+02  0.7816164E-02  0.1312668E+00
        -11   -1    0    0    0    0  0.00000000000E+00  0.00000000000E+00  0.45593999997E+02  0.45594000000E+02  0.51100000000E-03 0.  1.
         11   -1    0    0    0    0 -0.00000000000E+00 -0.00000000000E+00 -0.45593999997E+02  0.45594000000E+02  0.51100000000E-03 0. -1.
    9900012    2    1    2    0    0  0.14410236416E+02 -0.64846875767E+01 -0.40421742270E+02  0.47787270344E+02  0.19999996806E+02 0.  0.
        -12    1    1    2    0    0 -0.14410236416E+02  0.64846875767E+01  0.40421742270E+02  0.43400729656E+02  0.00000000000E+00 0.  1.
         11    1    3    3    0    0  0.56924359525E+01 -0.98311022280E+01 -0.27693230026E+02  0.29932747746E+02  0.51100000000E-03 0. -1.
        -11    1    3    3    0    0  0.84346001314E+01  0.24798069146E+01 -0.50837977900E+01  0.10155634985E+02  0.51100000000E-03 0.  1.
         12    1    3    3    0    0  0.28320033232E+00  0.86660773671E+00 -0.76447144542E+01  0.76988876134E+01  0.00000000000E+00 0. -1.
</event>
<event>
 7    1  0.2497395E-009  0.4778727E+02  0.7816164E-02  0.1312668E+00
        -11   -1    0    0    0    0  0.00000000000E+00  0.00000000000E+00  0.45593999997E+02  0.45594000000E+02  0.51100000000E-03 0.  1.
         11   -1    0    0    0    0 -0.00000000000E+00 -0.00000000000E+00 -0.45593999997E+02  0.45594000000E+02  0.51100000000E-03 0. -1.
    9900012    2    1    2    0    0  0.39611286657E+01  0.89061845925E+01 -0.42291994622E+02  0.47787268745E+02  0.19999989518E+02 0.  0.
        -12    1    1    2    0    0 -0.39611286657E+01 -0.89061845925E+01  0.42291994622E+02  0.43400731255E+02  0.00000000000E+00 0.  1.
         11    1    3    3    0    0 -0.22505881397E+01 -0.22600985771E+01 -0.92329154522E+01  0.97683120630E+01  0.51100000000E-03 0. -1.
        -11    1    3    3    0    0  0.68037736797E+01  0.88683912558E+01 -0.33745658687E+02  0.35548687462E+02  0.51100000000E-03 0.  1.
        -12    1    3    3    0    0 -0.59205687429E+00  0.22978919139E+01  0.68657951704E+00  0.24702692208E+01  0.00000000000E+00 0.  1.
</event>
<event>
 7    1  0.2497395E-009  0.4778727E+02  0.7816164E-02  0.1312668E+00
        -11   -1    0    0    0    0  0.00000000000E+00  0.00000000000E+00  0.45593999997E+02  0.45594000000E+02  0.51100000000E-03 0.  1.
         11   -1    0    0    0    0 -0.00000000000E+00 -0.00000000000E+00 -0.45593999997E+02  0.45594000000E+02  0.51100000000E-03 0. -1.
    9900012    2    1    2    0    0  0.38855203652E+02  0.19777523058E+01 -0.19234987434E+02  0.47787273087E+02  0.20000009312E+02 0.  0.
        -12    1    1    2    0    0 -0.38855203652E+02 -0.19777523058E+01  0.19234987434E+02  0.43400726913E+02  0.00000000000E+00 0.  1.
         11    1    3    3    0    0  0.29166953867E+02 -0.18700903465E+01 -0.12536981686E+02  0.31802269508E+02  0.51100000000E-03 0. -1.
        -11    1    3    3    0    0  0.35697209160E+01  0.52702356543E+01  0.55543827654E+00  0.63895855272E+01  0.51100000000E-03 0.  1.
        -12    1    3    3    0    0  0.61185288682E+01 -0.14223930020E+01 -0.72534440248E+01  0.95954180516E+01  0.00000000000E+00 0.  1.
</event>
<event>
 7    1  0.2497395E-009  0.4778727E+02  0.7816164E-02  0.1312668E+00
        -11   -1    0    0    0    0  0.00000000000E+00  0.00000000000E+00  0.45593999997E+02  0.45594000000E+02  0.51100000000E-03 0.  1.
         11   -1    0    0    0    0 -0.00000000000E+00 -0.00000000000E+00 -0.45593999997E+02  0.45594000000E+02  0.51100000000E-03 0. -1.
    9900012    2    1    2    0    0  0.13361822204E+02 -0.39455099158E+02 -0.12181138365E+02  0.47787271042E+02  0.19999999991E+02 0.  0.
        -12    1    1    2    0    0 -0.13361822204E+02  0.39455099158E+02  0.12181138365E+02  0.43400728958E+02  0.00000000000E+00 0.  1.
         11    1    3    3    0    0  0.17289762769E+01 -0.28696871203E+01 -0.38281009131E+01  0.50871229587E+01  0.51100000000E-03 0.  1.
        -11    1    3    3    0    0  0.15347478601E+02 -0.22173075334E+02 -0.60921480121E+01  0.27646060060E+02  0.51100000000E-03 0. -1.
        -12    1    3    3    0    0 -0.37146326740E+01 -0.14412336704E+02 -0.22608894394E+01  0.15054088024E+02  0.00000000000E+00 0.  1.
</event>
<event>
 7    1  0.2497395E-009  0.4778726E+02  0.7816164E-02  0.1312668E+00
        -11   -1    0    0    0    0  0.00000000000E+00  0.00000000000E+00  0.45593999997E+02  0.45594000000E+02  0.51100000000E-03 0.  1.
         11   -1    0    0    0    0 -0.00000000000E+00 -0.00000000000E+00 -0.45593999997E+02  0.45594000000E+02  0.51100000000E-03 0. -1.
    9900012    2    1    2    0    0  0.39470289924E+02  0.16641516434E+02 -0.69842687347E+01  0.47787264227E+02  0.19999968916E+02 0.  0.
        -12    1    1    2    0    0 -0.39470289924E+02 -0.16641516434E+02  0.69842687347E+01  0.43400735773E+02  0.00000000000E+00 0.  1.
         11    1    3    3    0    0  0.24538141569E+02  0.16587339648E+02 -0.64057637945E+01  0.30303366782E+02  0.51100000000E-03 0. -1.
        -11    1    3    3    0    0  0.12361434219E+02 -0.36815249874E+01 -0.95639346410E+00  0.12933420696E+02  0.51100000000E-03 0.  1.
         12    1    3    3    0    0  0.25707141360E+01  0.37357017731E+01  0.37788852395E+00  0.45504767490E+01  0.00000000000E+00 0. -1.
</event>
<event>
 7    1  0.2497395E-009  0.4778726E+02  0.7816164E-02  0.1312668E+00
        -11   -1    0    0    0    0  0.00000000000E+00  0.00000000000E+00  0.45593999997E+02  0.45594000000E+02  0.51100000000E-03 0. -1.
         11   -1    0    0    0    0 -0.00000000000E+00 -0.00000000000E+00 -0.45593999997E+02  0.45594000000E+02  0.51100000000E-03 0.  1.
    9900012    2    1    2    0    0 -0.74704024653E+01 -0.24295894145E+02  0.35178496695E+02  0.47787262506E+02  0.19999961069E+02 0.  0.
        -12    1    1    2    0    0  0.74704024653E+01  0.24295894145E+02 -0.35178496695E+02  0.43400737494E+02  0.00000000000E+00 0.  1.
         11    1    3    3    0    0 -0.28872524561E+01 -0.11991997004E+02  0.97789459698E+01  0.15740775185E+02  0.51100000000E-03 0. -1.
        -11    1    3    3    0    0 -0.59707519500E+01 -0.47289343132E+01  0.22605688758E+02  0.23854346838E+02  0.51100000000E-03 0.  1.
        -12    1    3    3    0    0  0.13876019408E+01 -0.75749628283E+01  0.27938619669E+01  0.81921404826E+01  0.00000000000E+00 0.  1.
</event>
<event>
 7    1  0.2497395E-009  0.4778727E+02  0.7816164E-02  0.1312668E+00
        -11   -1    0    0    0    0  0.00000000000E+00  0.00000000000E+00  0.45593999997E+02  0.45594000000E+02  0.51100000000E-03 0.  1.
         11   -1    0    0    0    0 -0.00000000000E+00 -0.00000000000E+00 -0.45593999997E+02  0.45594000000E+02  0.51100000000E-03 0. -1.
    9900012    2    1    2    0    0 -0.58462952285E+01 -0.29674803545E+02 -0.31126360423E+02  0.47787269055E+02  0.19999990931E+02 0.  0.
        -12    1    1    2    0    0  0.58462952285E+01  0.29674803545E+02  0.31126360423E+02  0.43400730945E+02  0.00000000000E+00 0.  1.
         11    1    3    3    0    0 -0.66481245464E+01 -0.12150248467E+02 -0.23849688538E+02  0.27579589217E+02  0.51100000000E-03 0. -1.
        -11    1    3    3    0    0  0.37117697834E+01 -0.86378038780E+01 -0.26114166946E+01  0.97574785766E+01  0.51100000000E-03 0.  1.
        -12    1    3    3    0    0 -0.29099404655E+01 -0.88867512003E+01 -0.46652551910E+01  0.10450201262E+02  0.00000000000E+00 0.  1.
</event>
<event>
 7    1  0.2497395E-009  0.4778724E+02  0.7816164E-02  0.1312668E+00
        -11   -1    0    0    0    0  0.00000000000E+00  0.00000000000E+00  0.45593999997E+02  0.45594000000E+02  0.51100000000E-03 0. -1.
         11   -1    0    0    0    0 -0.00000000000E+00 -0.00000000000E+00 -0.45593999997E+02  0.45594000000E+02  0.51100000000E-03 0.  1.
    9900012    2    1    2    0    0 -0.39446858788E+02  0.17803605838E+02 -0.32561728712E+01  0.47787242969E+02  0.19999871993E+02 0.  0.
        -12    1    1    2    0    0  0.39446858788E+02 -0.17803605838E+02  0.32561728712E+01  0.43400757031E+02  0.00000000000E+00 0.  1.
         11    1    3    3    0    0 -0.12056168717E+01 -0.26890026421E+01 -0.14115010349E+01  0.32675040448E+01  0.51100000000E-03 0. -1.
        -11    1    3    3    0    0 -0.31319487402E+01 -0.89702491080E+00  0.68906499884E+00  0.33299500651E+01  0.51100000000E-03 0.  1.
         12    1    3    3    0    0 -0.35109293176E+02  0.21389633391E+02 -0.25337368352E+01  0.41189788859E+02  0.00000000000E+00 0. -1.
</event>
<event>
 7    1  0.2497395E-009  0.4778728E+02  0.7816164E-02  0.1312668E+00
        -11   -1    0    0    0    0  0.00000000000E+00  0.00000000000E+00  0.45593999997E+02  0.45594000000E+02  0.51100000000E-03 0.  1.
         11   -1    0    0    0    0 -0.00000000000E+00 -0.00000000000E+00 -0.45593999997E+02  0.45594000000E+02  0.51100000000E-03 0. -1.
    9900012    2    1    2    0    0 -0.94922371508E+01  0.10132532615E+02 -0.41119969314E+02  0.47787278120E+02  0.20000032261E+02 0.  0.
        -12    1    1    2    0    0  0.94922371508E+01 -0.10132532615E+02  0.41119969314E+02  0.43400721880E+02  0.00000000000E+00 0.  1.
         11    1    3    3    0    0 -0.32331753553E+01  0.33135722837E+01 -0.26284230432E+02  0.26688835753E+02  0.51100000000E-03 0. -1.
        -11    1    3    3    0    0  0.23330950574E+00  0.56409514435E+01 -0.95061819037E+00  0.57252459963E+01  0.51100000000E-03 0.  1.
        -12    1    3    3    0    0 -0.64923713012E+01  0.11780088874E+01 -0.13885120692E+02  0.15373196371E+02  0.00000000000E+00 0.  1.
</event>
<event>
 7    1  0.2497395E-009  0.4778727E+02  0.7816164E-02  0.1312668E+00
        -11   -1    0    0    0    0  0.00000000000E+00  0.00000000000E+00  0.45593999997E+02  0.45594000000E+02  0.51100000000E-03 0. -1.
         11   -1    0    0    0    0 -0.00000000000E+00 -0.00000000000E+00 -0.45593999997E+02  0.45594000000E+02  0.51100000000E-03 0.  1.
    9900012    2    1    2    0    0  0.38941210926E+02  0.17546611930E+02  0.77020576313E+01  0.47787272007E+02  0.20000004387E+02 0.  0.
        -12    1    1    2    0    0 -0.38941210926E+02 -0.17546611930E+02 -0.77020576313E+01  0.43400727993E+02  0.00000000000E+00 0.  1.
         11    1    3    3    0    0  0.14552487885E+02  0.12599028847E+02 -0.33634593855E+00  0.19251585918E+02  0.51100000000E-03 0. -1.
        -11    1    3    3    0    0  0.16847629439E+02 -0.10853682846E+01  0.16641954011E+01  0.16964379995E+02  0.51100000000E-03 0.  1.
         12    1    3    3    0    0  0.75410936025E+01  0.60329513678E+01  0.63742081687E+01  0.11571306093E+02  0.00000000000E+00 0. -1.
</event>
<event>
 7    1  0.2497395E-009  0.4778727E+02  0.7816164E-02  0.1312668E+00
        -11   -1    0    0    0    0  0.00000000000E+00  0.00000000000E+00  0.45593999997E+02  0.45594000000E+02  0.51100000000E-03 0.  1.
         11   -1    0    0    0    0 -0.00000000000E+00 -0.00000000000E+00 -0.45593999997E+02  0.45594000000E+02  0.51100000000E-03 0. -1.
    9900012    2    1    2    0    0  0.24967809749E+02 -0.82694274448E+01 -0.34523158597E+02  0.47787269206E+02  0.19999991617E+02 0.  0.
        -12    1    1    2    0    0 -0.24967809749E+02  0.82694274448E+01  0.34523158597E+02  0.43400730794E+02  0.00000000000E+00 0.  1.
         11    1    3    3    0    0  0.10697369052E+01 -0.76039650017E+01 -0.58070033379E+01  0.96273521189E+01  0.51100000000E-03 0. -1.
        -11    1    3    3    0    0  0.11774192815E+02  0.17548068673E+01 -0.91470327668E+01  0.15012633756E+02  0.51100000000E-03 0.  1.
         12    1    3    3    0    0  0.12123880029E+02 -0.24202693105E+01 -0.19569122492E+02  0.23147283331E+02  0.00000000000E+00 0. -1.
</event>
<event>
 7    1  0.2497395E-009  0.4778727E+02  0.7816164E-02  0.1312668E+00
        -11   -1    0    0    0    0  0.00000000000E+00  0.00000000000E+00  0.45593999997E+02  0.45594000000E+02  0.51100000000E-03 0. -1.
         11   -1    0    0    0    0 -0.00000000000E+00 -0.00000000000E+00 -0.45593999997E+02  0.45594000000E+02  0.51100000000E-03 0.  1.
    9900012    2    1    2    0    0 -0.25239328316E+02  0.61904952161E+01  0.34760285241E+02  0.47787270111E+02  0.19999995743E+02 0.  0.
        -12    1    1    2    0    0  0.25239328316E+02 -0.61904952161E+01 -0.34760285241E+02  0.43400729889E+02  0.00000000000E+00 0.  1.
         11    1    3    3    0    0 -0.11555441778E+02 -0.11118398652E+01  0.20014421699E+02  0.23137447974E+02  0.51100000000E-03 0. -1.
        -11    1    3    3    0    0 -0.12609785389E+02  0.92730998039E+01  0.80771982252E+01  0.17613579959E+02  0.51100000000E-03 0.  1.
        -12    1    3    3    0    0 -0.10741011496E+01 -0.19707647225E+01  0.66686653175E+01  0.70362421781E+01  0.00000000000E+00 0.  1.
</event>
<event>
 7    1  0.2497395E-009  0.4778727E+02  0.7816164E-02  0.1312668E+00
        -11   -1    0    0    0    0  0.00000000000E+00  0.00000000000E+00  0.45593999997E+02  0.45594000000E+02  0.51100000000E-03 0.  1.
         11   -1    0    0    0    0 -0.00000000000E+00 -0.00000000000E+00 -0.45593999997E+02  0.45594000000E+02  0.51100000000E-03 0. -1.
    9900012    2    1    2    0    0  0.29863536954E+02  0.31326803537E+02  0.32285958346E+01  0.47787270855E+02  0.19999999136E+02 0.  0.
        -12    1    1    2    0    0 -0.29863536954E+02 -0.31326803537E+02 -0.32285958346E+01  0.43400729145E+02  0.00000000000E+00 0.  1.
         11    1    3    3    0    0  0.16931684311E+02  0.18282593643E+02 -0.88543879295E+00  0.24934296983E+02  0.51100000000E-03 0. -1.
        -11    1    3    3    0    0  0.58916514530E+01  0.74566772619E+01  0.85916822581E+01  0.12811346413E+02  0.51100000000E-03 0.  1.
        -12    1    3    3    0    0  0.70402011903E+01  0.55875326324E+01 -0.44776476306E+01  0.10041627459E+02  0.00000000000E+00 0.  1.
</event>
<event>
 7    1  0.2497395E-009  0.4778727E+02  0.7816164E-02  0.1312668E+00
        -11   -1    0    0    0    0  0.00000000000E+00  0.00000000000E+00  0.45593999997E+02  0.45594000000E+02  0.51100000000E-03 0.  1.
         11   -1    0    0    0    0 -0.00000000000E+00 -0.00000000000E+00 -0.45593999997E+02  0.45594000000E+02  0.51100000000E-03 0. -1.
    9900012    2    1    2    0    0  0.28495778149E+02  0.52662709555E+00 -0.32731284152E+02  0.47787266473E+02  0.19999979158E+02 0.  0.
        -12    1    1    2    0    0 -0.28495778149E+02 -0.52662709555E+00  0.32731284152E+02  0.43400733527E+02  0.00000000000E+00 0.  1.
         11    1    3    3    0    0  0.13572986363E+02  0.24558676428E+01 -0.32683969024E+01  0.14175318807E+02  0.51100000000E-03 0. -1.
        -11    1    3    3    0    0  0.38580124902E+01 -0.13384515164E+01 -0.14036713987E+02  0.14618654270E+02  0.51100000000E-03 0.  1.
         12    1    3    3    0    0  0.11064779295E+02 -0.59078903082E+00 -0.15426173263E+02  0.18993293397E+02  0.00000000000E+00 0. -1.
</event>
<event>
 7    1  0.2497395E-009  0.4778726E+02  0.7816164E-02  0.1312668E+00
        -11   -1    0    0    0    0  0.00000000000E+00  0.00000000000E+00  0.45593999997E+02  0.45594000000E+02  0.51100000000E-03 0. -1.
         11   -1    0    0    0    0 -0.00000000000E+00 -0.00000000000E+00 -0.45593999997E+02  0.45594000000E+02  0.51100000000E-03 0.  1.
    9900012    2    1    2    0    0  0.12488465081E+02 -0.40720016694E+02  0.83392115485E+01  0.47787263037E+02  0.19999963492E+02 0.  0.
        -12    1    1    2    0    0 -0.12488465081E+02  0.40720016694E+02 -0.83392115485E+01  0.43400736963E+02  0.00000000000E+00 0.  1.
         11    1    3    3    0    0  0.98070464019E+01 -0.34456458234E+02  0.79586623113E+01  0.36698310305E+02  0.51100000000E-03 0. -1.
        -11    1    3    3    0    0  0.85434708493E+00 -0.63902169591E+01 -0.31017458196E+01  0.71544118638E+01  0.51100000000E-03 0.  1.
         12    1    3    3    0    0  0.18270715942E+01  0.12665849908E+00  0.34822950568E+01  0.39345408688E+01  0.00000000000E+00 0. -1.
</event>
<event>
 7    1  0.2497395E-009  0.4778730E+02  0.7816164E-02  0.1312668E+00
        -11   -1    0    0    0    0  0.00000000000E+00  0.00000000000E+00  0.45593999997E+02  0.45594000000E+02  0.51100000000E-03 0.  1.
         11   -1    0    0    0    0 -0.00000000000E+00 -0.00000000000E+00 -0.45593999997E+02  0.45594000000E+02  0.51100000000E-03 0. -1.
    9900012    2    1    2    0    0  0.83585897542E+01  0.30062856217E+02 -0.30165869825E+02  0.47787296677E+02  0.20000116869E+02 0.  0.
        -12    1    1    2    0    0 -0.83585897542E+01 -0.30062856217E+02  0.30165869825E+02  0.43400703323E+02  0.00000000000E+00 0.  1.
         11    1    3    3    0    0 -0.39418787027E+01  0.19765972226E+01 -0.25561203077E+00  0.44170897725E+01  0.51100000000E-03 0. -1.
        -11    1    3    3    0    0  0.47002922029E+00  0.52332858545E+00 -0.29737713307E+01  0.30558331867E+01  0.51100000000E-03 0.  1.
         12    1    3    3    0    0  0.11830439237E+02  0.27562930409E+02 -0.26936486464E+02  0.40314373718E+02  0.00000000000E+00 0. -1.
</event>
<event>
 7    1  0.2497395E-009  0.4778728E+02  0.7816164E-02  0.1312668E+00
        -11   -1    0    0    0    0  0.00000000000E+00  0.00000000000E+00  0.45593999997E+02  0.45594000000E+02  0.51100000000E-03 0.  1.
         11   -1    0    0    0    0 -0.00000000000E+00 -0.00000000000E+00 -0.45593999997E+02  0.45594000000E+02  0.51100000000E-03 0. -1.
    9900012    2    1    2    0    0  0.17070135468E+02  0.27320476539E+02 -0.29083068669E+02  0.47787275969E+02  0.20000022453E+02 0.  0.
        -12    1    1    2    0    0 -0.17070135468E+02 -0.27320476539E+02  0.29083068669E+02  0.43400724031E+02  0.00000000000E+00 0.  1.
         11    1    3    3    0    0  0.24122320080E+01  0.49729475467E+01 -0.16126201744E+01  0.57575702037E+01  0.51100000000E-03 0. -1.
        -11    1    3    3    0    0  0.10889229913E+02  0.15888072631E+02 -0.74395775202E+01  0.20648329084E+02  0.51100000000E-03 0.  1.
        -12    1    3    3    0    0  0.37686735472E+01  0.64594563613E+01 -0.20030870974E+02  0.21381376681E+02  0.00000000000E+00 0.  1.
</event>
<event>
 7    1  0.2497395E-009  0.4778727E+02  0.7816164E-02  0.1312668E+00
        -11   -1    0    0    0    0  0.00000000000E+00  0.00000000000E+00  0.45593999997E+02  0.45594000000E+02  0.51100000000E-03 0. -1.
         11   -1    0    0    0    0 -0.00000000000E+00 -0.00000000000E+00 -0.45593999997E+02  0.45594000000E+02  0.51100000000E-03 0.  1.
    9900012    2    1    2    0    0  0.16811855826E+02  0.28914307598E+01  0.39907703571E+02  0.47787266453E+02  0.19999979065E+02 0.  0.
        -12    1    1    2    0    0 -0.16811855826E+02 -0.28914307598E+01 -0.39907703571E+02  0.43400733547E+02  0.00000000000E+00 0.  1.
         11    1    3    3    0    0  0.13693515307E+02  0.21048258219E+01  0.11114854849E+02  0.17761831319E+02  0.51100000000E-03 0. -1.
        -11    1    3    3    0    0  0.25941298889E+01  0.26342848229E+01  0.27411414591E+02  0.27659620687E+02  0.51100000000E-03 0.  1.
        -12    1    3    3    0    0  0.52421063004E+00 -0.18476798849E+01  0.13814341304E+01  0.23658144471E+01  0.00000000000E+00 0.  1.
</event>
<event>
 7    1  0.2497395E-009  0.4778728E+02  0.7816164E-02  0.1312668E+00
        -11   -1    0    0    0    0  0.00000000000E+00  0.00000000000E+00  0.45593999997E+02  0.45594000000E+02  0.51100000000E-03 0.  1.
         11   -1    0    0    0    0 -0.00000000000E+00 -0.00000000000E+00 -0.45593999997E+02  0.45594000000E+02  0.51100000000E-03 0. -1.
    9900012    2    1    2    0    0 -0.35754515535E+02 -0.22813313368E+02 -0.92081588851E+01  0.47787276065E+02  0.20000022893E+02 0.  0.
        -12    1    1    2    0    0  0.35754515535E+02  0.22813313368E+02  0.92081588851E+01  0.43400723935E+02  0.00000000000E+00 0.  1.
         11    1    3    3    0    0  0.66867841302E+00 -0.12157976068E+01 -0.32831891191E+01  0.35643548777E+01  0.51100000000E-03 0. -1.
        -11    1    3    3    0    0 -0.36380810822E+02 -0.18718983233E+02 -0.59466139205E+01  0.41343995292E+02  0.51100000000E-03 0.  1.
         12    1    3    3    0    0 -0.42383126497E-01 -0.28785325277E+01  0.21644154556E-01  0.28789258955E+01  0.00000000000E+00 0. -1.
</event>
<event>
 7    1  0.2497395E-009  0.4778727E+02  0.7816164E-02  0.1312668E+00
        -11   -1    0    0    0    0  0.00000000000E+00  0.00000000000E+00  0.45593999997E+02  0.45594000000E+02  0.51100000000E-03 0.  1.
         11   -1    0    0    0    0 -0.00000000000E+00 -0.00000000000E+00 -0.45593999997E+02  0.45594000000E+02  0.51100000000E-03 0. -1.
    9900012    2    1    2    0    0  0.23048405786E+02  0.36324145291E+02  0.57402802828E+01  0.47787270074E+02  0.19999995576E+02 0.  0.
        -12    1    1    2    0    0 -0.23048405786E+02 -0.36324145291E+02 -0.57402802828E+01  0.43400729926E+02  0.00000000000E+00 0.  1.
         11    1    3    3    0    0  0.69601162034E+01  0.11283763586E+02  0.65730890903E+01  0.14797703831E+02  0.51100000000E-03 0. -1.
        -11    1    3    3    0    0  0.61305128514E+01  0.75772550302E+01 -0.69568109754E+01  0.11974773519E+02  0.51100000000E-03 0.  1.
        -12    1    3    3    0    0  0.99577767308E+01  0.17463126675E+02  0.61240021679E+01  0.21014792724E+02  0.00000000000E+00 0.  1.
</event>
<event>
 7    1  0.2497395E-009  0.4778727E+02  0.7816164E-02  0.1312668E+00
        -11   -1    0    0    0    0  0.00000000000E+00  0.00000000000E+00  0.45593999997E+02  0.45594000000E+02  0.51100000000E-03 0.  1.
         11   -1    0    0    0    0 -0.00000000000E+00 -0.00000000000E+00 -0.45593999997E+02  0.45594000000E+02  0.51100000000E-03 0. -1.
    9900012    2    1    2    0    0 -0.12974664765E+02 -0.36088433840E+02 -0.20320101209E+02  0.47787268486E+02  0.19999988334E+02 0.  0.
        -12    1    1    2    0    0  0.12974664765E+02  0.36088433840E+02  0.20320101209E+02  0.43400731514E+02  0.00000000000E+00 0.  1.
         11    1    3    3    0    0  0.96203339959E+00 -0.18462078040E+02 -0.65690567851E+01  0.19619539778E+02  0.51100000000E-03 0. -1.
        -11    1    3    3    0    0 -0.53839172203E+01 -0.75140738701E+01 -0.11465620625E+02  0.14727807961E+02  0.51100000000E-03 0.  1.
        -12    1    3    3    0    0 -0.85527809442E+01 -0.10112281930E+02 -0.22854237992E+01  0.13439920746E+02  0.00000000000E+00 0.  1.
</event>
<event>
 7    1  0.2497395E-009  0.4778727E+02  0.7816164E-02  0.1312668E+00
        -11   -1    0    0    0    0  0.00000000000E+00  0.00000000000E+00  0.45593999997E+02  0.45594000000E+02  0.51100000000E-03 0. -1.
         11   -1    0    0    0    0 -0.00000000000E+00 -0.00000000000E+00 -0.45593999997E+02  0.45594000000E+02  0.51100000000E-03 0.  1.
    9900012    2    1    2    0    0 -0.22247280414E+01 -0.15335243354E+02  0.40540157426E+02  0.47787268812E+02  0.19999989821E+02 0.  0.
        -12    1    1    2    0    0  0.22247280414E+01  0.15335243354E+02 -0.40540157426E+02  0.43400731188E+02  0.00000000000E+00 0.  1.
         11    1    3    3    0    0  0.53367101098E+01 -0.84535691301E+01  0.68398394117E+01  0.12113080090E+02  0.51100000000E-03 0. -1.
        -11    1    3    3    0    0 -0.78102129838E+01 -0.45149225590E+01  0.22858817329E+02  0.24574569834E+02  0.51100000000E-03 0.  1.
        -12    1    3    3    0    0  0.24877483251E+00 -0.23667516644E+01  0.10841500685E+02  0.11099618888E+02  0.00000000000E+00 0.  1.
</event>
<event>
 7    1  0.2497395E-009  0.4778727E+02  0.7816164E-02  0.1312668E+00
        -11   -1    0    0    0    0  0.00000000000E+00  0.00000000000E+00  0.45593999997E+02  0.45594000000E+02  0.51100000000E-03 0.  1.
         11   -1    0    0    0    0 -0.00000000000E+00 -0.00000000000E+00 -0.45593999997E+02  0.45594000000E+02  0.51100000000E-03 0. -1.
    9900012    2    1    2    0    0  0.10393845467E+02 -0.35511310149E+02 -0.22683428696E+02  0.47787272939E+02  0.20000008636E+02 0.  0.
        -12    1    1    2    0    0 -0.10393845467E+02  0.35511310149E+02  0.22683428696E+02  0.43400727061E+02  0.00000000000E+00 0.  1.
         11    1    3    3    0    0  0.62355766364E+01 -0.33133644622E+02 -0.24216670702E+02  0.41511058310E+02  0.51100000000E-03 0. -1.
        -11    1    3    3    0    0  0.41931162498E+01 -0.31926800533E+01  0.13187425898E+01  0.54327260272E+01  0.51100000000E-03 0.  1.
         12    1    3    3    0    0 -0.34847418861E-01  0.81501452628E+00  0.21449941618E+00  0.84348860110E+00  0.00000000000E+00 0. -1.
</event>
<event>
 7    1  0.2497395E-009  0.4778727E+02  0.7816164E-02  0.1312668E+00
        -11   -1    0    0    0    0  0.00000000000E+00  0.00000000000E+00  0.45593999997E+02  0.45594000000E+02  0.51100000000E-03 0.  1.
         11   -1    0    0    0    0 -0.00000000000E+00 -0.00000000000E+00 -0.45593999997E+02  0.45594000000E+02  0.51100000000E-03 0. -1.
    9900012    2    1    2    0    0 -0.24531992601E+02 -0.31317757688E+02 -0.17349426463E+02  0.47787271824E+02  0.20000003556E+02 0.  0.
        -12    1    1    2    0    0  0.24531992601E+02  0.31317757688E+02  0.17349426463E+02  0.43400728176E+02  0.00000000000E+00 0.  1.
         11    1    3    3    0    0 -0.14931429084E+02 -0.13841505303E+02 -0.16671992822E+02  0.26315208311E+02  0.51100000000E-03 0. -1.
        -11    1    3    3    0    0  0.51745375917E+00 -0.65466195169E+01 -0.26296426533E+00  0.65723006595E+01  0.51100000000E-03 0.  1.
        -12    1    3    3    0    0 -0.10118017276E+02 -0.10929632868E+02 -0.41446937555E+00  0.14899762854E+02  0.00000000000E+00 0.  1.
</event>
<event>
 7    1  0.2497395E-009  0.4778727E+02  0.7816164E-02  0.1312668E+00
        -11   -1    0    0    0    0  0.00000000000E+00  0.00000000000E+00  0.45593999997E+02  0.45594000000E+02  0.51100000000E-03 0.  1.
         11   -1    0    0    0    0 -0.00000000000E+00 -0.00000000000E+00 -0.45593999997E+02  0.45594000000E+02  0.51100000000E-03 0. -1.
    9900012    2    1    2    0    0  0.27002961147E+02  0.37154838975E+01 -0.33773640182E+02  0.47787268412E+02  0.19999987996E+02 0.  0.
        -12    1    1    2    0    0 -0.27002961147E+02 -0.37154838975E+01  0.33773640182E+02  0.43400731588E+02  0.00000000000E+00 0.  1.
         11    1    3    3    0    0  0.10905458597E+02 -0.67424015261E+00 -0.13068576959E+02  0.17034416074E+02  0.51100000000E-03 0. -1.
        -11    1    3    3    0    0  0.13237558507E+02  0.94182742979E+01 -0.18346088614E+02  0.24505424169E+02  0.51100000000E-03 0.  1.
        -12    1    3    3    0    0  0.28599440425E+01 -0.50285502478E+01 -0.23589746087E+01  0.62474281689E+01  0.00000000000E+00 0.  1.
</event>
<event>
 7    1  0.2497395E-009  0.4778727E+02  0.7816164E-02  0.1312668E+00
        -11   -1    0    0    0    0  0.00000000000E+00  0.00000000000E+00  0.45593999997E+02  0.45594000000E+02  0.51100000000E-03 0.  1.
         11   -1    0    0    0    0 -0.00000000000E+00 -0.00000000000E+00 -0.45593999997E+02  0.45594000000E+02  0.51100000000E-03 0. -1.
    9900012    2    1    2    0    0  0.86616827228E+01  0.14424728466E+02 -0.40006572996E+02  0.47787269340E+02  0.19999992230E+02 0.  0.
        -12    1    1    2    0    0 -0.86616827228E+01 -0.14424728466E+02  0.40006572996E+02  0.43400730660E+02  0.00000000000E+00 0.  1.
         11    1    3    3    0    0  0.58341186665E+01  0.71262144521E+01 -0.24772859187E+02  0.26429423482E+02  0.51100000000E-03 0. -1.
        -11    1    3    3    0    0 -0.41906951952E+01 -0.61014755796E+00 -0.58418290007E+01  0.72153428606E+01  0.51100000000E-03 0.  1.
        -12    1    3    3    0    0  0.70182592516E+01  0.79086615721E+01 -0.93918848085E+01  0.14142502998E+02  0.00000000000E+00 0.  1.
</event>
<event>
 7    1  0.2497395E-009  0.4778727E+02  0.7816164E-02  0.1312668E+00
        -11   -1    0    0    0    0  0.00000000000E+00  0.00000000000E+00  0.45593999997E+02  0.45594000000E+02  0.51100000000E-03 0. -1.
         11   -1    0    0    0    0 -0.00000000000E+00 -0.00000000000E+00 -0.45593999997E+02  0.45594000000E+02  0.51100000000E-03 0.  1.
    9900012    2    1    2    0    0 -0.30736263528E+02  0.25256473255E+02  0.17349805514E+02  0.47787273182E+02  0.20000009746E+02 0.  0.
        -12    1    1    2    0    0  0.30736263528E+02 -0.25256473255E+02 -0.17349805514E+02  0.43400726818E+02  0.00000000000E+00 0.  1.
         11    1    3    3    0    0 -0.10763439201E+02  0.19286381739E+02  0.13585038815E+02  0.25930087232E+02  0.51100000000E-03 0. -1.
        -11    1    3    3    0    0 -0.18802933207E+02  0.65270719919E+01  0.44448137538E+01  0.20393855338E+02  0.51100000000E-03 0.  1.
         12    1    3    3    0    0 -0.11698911199E+01 -0.55698047572E+00 -0.68004705470E+00  0.14633306117E+01  0.00000000000E+00 0. -1.
</event>
<event>
 7    1  0.2497395E-009  0.4778723E+02  0.7816164E-02  0.1312668E+00
        -11   -1    0    0    0    0  0.00000000000E+00  0.00000000000E+00  0.45593999997E+02  0.45594000000E+02  0.51100000000E-03 0.  1.
         11   -1    0    0    0    0 -0.00000000000E+00 -0.00000000000E+00 -0.45593999997E+02  0.45594000000E+02  0.51100000000E-03 0. -1.
    9900012    2    1    2    0    0 -0.95170452919E+01  0.33457426696E+02 -0.25954825566E+02  0.47787233620E+02  0.19999829368E+02 0.  0.
        -12    1    1    2    0    0  0.95170452919E+01 -0.33457426696E+02  0.25954825566E+02  0.43400766380E+02  0.00000000000E+00 0.  1.
         11    1    3    3    0    0  0.43220935784E+01  0.12083381520E+02 -0.99010734652E+01  0.16208635287E+02  0.51100000000E-03 0.  1.
        -11    1    3    3    0    0 -0.52988380079E+01  0.56703620425E+01 -0.32413691677E+00  0.77676093446E+01  0.51100000000E-03 0. -1.
         12    1    3    3    0    0 -0.85403008623E+01  0.15703683134E+02 -0.15729615184E+02  0.23810988988E+02  0.00000000000E+00 0. -1.
</event>
<event>
 7    1  0.2497395E-009  0.4778728E+02  0.7816164E-02  0.1312668E+00
        -11   -1    0    0    0    0  0.00000000000E+00  0.00000000000E+00  0.45593999997E+02  0.45594000000E+02  0.51100000000E-03 0.  1.
         11   -1    0    0    0    0 -0.00000000000E+00 -0.00000000000E+00 -0.45593999997E+02  0.45594000000E+02  0.51100000000E-03 0. -1.
    9900012    2    1    2    0    0  0.14909293906E+02  0.11314591764E+01 -0.40743778024E+02  0.47787277744E+02  0.20000030547E+02 0.  0.
        -12    1    1    2    0    0 -0.14909293906E+02 -0.11314591764E+01  0.40743778024E+02  0.43400722256E+02  0.00000000000E+00 0.  1.
         11    1    3    3    0    0  0.51323248714E+00  0.15791477645E+01 -0.10268177383E+02  0.10401566338E+02  0.51100000000E-03 0. -1.
        -11    1    3    3    0    0 -0.32837025139E+01 -0.99292215746E-01 -0.89149883120E+01  0.95010303656E+01  0.51100000000E-03 0.  1.
        -12    1    3    3    0    0  0.17679763933E+02 -0.34839637241E+00 -0.21560612329E+02  0.27884681041E+02  0.00000000000E+00 0.  1.
</event>
<event>
 7    1  0.2497395E-009  0.4778728E+02  0.7816164E-02  0.1312668E+00
        -11   -1    0    0    0    0  0.00000000000E+00  0.00000000000E+00  0.45593999997E+02  0.45594000000E+02  0.51100000000E-03 0. -1.
         11   -1    0    0    0    0 -0.00000000000E+00 -0.00000000000E+00 -0.45593999997E+02  0.45594000000E+02  0.51100000000E-03 0.  1.
    9900012    2    1    2    0    0 -0.58946015855E+01 -0.40807929092E+02  0.13549514460E+02  0.47787277117E+02  0.20000027687E+02 0.  0.
        -12    1    1    2    0    0  0.58946015855E+01  0.40807929092E+02 -0.13549514460E+02  0.43400722883E+02  0.00000000000E+00 0.  1.
         11    1    3    3    0    0 -0.57338991327E+01 -0.20350712221E+02 -0.11073553784E+01  0.21172041077E+02  0.51100000000E-03 0. -1.
        -11    1    3    3    0    0  0.39742581543E+01 -0.84650535751E+01  0.79059993923E+01  0.12245680322E+02  0.51100000000E-03 0.  1.
         12    1    3    3    0    0 -0.41349606071E+01 -0.11992163297E+02  0.67508704459E+01  0.14369555718E+02  0.00000000000E+00 0. -1.
</event>
<event>
 7    1  0.2497395E-009  0.4778727E+02  0.7816164E-02  0.1312668E+00
        -11   -1    0    0    0    0  0.00000000000E+00  0.00000000000E+00  0.45593999997E+02  0.45594000000E+02  0.51100000000E-03 0. -1.
         11   -1    0    0    0    0 -0.00000000000E+00 -0.00000000000E+00 -0.45593999997E+02  0.45594000000E+02  0.51100000000E-03 0.  1.
    9900012    2    1    2    0    0  0.35313227349E+02  0.14803283891E+02  0.20431895495E+02  0.47787267365E+02  0.19999983222E+02 0.  0.
        -12    1    1    2    0    0 -0.35313227349E+02 -0.14803283891E+02 -0.20431895495E+02  0.43400732635E+02  0.00000000000E+00 0.  1.
         11    1    3    3    0    0  0.25170904284E+02  0.14163391379E+02  0.11981457628E+02  0.31268696887E+02  0.51100000000E-03 0. -1.
        -11    1    3    3    0    0  0.92146070057E+01  0.33198348406E+01  0.27845091614E+01  0.10182523124E+02  0.51100000000E-03 0.  1.
         12    1    3    3    0    0  0.92771605917E+00 -0.26799423287E+01  0.56659287057E+01  0.63360473538E+01  0.00000000000E+00 0. -1.
</event>
<event>
 7    1  0.2497395E-009  0.4778727E+02  0.7816164E-02  0.1312668E+00
        -11   -1    0    0    0    0  0.00000000000E+00  0.00000000000E+00  0.45593999997E+02  0.45594000000E+02  0.51100000000E-03 0.  1.
         11   -1    0    0    0    0 -0.00000000000E+00 -0.00000000000E+00 -0.45593999997E+02  0.45594000000E+02  0.51100000000E-03 0. -1.
    9900012    2    1    2    0    0 -0.85402505872E+01 -0.30145751713E+02 -0.30031999756E+02  0.47787271483E+02  0.20000002001E+02 0.  0.
        -12    1    1    2    0    0  0.85402505872E+01  0.30145751713E+02  0.30031999756E+02  0.43400728517E+02  0.00000000000E+00 0.  1.
         11    1    3    3    0    0  0.46813865146E+01 -0.13908167902E+02 -0.11320757166E+02  0.18534078266E+02  0.51100000000E-03 0. -1.
        -11    1    3    3    0    0 -0.42472334716E+01 -0.47765555087E+00 -0.45562757491E+01  0.62471430230E+01  0.51100000000E-03 0.  1.
         12    1    3    3    0    0 -0.89744036302E+01 -0.15759928260E+02 -0.14154966841E+02  0.23006050194E+02  0.00000000000E+00 0. -1.
</event>
<event>
 7    1  0.2497395E-009  0.4778729E+02  0.7816164E-02  0.1312668E+00
        -11   -1    0    0    0    0  0.00000000000E+00  0.00000000000E+00  0.45593999997E+02  0.45594000000E+02  0.51100000000E-03 0.  1.
         11   -1    0    0    0    0 -0.00000000000E+00 -0.00000000000E+00 -0.45593999997E+02  0.45594000000E+02  0.51100000000E-03 0. -1.
    9900012    2    1    2    0    0  0.39769204019E+02  0.17341528694E+02 -0.11415169497E+01  0.47787294169E+02  0.20000105433E+02 0.  0.
        -12    1    1    2    0    0 -0.39769204019E+02 -0.17341528694E+02  0.11415169497E+01  0.43400705831E+02  0.00000000000E+00 0.  1.
         11    1    3    3    0    0  0.20752490630E+02  0.71769658534E+01 -0.53287814820E+01  0.22595809756E+02  0.51100000000E-03 0. -1.
        -11    1    3    3    0    0  0.10749841117E+02  0.16599195631E+01  0.70862525908E+01  0.12981887114E+02  0.51100000000E-03 0.  1.
        -12    1    3    3    0    0  0.82668722719E+01  0.85046432770E+01 -0.28989880586E+01  0.12209597299E+02  0.00000000000E+00 0.  1.
</event>
<event>
 7    1  0.2497395E-009  0.4778727E+02  0.7816164E-02  0.1312668E+00
        -11   -1    0    0    0    0  0.00000000000E+00  0.00000000000E+00  0.45593999997E+02  0.45594000000E+02  0.51100000000E-03 0.  1.
         11   -1    0    0    0    0 -0.00000000000E+00 -0.00000000000E+00 -0.45593999997E+02  0.45594000000E+02  0.51100000000E-03 0. -1.
    9900012    2    1    2    0    0  0.85955833946E+01  0.99027511772E+00 -0.42529501581E+02  0.47787271856E+02  0.20000003701E+02 0.  0.
        -12    1    1    2    0    0 -0.85955833946E+01 -0.99027511772E+00  0.42529501581E+02  0.43400728144E+02  0.00000000000E+00 0.  1.
         11    1    3    3    0    0 -0.74578040629E+00 -0.44326402135E+01 -0.89930947538E+00  0.45840206665E+01  0.51100000000E-03 0.  1.
        -11    1    3    3    0    0  0.74502327317E+01  0.35097375031E+01 -0.24110515135E+02  0.25478248869E+02  0.51100000000E-03 0. -1.
        -12    1    3    3    0    0  0.18911310692E+01  0.19131778282E+01 -0.17519676970E+02  0.17725002321E+02  0.00000000000E+00 0.  1.
</event>
<event>
 7    1  0.2497395E-009  0.4778727E+02  0.7816164E-02  0.1312668E+00
        -11   -1    0    0    0    0  0.00000000000E+00  0.00000000000E+00  0.45593999997E+02  0.45594000000E+02  0.51100000000E-03 0.  1.
         11   -1    0    0    0    0 -0.00000000000E+00 -0.00000000000E+00 -0.45593999997E+02  0.45594000000E+02  0.51100000000E-03 0. -1.
    9900012    2    1    2    0    0 -0.73443358012E+01  0.75062529223E+01 -0.42111048528E+02  0.47787268331E+02  0.19999987627E+02 0.  0.
        -12    1    1    2    0    0  0.73443358012E+01 -0.75062529223E+01  0.42111048528E+02  0.43400731669E+02  0.00000000000E+00 0.  1.
         11    1    3    3    0    0 -0.23740276026E+01  0.19638486325E+01 -0.36446206340E+02  0.36576203539E+02  0.51100000000E-03 0. -1.
        -11    1    3    3    0    0 -0.46284050879E+01  0.53733004882E+01 -0.69143204065E+01  0.99046614652E+01  0.51100000000E-03 0.  1.
        -12    1    3    3    0    0 -0.34190311066E+00  0.16910380161E+00  0.12494782184E+01  0.13064033264E+01  0.00000000000E+00 0.  1.
</event>
<event>
 7    1  0.2497395E-009  0.4778727E+02  0.7816164E-02  0.1312668E+00
        -11   -1    0    0    0    0  0.00000000000E+00  0.00000000000E+00  0.45593999997E+02  0.45594000000E+02  0.51100000000E-03 0.  1.
         11   -1    0    0    0    0 -0.00000000000E+00 -0.00000000000E+00 -0.45593999997E+02  0.45594000000E+02  0.51100000000E-03 0. -1.
    9900012    2    1    2    0    0 -0.13255139002E+02 -0.28862222128E+01 -0.41226136551E+02  0.47787270472E+02  0.19999997392E+02 0.  0.
        -12    1    1    2    0    0  0.13255139002E+02  0.28862222128E+01  0.41226136551E+02  0.43400729528E+02  0.00000000000E+00 0.  1.
         11    1    3    3    0    0 -0.88960252383E+01  0.64102379351E+01 -0.23500380085E+02  0.25932571793E+02  0.51100000000E-03 0. -1.
        -11    1    3    3    0    0 -0.22927371759E+01 -0.45981443459E+01 -0.15372234428E+02  0.16208182092E+02  0.51100000000E-03 0.  1.
         12    1    3    3    0    0 -0.20663765882E+01 -0.46983158019E+01 -0.23535220384E+01  0.56465165867E+01  0.00000000000E+00 0. -1.
</event>
<event>
 7    1  0.2497395E-009  0.4778727E+02  0.7816164E-02  0.1312668E+00
        -11   -1    0    0    0    0  0.00000000000E+00  0.00000000000E+00  0.45593999997E+02  0.45594000000E+02  0.51100000000E-03 0.  1.
         11   -1    0    0    0    0 -0.00000000000E+00 -0.00000000000E+00 -0.45593999997E+02  0.45594000000E+02  0.51100000000E-03 0. -1.
    9900012    2    1    2    0    0  0.91228095606E+01 -0.11028503709E+02 -0.40972790467E+02  0.47787272967E+02  0.20000008766E+02 0.  0.
        -12    1    1    2    0    0 -0.91228095606E+01  0.11028503709E+02  0.40972790467E+02  0.43400727033E+02  0.00000000000E+00 0.  1.
         11    1    3    3    0    0  0.16070662888E+01  0.30882504858E+01 -0.17543032650E+02  0.17885132036E+02  0.51100000000E-03 0. -1.
        -11    1    3    3    0    0  0.89065451012E+01 -0.13504214879E+02 -0.23315871260E+02  0.28378164458E+02  0.51100000000E-03 0.  1.
        -12    1    3    3    0    0 -0.13908018294E+01 -0.61253931631E+00 -0.11388655691E+00  0.15239764731E+01  0.00000000000E+00 0.  1.
</event>
<event>
 7    1  0.2497395E-009  0.4778727E+02  0.7816164E-02  0.1312668E+00
        -11   -1    0    0    0    0  0.00000000000E+00  0.00000000000E+00  0.45593999997E+02  0.45594000000E+02  0.51100000000E-03 0. -1.
         11   -1    0    0    0    0 -0.00000000000E+00 -0.00000000000E+00 -0.45593999997E+02  0.45594000000E+02  0.51100000000E-03 0.  1.
    9900012    2    1    2    0    0  0.13228106861E+02  0.39822642218E+02 -0.11081416279E+02  0.47787269233E+02  0.19999991740E+02 0.  0.
        -12    1    1    2    0    0 -0.13228106861E+02 -0.39822642218E+02  0.11081416279E+02  0.43400730767E+02  0.00000000000E+00 0.  1.
         11    1    3    3    0    0  0.51987297269E+01  0.18595401057E+02  0.32219992315E+01  0.19575418529E+02  0.51100000000E-03 0. -1.
        -11    1    3    3    0    0 -0.16318441794E+01  0.10345360128E+01 -0.11250366467E+01  0.22358192917E+01  0.51100000000E-03 0.  1.
         12    1    3    3    0    0  0.96612213134E+01  0.20192705148E+02 -0.13178378864E+02  0.25976031413E+02  0.00000000000E+00 0. -1.
</event>
<event>
 7    1  0.2497395E-009  0.4778727E+02  0.7816164E-02  0.1312668E+00
        -11   -1    0    0    0    0  0.00000000000E+00  0.00000000000E+00  0.45593999997E+02  0.45594000000E+02  0.51100000000E-03 0. -1.
         11   -1    0    0    0    0 -0.00000000000E+00 -0.00000000000E+00 -0.45593999997E+02  0.45594000000E+02  0.51100000000E-03 0.  1.
    9900012    2    1    2    0    0 -0.42230732037E+02 -0.77214463461E+01  0.63693065952E+01  0.47787268110E+02  0.19999986621E+02 0.  0.
        -12    1    1    2    0    0  0.42230732037E+02  0.77214463461E+01 -0.63693065952E+01  0.43400731890E+02  0.00000000000E+00 0.  1.
         11    1    3    3    0    0 -0.10860871029E+02  0.62730993582E+00  0.10362725113E+02  0.15024583498E+02  0.51100000000E-03 0. -1.
        -11    1    3    3    0    0 -0.17879513388E+02 -0.39595864234E+01 -0.28093045374E+01  0.18526940273E+02  0.51100000000E-03 0.  1.
         12    1    3    3    0    0 -0.13490347620E+02 -0.43891698585E+01 -0.11841139804E+01  0.14235744339E+02  0.00000000000E+00 0. -1.
</event>
<event>
 7    1  0.2497395E-009  0.4778728E+02  0.7816164E-02  0.1312668E+00
        -11   -1    0    0    0    0  0.00000000000E+00  0.00000000000E+00  0.45593999997E+02  0.45594000000E+02  0.51100000000E-03 0.  1.
         11   -1    0    0    0    0 -0.00000000000E+00 -0.00000000000E+00 -0.45593999997E+02  0.45594000000E+02  0.51100000000E-03 0. -1.
    9900012    2    1    2    0    0 -0.41809373104E+02 -0.60239766624E+01 -0.99654748019E+01  0.47787278091E+02  0.20000032128E+02 0.  0.
        -12    1    1    2    0    0  0.41809373104E+02  0.60239766624E+01  0.99654748019E+01  0.43400721909E+02  0.00000000000E+00 0.  1.
         11    1    3    3    0    0 -0.26803565693E+02 -0.53617384408E+01 -0.86276203849E+01  0.28663830985E+02  0.51100000000E-03 0. -1.
        -11    1    3    3    0    0  0.55167876737E+00 -0.28991519792E+01  0.12306379290E+01  0.31974836410E+01  0.51100000000E-03 0.  1.
        -12    1    3    3    0    0 -0.15557486179E+02  0.22369137577E+01 -0.25684923460E+01  0.15925963465E+02  0.00000000000E+00 0.  1.
</event>
<event>
 7    1  0.2497395E-009  0.4778727E+02  0.7816164E-02  0.1312668E+00
        -11   -1    0    0    0    0  0.00000000000E+00  0.00000000000E+00  0.45593999997E+02  0.45594000000E+02  0.51100000000E-03 0.  1.
         11   -1    0    0    0    0 -0.00000000000E+00 -0.00000000000E+00 -0.45593999997E+02  0.45594000000E+02  0.51100000000E-03 0. -1.
    9900012    2    1    2    0    0  0.24991708576E+02 -0.26960739743E+02 -0.23068519256E+02  0.47787267682E+02  0.19999984669E+02 0.  0.
        -12    1    1    2    0    0 -0.24991708576E+02  0.26960739743E+02  0.23068519256E+02  0.43400732318E+02  0.00000000000E+00 0.  1.
         11    1    3    3    0    0  0.45368147058E+01 -0.28527531772E+01 -0.11795536989E+02  0.12955909133E+02  0.51100000000E-03 0. -1.
        -11    1    3    3    0    0  0.36543647623E+01 -0.10998013030E+02 -0.49562523244E+01  0.12604567021E+02  0.51100000000E-03 0.  1.
         12    1    3    3    0    0  0.16800529108E+02 -0.13109973536E+02 -0.63167299432E+01  0.22226791528E+02  0.00000000000E+00 0. -1.
</event>
<event>
 7    1  0.2497395E-009  0.4778727E+02  0.7816164E-02  0.1312668E+00
        -11   -1    0    0    0    0  0.00000000000E+00  0.00000000000E+00  0.45593999997E+02  0.45594000000E+02  0.51100000000E-03 0.  1.
         11   -1    0    0    0    0 -0.00000000000E+00 -0.00000000000E+00 -0.45593999997E+02  0.45594000000E+02  0.51100000000E-03 0. -1.
    9900012    2    1    2    0    0  0.29995137875E+02 -0.18782802290E+02 -0.25122134711E+02  0.47787267167E+02  0.19999982322E+02 0.  0.
        -12    1    1    2    0    0 -0.29995137875E+02  0.18782802290E+02  0.25122134711E+02  0.43400732833E+02  0.00000000000E+00 0.  1.
         11    1    3    3    0    0  0.23508621245E+02 -0.12813649415E+02 -0.16921955188E+02  0.31673292405E+02  0.51100000000E-03 0. -1.
        -11    1    3    3    0    0 -0.53251712836E+00  0.23739676423E+01 -0.34490122158E+01  0.42207798313E+01  0.51100000000E-03 0.  1.
         12    1    3    3    0    0  0.70190337581E+01 -0.83431205179E+01 -0.47511673076E+01  0.11893194931E+02  0.00000000000E+00 0. -1.
</event>
<event>
 7    1  0.2497395E-009  0.4778727E+02  0.7816164E-02  0.1312668E+00
        -11   -1    0    0    0    0  0.00000000000E+00  0.00000000000E+00  0.45593999997E+02  0.45594000000E+02  0.51100000000E-03 0.  1.
         11   -1    0    0    0    0 -0.00000000000E+00 -0.00000000000E+00 -0.45593999997E+02  0.45594000000E+02  0.51100000000E-03 0. -1.
    9900012    2    1    2    0    0 -0.16551783998E+01 -0.43362535120E+02 -0.75799175280E+00  0.47787267068E+02  0.19999981868E+02 0.  0.
        -12    1    1    2    0    0  0.16551783998E+01  0.43362535120E+02  0.75799175280E+00  0.43400732932E+02  0.00000000000E+00 0.  1.
         11    1    3    3    0    0 -0.75675809352E+01 -0.30687511530E+02 -0.60398766204E+01  0.32178746946E+02  0.51100000000E-03 0. -1.
        -11    1    3    3    0    0  0.28940747553E+01 -0.10327340824E+02  0.29258896695E+01  0.11117124979E+02  0.51100000000E-03 0.  1.
         12    1    3    3    0    0  0.30183277802E+01 -0.23476827657E+01  0.23559951981E+01  0.44913951430E+01  0.00000000000E+00 0. -1.
</event>
<event>
 7    1  0.2497395E-009  0.4778727E+02  0.7816164E-02  0.1312668E+00
        -11   -1    0    0    0    0  0.00000000000E+00  0.00000000000E+00  0.45593999997E+02  0.45594000000E+02  0.51100000000E-03 0.  1.
         11   -1    0    0    0    0 -0.00000000000E+00 -0.00000000000E+00 -0.45593999997E+02  0.45594000000E+02  0.51100000000E-03 0. -1.
    9900012    2    1    2    0    0 -0.24592554239E+02  0.15274302812E+02 -0.32334584067E+02  0.47787269854E+02  0.19999994572E+02 0.  0.
        -12    1    1    2    0    0  0.24592554239E+02 -0.15274302812E+02  0.32334584067E+02  0.43400730146E+02  0.00000000000E+00 0.  1.
         11    1    3    3    0    0 -0.82403195393E+01  0.10282016446E+01 -0.18247976334E+01  0.85023497573E+01  0.51100000000E-03 0. -1.
        -11    1    3    3    0    0 -0.36991240157E+01  0.53982204364E+01 -0.18801682797E+02  0.19907977763E+02  0.51100000000E-03 0.  1.
        -12    1    3    3    0    0 -0.12653110684E+02  0.88478807305E+01 -0.11708103637E+02  0.19376942334E+02  0.00000000000E+00 0.  1.
</event>
<event>
 7    1  0.2497395E-009  0.4778727E+02  0.7816164E-02  0.1312668E+00
        -11   -1    0    0    0    0  0.00000000000E+00  0.00000000000E+00  0.45593999997E+02  0.45594000000E+02  0.51100000000E-03 0.  1.
         11   -1    0    0    0    0 -0.00000000000E+00 -0.00000000000E+00 -0.45593999997E+02  0.45594000000E+02  0.51100000000E-03 0. -1.
    9900012    2    1    2    0    0  0.24871747116E+02 -0.34057208123E+02 -0.10253095445E+02  0.47787271942E+02  0.20000004094E+02 0.  0.
        -12    1    1    2    0    0 -0.24871747116E+02  0.34057208123E+02  0.10253095445E+02  0.43400728058E+02  0.00000000000E+00 0.  1.
         11    1    3    3    0    0  0.50766505247E+01 -0.10834429479E+02 -0.31850260576E+01  0.12381503702E+02  0.51100000000E-03 0. -1.
        -11    1    3    3    0    0  0.16774105947E+02 -0.25396003926E+02 -0.42354819521E+01  0.30728926980E+02  0.51100000000E-03 0.  1.
        -12    1    3    3    0    0  0.30209906442E+01  0.21732252813E+01 -0.28325874350E+01  0.46768412602E+01  0.00000000000E+00 0.  1.
</event>
<event>
 7    1  0.2497395E-009  0.4778727E+02  0.7816164E-02  0.1312668E+00
        -11   -1    0    0    0    0  0.00000000000E+00  0.00000000000E+00  0.45593999997E+02  0.45594000000E+02  0.51100000000E-03 0.  1.
         11   -1    0    0    0    0 -0.00000000000E+00 -0.00000000000E+00 -0.45593999997E+02  0.45594000000E+02  0.51100000000E-03 0. -1.
    9900012    2    1    2    0    0 -0.26435605918E+02 -0.36696994110E+01 -0.34224487941E+02  0.47787268107E+02  0.19999986606E+02 0.  0.
        -12    1    1    2    0    0  0.26435605918E+02  0.36696994110E+01  0.34224487941E+02  0.43400731893E+02  0.00000000000E+00 0.  1.
         11    1    3    3    0    0 -0.84404080547E+01 -0.21104327054E+01 -0.53240160980E+01  0.10199978530E+02  0.51100000000E-03 0. -1.
        -11    1    3    3    0    0 -0.11227690193E+02 -0.86577412796E+01 -0.18228662795E+02  0.23093324981E+02  0.51100000000E-03 0.  1.
        -12    1    3    3    0    0 -0.67675076704E+01  0.70984745740E+01 -0.10671809048E+02  0.14493964596E+02  0.00000000000E+00 0.  1.
</event>
<event>
 7    1  0.2497395E-009  0.4778727E+02  0.7816164E-02  0.1312668E+00
        -11   -1    0    0    0    0  0.00000000000E+00  0.00000000000E+00  0.45593999997E+02  0.45594000000E+02  0.51100000000E-03 0. -1.
         11   -1    0    0    0    0 -0.00000000000E+00 -0.00000000000E+00 -0.45593999997E+02  0.45594000000E+02  0.51100000000E-03 0.  1.
    9900012    2    1    2    0    0  0.23753260898E+02 -0.12675625571E+02  0.34040186980E+02  0.47787271705E+02  0.20000003011E+02 0.  0.
        -12    1    1    2    0    0 -0.23753260898E+02  0.12675625571E+02 -0.34040186980E+02  0.43400728295E+02  0.00000000000E+00 0.  1.
         11    1    3    3    0    0  0.77698900417E+01  0.31953765718E+01  0.61075322599E+01  0.10386701751E+02  0.51100000000E-03 0. -1.
        -11    1    3    3    0    0  0.60527325434E-01 -0.62540704665E+01  0.76009171005E+01  0.98433227107E+01  0.51100000000E-03 0.  1.
         12    1    3    3    0    0  0.15922843531E+02 -0.96169316764E+01  0.20331737619E+02  0.27557247243E+02  0.00000000000E+00 0. -1.
</event>
<event>
 7    1  0.2497395E-009  0.4778730E+02  0.7816164E-02  0.1312668E+00
        -11   -1    0    0    0    0  0.00000000000E+00  0.00000000000E+00  0.45593999997E+02  0.45594000000E+02  0.51100000000E-03 0. -1.
         11   -1    0    0    0    0 -0.00000000000E+00 -0.00000000000E+00 -0.45593999997E+02  0.45594000000E+02  0.51100000000E-03 0.  1.
    9900012    2    1    2    0    0  0.38830814811E+02 -0.66877254590E+01 -0.18195132231E+02  0.47787300839E+02  0.20000135847E+02 0.  0.
        -12    1    1    2    0    0 -0.38830814811E+02  0.66877254590E+01  0.18195132231E+02  0.43400699161E+02  0.00000000000E+00 0.  1.
         11    1    3    3    0    0  0.13455549781E+02  0.46432943362E+01 -0.10587998872E+01  0.14273509017E+02  0.51100000000E-03 0. -1.
        -11    1    3    3    0    0  0.11538979622E+02 -0.90976642760E+01 -0.74318226608E+01  0.16466558059E+02  0.51100000000E-03 0.  1.
        -12    1    3    3    0    0  0.13836285408E+02 -0.22333555192E+01 -0.97045096834E+01  0.17047233763E+02  0.00000000000E+00 0.  1.
</event>
<event>
 7    1  0.2497395E-009  0.4778727E+02  0.7816164E-02  0.1312668E+00
        -11   -1    0    0    0    0  0.00000000000E+00  0.00000000000E+00  0.45593999997E+02  0.45594000000E+02  0.51100000000E-03 0.  1.
         11   -1    0    0    0    0 -0.00000000000E+00 -0.00000000000E+00 -0.45593999997E+02  0.45594000000E+02  0.51100000000E-03 0. -1.
    9900012    2    1    2    0    0 -0.27695795782E+02 -0.28248574484E+01 -0.33295436801E+02  0.47787273792E+02  0.20000012528E+02 0.  0.
        -12    1    1    2    0    0  0.27695795782E+02  0.28248574484E+01  0.33295436801E+02  0.43400726208E+02  0.00000000000E+00 0.  1.
         11    1    3    3    0    0 -0.21788803346E+02 -0.35785402258E+01 -0.34328761964E+02  0.40816930306E+02  0.51100000000E-03 0. -1.
        -11    1    3    3    0    0 -0.41149947186E+01  0.19637027246E+01  0.14162741673E+01  0.47744259030E+01  0.51100000000E-03 0.  1.
        -12    1    3    3    0    0 -0.17919977169E+01 -0.12100199472E+01 -0.38294900463E+00  0.21959175827E+01  0.00000000000E+00 0.  1.
</event>
<event>
 7    1  0.2497395E-009  0.4778727E+02  0.7816164E-02  0.1312668E+00
        -11   -1    0    0    0    0  0.00000000000E+00  0.00000000000E+00  0.45593999997E+02  0.45594000000E+02  0.51100000000E-03 0.  1.
         11   -1    0    0    0    0 -0.00000000000E+00 -0.00000000000E+00 -0.45593999997E+02  0.45594000000E+02  0.51100000000E-03 0. -1.
    9900012    2    1    2    0    0 -0.17816630656E+02 -0.16346341069E+02 -0.36041477750E+02  0.47787270598E+02  0.19999997963E+02 0.  0.
        -12    1    1    2    0    0  0.17816630656E+02  0.16346341069E+02  0.36041477750E+02  0.43400729402E+02  0.00000000000E+00 0.  1.
         11    1    3    3    0    0 -0.88506563878E+01 -0.31511356181E+01 -0.30211271845E+01  0.98686870406E+01  0.51100000000E-03 0. -1.
        -11    1    3    3    0    0 -0.47038304514E+01  0.57738513620E-01 -0.90155419197E+01  0.10169038844E+02  0.51100000000E-03 0.  1.
         12    1    3    3    0    0 -0.42621438164E+01 -0.13252943964E+02 -0.24004808646E+02  0.27749544713E+02  0.00000000000E+00 0. -1.
</event>
<event>
 7    1  0.2497395E-009  0.4778726E+02  0.7816164E-02  0.1312668E+00
        -11   -1    0    0    0    0  0.00000000000E+00  0.00000000000E+00  0.45593999997E+02  0.45594000000E+02  0.51100000000E-03 0.  1.
         11   -1    0    0    0    0 -0.00000000000E+00 -0.00000000000E+00 -0.45593999997E+02  0.45594000000E+02  0.51100000000E-03 0. -1.
    9900012    2    1    2    0    0  0.18550809846E+02  0.33443938376E+02 -0.20518150620E+02  0.47787261931E+02  0.19999958449E+02 0.  0.
        -12    1    1    2    0    0 -0.18550809846E+02 -0.33443938376E+02  0.20518150620E+02  0.43400738069E+02  0.00000000000E+00 0.  1.
         11    1    3    3    0    0  0.18853434956E+02  0.32334299956E+02 -0.21763402271E+02  0.43296704747E+02  0.51100000000E-03 0. -1.
        -11    1    3    3    0    0  0.10102601004E+01 -0.11470989930E+01  0.10856023654E+01  0.18748318130E+01  0.51100000000E-03 0.  1.
         12    1    3    3    0    0 -0.13128852096E+01  0.22567374130E+01  0.15964928572E+00  0.26157253715E+01  0.00000000000E+00 0. -1.
</event>
<event>
 7    1  0.2497395E-009  0.4778727E+02  0.7816164E-02  0.1312668E+00
        -11   -1    0    0    0    0  0.00000000000E+00  0.00000000000E+00  0.45593999997E+02  0.45594000000E+02  0.51100000000E-03 0.  1.
         11   -1    0    0    0    0 -0.00000000000E+00 -0.00000000000E+00 -0.45593999997E+02  0.45594000000E+02  0.51100000000E-03 0. -1.
    9900012    2    1    2    0    0 -0.45695777148E+01 -0.42353540000E+02 -0.83018196950E+01  0.47787267273E+02  0.19999982803E+02 0.  0.
        -12    1    1    2    0    0  0.45695777148E+01  0.42353540000E+02  0.83018196950E+01  0.43400732727E+02  0.00000000000E+00 0.  1.
         11    1    3    3    0    0 -0.53757799016E+00 -0.15207336239E+02 -0.97786130179E+01  0.18087933503E+02  0.51100000000E-03 0. -1.
        -11    1    3    3    0    0 -0.18646330270E+01 -0.43925754462E+01  0.46026855849E+01  0.66299540142E+01  0.51100000000E-03 0.  1.
         12    1    3    3    0    0 -0.21673666976E+01 -0.22753628315E+02 -0.31258922619E+01  0.23069379756E+02  0.00000000000E+00 0. -1.
</event>
<event>
 7    1  0.2497395E-009  0.4778727E+02  0.7816164E-02  0.1312668E+00
        -11   -1    0    0    0    0  0.00000000000E+00  0.00000000000E+00  0.45593999997E+02  0.45594000000E+02  0.51100000000E-03 0.  1.
         11   -1    0    0    0    0 -0.00000000000E+00 -0.00000000000E+00 -0.45593999997E+02  0.45594000000E+02  0.51100000000E-03 0. -1.
    9900012    2    1    2    0    0 -0.15660770878E+02  0.39785458783E+02  0.74485438172E+01  0.47787270973E+02  0.19999999674E+02 0.  0.
        -12    1    1    2    0    0  0.15660770878E+02 -0.39785458783E+02 -0.74485438172E+01  0.43400729027E+02  0.00000000000E+00 0.  1.
         11    1    3    3    0    0 -0.67579380511E+01  0.14477536592E+02  0.12031839708E+02  0.20000848969E+02  0.51100000000E-03 0. -1.
        -11    1    3    3    0    0 -0.76628906057E+01  0.21040732913E+02 -0.58904330123E+01  0.23154471173E+02  0.51100000000E-03 0.  1.
         12    1    3    3    0    0 -0.12399422209E+01  0.42671892782E+01  0.13071371219E+01  0.46319508312E+01  0.00000000000E+00 0. -1.
</event>
<event>
 7    1  0.2497395E-009  0.4778727E+02  0.7816164E-02  0.1312668E+00
        -11   -1    0    0    0    0  0.00000000000E+00  0.00000000000E+00  0.45593999997E+02  0.45594000000E+02  0.51100000000E-03 0. -1.
         11   -1    0    0    0    0 -0.00000000000E+00 -0.00000000000E+00 -0.45593999997E+02  0.45594000000E+02  0.51100000000E-03 0.  1.
    9900012    2    1    2    0    0 -0.27367767180E+02  0.30201478021E+02  0.14916414466E+02  0.47787269873E+02  0.19999994659E+02 0.  0.
        -12    1    1    2    0    0  0.27367767180E+02 -0.30201478021E+02 -0.14916414466E+02  0.43400730127E+02  0.00000000000E+00 0.  1.
         11    1    3    3    0    0 -0.21012051135E+02  0.18676245754E+02  0.12205094804E+02  0.30647557616E+02  0.51100000000E-03 0. -1.
        -11    1    3    3    0    0 -0.44559648166E+01  0.89633598775E+01 -0.31270877096E+01  0.10486950012E+02  0.51100000000E-03 0.  1.
        -12    1    3    3    0    0 -0.18997512276E+01  0.25618723896E+01  0.58384073708E+01  0.66527622455E+01  0.00000000000E+00 0.  1.
</event>
<event>
 7    1  0.2497395E-009  0.4778727E+02  0.7816164E-02  0.1312668E+00
        -11   -1    0    0    0    0  0.00000000000E+00  0.00000000000E+00  0.45593999997E+02  0.45594000000E+02  0.51100000000E-03 0.  1.
         11   -1    0    0    0    0 -0.00000000000E+00 -0.00000000000E+00 -0.45593999997E+02  0.45594000000E+02  0.51100000000E-03 0. -1.
    9900012    2    1    2    0    0 -0.21004782717E+02 -0.17992427852E+02 -0.33446896357E+02  0.47787271517E+02  0.20000002153E+02 0.  0.
        -12    1    1    2    0    0  0.21004782717E+02  0.17992427852E+02  0.33446896357E+02  0.43400728483E+02  0.00000000000E+00 0.  1.
         11    1    3    3    0    0 -0.11235736627E+02 -0.16890105179E+02 -0.25999364448E+02  0.32977028102E+02  0.51100000000E-03 0. -1.
        -11    1    3    3    0    0 -0.23755892226E+01 -0.40987871241E+01 -0.19565991900E+01  0.51255985694E+01  0.51100000000E-03 0.  1.
         12    1    3    3    0    0 -0.73934568672E+01  0.29964644509E+01 -0.54909327189E+01  0.96846448451E+01  0.00000000000E+00 0. -1.
</event>
<event>
 7    1  0.2497395E-009  0.4778727E+02  0.7816164E-02  0.1312668E+00
        -11   -1    0    0    0    0  0.00000000000E+00  0.00000000000E+00  0.45593999997E+02  0.45594000000E+02  0.51100000000E-03 0. -1.
         11   -1    0    0    0    0 -0.00000000000E+00 -0.00000000000E+00 -0.45593999997E+02  0.45594000000E+02  0.51100000000E-03 0.  1.
    9900012    2    1    2    0    0  0.33289360401E+02  0.61962637820E+01  0.27148630491E+02  0.47787270302E+02  0.19999996613E+02 0.  0.
        -12    1    1    2    0    0 -0.33289360401E+02 -0.61962637820E+01 -0.27148630491E+02  0.43400729698E+02  0.00000000000E+00 0.  1.
         11    1    3    3    0    0 -0.43680126708E-01  0.47618073403E+01  0.27634349462E+01  0.55057506357E+01  0.51100000000E-03 0. -1.
        -11    1    3    3    0    0  0.16546502238E+02 -0.29905897968E+01  0.15073460467E+02  0.22581841695E+02  0.51100000000E-03 0.  1.
         12    1    3    3    0    0  0.16786538290E+02  0.44250462386E+01  0.93117350785E+01  0.19699677971E+02  0.00000000000E+00 0. -1.
</event>
<event>
 7    1  0.2497395E-009  0.4778728E+02  0.7816164E-02  0.1312668E+00
        -11   -1    0    0    0    0  0.00000000000E+00  0.00000000000E+00  0.45593999997E+02  0.45594000000E+02  0.51100000000E-03 0.  1.
         11   -1    0    0    0    0 -0.00000000000E+00 -0.00000000000E+00 -0.45593999997E+02  0.45594000000E+02  0.51100000000E-03 0. -1.
    9900012    2    1    2    0    0 -0.10699519961E+02 -0.48015329825E+01 -0.41786223443E+02  0.47787275167E+02  0.20000018797E+02 0.  0.
        -12    1    1    2    0    0  0.10699519961E+02  0.48015329825E+01  0.41786223443E+02  0.43400724833E+02  0.00000000000E+00 0.  1.
         11    1    3    3    0    0 -0.29837216309E+01 -0.40088735806E+01 -0.17445378550E+02  0.18147035438E+02  0.51100000000E-03 0. -1.
        -11    1    3    3    0    0  0.11594175921E+01 -0.23113844788E+01 -0.18991776252E+02  0.19167011056E+02  0.51100000000E-03 0.  1.
        -12    1    3    3    0    0 -0.88752159217E+01  0.15187250770E+01 -0.53490686409E+01  0.10473228673E+02  0.00000000000E+00 0.  1.
</event>
<event>
 7    1  0.2497395E-009  0.4778724E+02  0.7816164E-02  0.1312668E+00
        -11   -1    0    0    0    0  0.00000000000E+00  0.00000000000E+00  0.45593999997E+02  0.45594000000E+02  0.51100000000E-03 0.  1.
         11   -1    0    0    0    0 -0.00000000000E+00 -0.00000000000E+00 -0.45593999997E+02  0.45594000000E+02  0.51100000000E-03 0. -1.
    9900012    2    1    2    0    0  0.36270392199E+02  0.17372225913E+02 -0.16318401304E+02  0.47787241890E+02  0.19999867072E+02 0.  0.
        -12    1    1    2    0    0 -0.36270392199E+02 -0.17372225913E+02  0.16318401304E+02  0.43400758110E+02  0.00000000000E+00 0.  1.
         11    1    3    3    0    0  0.13511577453E+01  0.18116563680E+01 -0.71765042726E+01  0.75239577274E+01  0.51100000000E-03 0. -1.
        -11    1    3    3    0    0  0.30695532031E+02  0.16314483329E+02 -0.69668592406E+01  0.35452999604E+02  0.51100000000E-03 0.  1.
        -12    1    3    3    0    0  0.42237024220E+01 -0.75391378382E+00 -0.21750377908E+01  0.48102845586E+01  0.00000000000E+00 0.  1.
</event>
<event>
 7    1  0.2497395E-009  0.4778727E+02  0.7816164E-02  0.1312668E+00
        -11   -1    0    0    0    0  0.00000000000E+00  0.00000000000E+00  0.45593999997E+02  0.45594000000E+02  0.51100000000E-03 0.  1.
         11   -1    0    0    0    0 -0.00000000000E+00 -0.00000000000E+00 -0.45593999997E+02  0.45594000000E+02  0.51100000000E-03 0. -1.
    9900012    2    1    2    0    0 -0.17784298407E+02  0.11529459594E+01 -0.39572879113E+02  0.47787270565E+02  0.19999997813E+02 0.  0.
        -12    1    1    2    0    0  0.17784298407E+02 -0.11529459594E+01  0.39572879113E+02  0.43400729435E+02  0.00000000000E+00 0.  1.
         11    1    3    3    0    0  0.21995282745E+01  0.15066736917E+01 -0.55778958164E+01  0.61823063854E+01  0.51100000000E-03 0. -1.
        -11    1    3    3    0    0 -0.16627238490E+02  0.38508236292E+01 -0.18347600241E+02  0.25058498305E+02  0.51100000000E-03 0.  1.
        -12    1    3    3    0    0 -0.33565881911E+01 -0.42045513616E+01 -0.15647383056E+02  0.16546465874E+02  0.00000000000E+00 0.  1.
</event>
<event>
 7    1  0.2497395E-009  0.4778728E+02  0.7816164E-02  0.1312668E+00
        -11   -1    0    0    0    0  0.00000000000E+00  0.00000000000E+00  0.45593999997E+02  0.45594000000E+02  0.51100000000E-03 0.  1.
         11   -1    0    0    0    0 -0.00000000000E+00 -0.00000000000E+00 -0.45593999997E+02  0.45594000000E+02  0.51100000000E-03 0. -1.
    9900012    2    1    2    0    0  0.39237079749E+02 -0.92290391059E+01  0.16090331225E+02  0.47787281700E+02  0.20000048582E+02 0.  0.
        -12    1    1    2    0    0 -0.39237079749E+02  0.92290391059E+01 -0.16090331225E+02  0.43400718300E+02  0.00000000000E+00 0.  1.
         11    1    3    3    0    0  0.24574625969E+02 -0.19050117532E+01  0.74545802544E+01  0.25750962668E+02  0.51100000000E-03 0. -1.
        -11    1    3    3    0    0 -0.91133109555E+00 -0.14855604600E+01 -0.17159616651E+01  0.24458002664E+01  0.51100000000E-03 0.  1.
        -12    1    3    3    0    0  0.15573784875E+02 -0.58384668927E+01  0.10351712636E+02  0.19590518765E+02  0.00000000000E+00 0.  1.
</event>
<event>
 7    1  0.2497395E-009  0.4778727E+02  0.7816164E-02  0.1312668E+00
        -11   -1    0    0    0    0  0.00000000000E+00  0.00000000000E+00  0.45593999997E+02  0.45594000000E+02  0.51100000000E-03 0.  1.
         11   -1    0    0    0    0 -0.00000000000E+00 -0.00000000000E+00 -0.45593999997E+02  0.45594000000E+02  0.51100000000E-03 0. -1.
    9900012    2    1    2    0    0 -0.27401295441E+02 -0.19964336386E+02 -0.27096450679E+02  0.47787270069E+02  0.19999995552E+02 0.  0.
        -12    1    1    2    0    0  0.27401295441E+02  0.19964336386E+02  0.27096450679E+02  0.43400729931E+02  0.00000000000E+00 0.  1.
         11    1    3    3    0    0 -0.18176159675E+02 -0.59531085605E+01 -0.19368925770E+02  0.27220719458E+02  0.51100000000E-03 0. -1.
        -11    1    3    3    0    0  0.16365169287E+00 -0.45891580621E+00  0.15665222702E+01  0.16405419464E+01  0.51100000000E-03 0.  1.
         12    1    3    3    0    0 -0.93887874591E+01 -0.13552312019E+02 -0.92940471789E+01  0.18926008665E+02  0.00000000000E+00 0. -1.
</event>
<event>
 7    1  0.2497395E-009  0.4778727E+02  0.7816164E-02  0.1312668E+00
        -11   -1    0    0    0    0  0.00000000000E+00  0.00000000000E+00  0.45593999997E+02  0.45594000000E+02  0.51100000000E-03 0.  1.
         11   -1    0    0    0    0 -0.00000000000E+00 -0.00000000000E+00 -0.45593999997E+02  0.45594000000E+02  0.51100000000E-03 0. -1.
    9900012    2    1    2    0    0 -0.39509049056E+02  0.16995768074E+02 -0.58139731686E+01  0.47787269894E+02  0.19999994754E+02 0.  0.
        -12    1    1    2    0    0  0.39509049056E+02 -0.16995768074E+02  0.58139731686E+01  0.43400730106E+02  0.00000000000E+00 0.  1.
         11    1    3    3    0    0 -0.15139402079E+02  0.73338482021E+01 -0.11420478383E+02  0.20332588412E+02  0.51100000000E-03 0. -1.
        -11    1    3    3    0    0 -0.13656076427E+02  0.25157224545E+01  0.16566489100E+01  0.13984340125E+02  0.51100000000E-03 0.  1.
         12    1    3    3    0    0 -0.10713570550E+02  0.71461974169E+01  0.39498563047E+01  0.13470341357E+02  0.00000000000E+00 0. -1.
</event>
<event>
 7    1  0.2497395E-009  0.4778727E+02  0.7816164E-02  0.1312668E+00
        -11   -1    0    0    0    0  0.00000000000E+00  0.00000000000E+00  0.45593999997E+02  0.45594000000E+02  0.51100000000E-03 0.  1.
         11   -1    0    0    0    0 -0.00000000000E+00 -0.00000000000E+00 -0.45593999997E+02  0.45594000000E+02  0.51100000000E-03 0. -1.
    9900012    2    1    2    0    0  0.92990510234E+01  0.56148248352E+01 -0.42019333584E+02  0.47787274168E+02  0.20000014243E+02 0.  0.
        -12    1    1    2    0    0 -0.92990510234E+01 -0.56148248352E+01  0.42019333584E+02  0.43400725832E+02  0.00000000000E+00 0.  1.
         11    1    3    3    0    0  0.83862553725E+01  0.87735541225E+01 -0.19220026324E+02  0.22731342751E+02  0.51100000000E-03 0. -1.
        -11    1    3    3    0    0  0.38138675555E+01 -0.54788326592E+01 -0.14436083487E+02  0.15904832591E+02  0.51100000000E-03 0.  1.
        -12    1    3    3    0    0 -0.29010719046E+01  0.23201033720E+01 -0.83632237733E+01  0.91510988266E+01  0.00000000000E+00 0.  1.
</event>
<event>
 7    1  0.2497395E-009  0.4778726E+02  0.7816164E-02  0.1312668E+00
        -11   -1    0    0    0    0  0.00000000000E+00  0.00000000000E+00  0.45593999997E+02  0.45594000000E+02  0.51100000000E-03 0.  1.
         11   -1    0    0    0    0 -0.00000000000E+00 -0.00000000000E+00 -0.45593999997E+02  0.45594000000E+02  0.51100000000E-03 0. -1.
    9900012    2    1    2    0    0  0.26098349487E+02  0.28958364505E+02  0.19076512854E+02  0.47787261949E+02  0.19999958529E+02 0.  0.
        -12    1    1    2    0    0 -0.26098349487E+02 -0.28958364505E+02 -0.19076512854E+02  0.43400738051E+02  0.00000000000E+00 0.  1.
         11    1    3    3    0    0 -0.10230249931E+01 -0.15214338031E+01  0.48102721022E+00  0.18954493905E+01  0.51100000000E-03 0. -1.
        -11    1    3    3    0    0  0.11254877177E+02  0.19946710058E+02  0.97023675559E+01  0.24873267555E+02  0.51100000000E-03 0.  1.
         12    1    3    3    0    0  0.15866497303E+02  0.10533088251E+02  0.88931180876E+01  0.21018545004E+02  0.00000000000E+00 0. -1.
</event>
<event>
 7    1  0.2497395E-009  0.4778727E+02  0.7816164E-02  0.1312668E+00
        -11   -1    0    0    0    0  0.00000000000E+00  0.00000000000E+00  0.45593999997E+02  0.45594000000E+02  0.51100000000E-03 0. -1.
         11   -1    0    0    0    0 -0.00000000000E+00 -0.00000000000E+00 -0.45593999997E+02  0.45594000000E+02  0.51100000000E-03 0.  1.
    9900012    2    1    2    0    0  0.40435664781E+02 -0.67673921488E+01  0.14240181737E+02  0.47787270068E+02  0.19999995546E+02 0.  0.
        -12    1    1    2    0    0 -0.40435664781E+02  0.67673921488E+01 -0.14240181737E+02  0.43400729932E+02  0.00000000000E+00 0.  1.
         11    1    3    3    0    0  0.24168956584E+02 -0.22264022005E-01  0.81703413043E+01  0.25512613259E+02  0.51100000000E-03 0. -1.
        -11    1    3    3    0    0  0.16043444354E+01 -0.31783431688E+01  0.62394233021E+01  0.71837448291E+01  0.51100000000E-03 0.  1.
        -12    1    3    3    0    0  0.14662363762E+02 -0.35667849580E+01 -0.16958286911E+00  0.15090911979E+02  0.00000000000E+00 0.  1.
</event>
<event>
 7    1  0.2497395E-009  0.4778726E+02  0.7816164E-02  0.1312668E+00
        -11   -1    0    0    0    0  0.00000000000E+00  0.00000000000E+00  0.45593999997E+02  0.45594000000E+02  0.51100000000E-03 0.  1.
         11   -1    0    0    0    0 -0.00000000000E+00 -0.00000000000E+00 -0.45593999997E+02  0.45594000000E+02  0.51100000000E-03 0. -1.
    9900012    2    1    2    0    0 -0.25302474439E+02 -0.19967013982E+02 -0.29064187367E+02  0.47787264437E+02  0.19999969873E+02 0.  0.
        -12    1    1    2    0    0  0.25302474439E+02  0.19967013982E+02  0.29064187367E+02  0.43400735563E+02  0.00000000000E+00 0.  1.
         11    1    3    3    0    0 -0.11365477305E+01 -0.95487197807E+01 -0.44092679385E+01  0.10578820076E+02  0.51100000000E-03 0.  1.
        -11    1    3    3    0    0 -0.38386528953E+01  0.16676909188E+01 -0.30755888808E+01  0.51938132693E+01  0.51100000000E-03 0. -1.
         12    1    3    3    0    0 -0.20327273813E+02 -0.12085985120E+02 -0.21579330548E+02  0.32014631091E+02  0.00000000000E+00 0. -1.
</event>
<event>
 7    1  0.2497395E-009  0.4778726E+02  0.7816164E-02  0.1312668E+00
        -11   -1    0    0    0    0  0.00000000000E+00  0.00000000000E+00  0.45593999997E+02  0.45594000000E+02  0.51100000000E-03 0.  1.
         11   -1    0    0    0    0 -0.00000000000E+00 -0.00000000000E+00 -0.45593999997E+02  0.45594000000E+02  0.51100000000E-03 0. -1.
    9900012    2    1    2    0    0  0.52929236610E+01 -0.31422906761E+02 -0.29465398888E+02  0.47787264501E+02  0.19999970165E+02 0.  0.
        -12    1    1    2    0    0 -0.52929236610E+01  0.31422906761E+02  0.29465398888E+02  0.43400735499E+02  0.00000000000E+00 0.  1.
         11    1    3    3    0    0  0.10000339299E+01 -0.29467050366E+02 -0.23439037763E+02  0.37665576017E+02  0.51100000000E-03 0. -1.
        -11    1    3    3    0    0 -0.33407409791E+00  0.19265053789E+01 -0.72561884318E+00  0.20855578257E+01  0.51100000000E-03 0.  1.
        -12    1    3    3    0    0  0.46269638291E+01 -0.38823617739E+01 -0.53007422823E+01  0.80361306586E+01  0.00000000000E+00 0.  1.
</event>
<event>
 7    1  0.2497395E-009  0.4778728E+02  0.7816164E-02  0.1312668E+00
        -11   -1    0    0    0    0  0.00000000000E+00  0.00000000000E+00  0.45593999997E+02  0.45594000000E+02  0.51100000000E-03 0.  1.
         11   -1    0    0    0    0 -0.00000000000E+00 -0.00000000000E+00 -0.45593999997E+02  0.45594000000E+02  0.51100000000E-03 0. -1.
    9900012    2    1    2    0    0 -0.32504365536E+02  0.11413903769E+01 -0.28736498514E+02  0.47787275378E+02  0.20000019758E+02 0.  0.
        -12    1    1    2    0    0  0.32504365536E+02 -0.11413903769E+01  0.28736498514E+02  0.43400724622E+02  0.00000000000E+00 0.  1.
         11    1    3    3    0    0 -0.24684277599E+02 -0.57944134307E+01 -0.19675078532E+02  0.32093574172E+02  0.51100000000E-03 0.  1.
        -11    1    3    3    0    0 -0.33435317130E+01  0.74482337946E+01 -0.69314918677E+01  0.10709853909E+02  0.51100000000E-03 0. -1.
         12    1    3    3    0    0 -0.44765562236E+01 -0.51242998700E+00 -0.21299281139E+01  0.49838472975E+01  0.00000000000E+00 0. -1.
</event>
<event>
 7    1  0.2497395E-009  0.4778727E+02  0.7816164E-02  0.1312668E+00
        -11   -1    0    0    0    0  0.00000000000E+00  0.00000000000E+00  0.45593999997E+02  0.45594000000E+02  0.51100000000E-03 0.  1.
         11   -1    0    0    0    0 -0.00000000000E+00 -0.00000000000E+00 -0.45593999997E+02  0.45594000000E+02  0.51100000000E-03 0. -1.
    9900012    2    1    2    0    0  0.92307702165E+01  0.13199397046E+02 -0.40301267643E+02  0.47787269882E+02  0.19999994699E+02 0.  0.
        -12    1    1    2    0    0 -0.92307702165E+01 -0.13199397046E+02  0.40301267643E+02  0.43400730118E+02  0.00000000000E+00 0.  1.
         11    1    3    3    0    0  0.20199941888E+01  0.13739029846E+02 -0.23186628568E+02  0.27027043165E+02  0.51100000000E-03 0. -1.
        -11    1    3    3    0    0  0.55524711301E+01 -0.18500840213E+01 -0.31692767658E+01  0.66556038055E+01  0.51100000000E-03 0.  1.
        -12    1    3    3    0    0  0.16583048976E+01  0.13104512211E+01 -0.13945362309E+02  0.14104622912E+02  0.00000000000E+00 0.  1.
</event>
<event>
 7    1  0.2497395E-009  0.4778727E+02  0.7816164E-02  0.1312668E+00
        -11   -1    0    0    0    0  0.00000000000E+00  0.00000000000E+00  0.45593999997E+02  0.45594000000E+02  0.51100000000E-03 0. -1.
         11   -1    0    0    0    0 -0.00000000000E+00 -0.00000000000E+00 -0.45593999997E+02  0.45594000000E+02  0.51100000000E-03 0.  1.
    9900012    2    1    2    0    0  0.29527248703E+02  0.16859905820E+02  0.26972366314E+02  0.47787269767E+02  0.19999994174E+02 0.  0.
        -12    1    1    2    0    0 -0.29527248703E+02 -0.16859905820E+02 -0.26972366314E+02  0.43400730233E+02  0.00000000000E+00 0.  1.
         11    1    3    3    0    0  0.22179967988E+02  0.10225109165E+02  0.22941230618E+02  0.33508266143E+02  0.51100000000E-03 0. -1.
        -11    1    3    3    0    0  0.95128355902E+01  0.57357449326E+01  0.22484203077E+01  0.11333499241E+02  0.51100000000E-03 0.  1.
         12    1    3    3    0    0 -0.21655548749E+01  0.89905172227E+00  0.17827153881E+01  0.29455043830E+01  0.00000000000E+00 0. -1.
</event>
<event>
 7    1  0.2497395E-009  0.4778727E+02  0.7816164E-02  0.1312668E+00
        -11   -1    0    0    0    0  0.00000000000E+00  0.00000000000E+00  0.45593999997E+02  0.45594000000E+02  0.51100000000E-03 0.  1.
         11   -1    0    0    0    0 -0.00000000000E+00 -0.00000000000E+00 -0.45593999997E+02  0.45594000000E+02  0.51100000000E-03 0. -1.
    9900012    2    1    2    0    0 -0.39316750749E+02  0.94602544567E+01 -0.15758179041E+02  0.47787268318E+02  0.19999987571E+02 0.  0.
        -12    1    1    2    0    0  0.39316750749E+02 -0.94602544567E+01  0.15758179041E+02  0.43400731682E+02  0.00000000000E+00 0.  1.
         11    1    3    3    0    0 -0.26704702953E+02  0.12284249176E+02 -0.12199180454E+02  0.31825523430E+02  0.51100000000E-03 0. -1.
        -11    1    3    3    0    0 -0.46478910692E+01 -0.36010851205E+01 -0.51346542481E+01  0.78061117046E+01  0.51100000000E-03 0.  1.
        -12    1    3    3    0    0 -0.79641567269E+01  0.77709040117E+00  0.15756556610E+01  0.81556331835E+01  0.00000000000E+00 0.  1.
</event>
<event>
 7    1  0.2497395E-009  0.4778727E+02  0.7816164E-02  0.1312668E+00
        -11   -1    0    0    0    0  0.00000000000E+00  0.00000000000E+00  0.45593999997E+02  0.45594000000E+02  0.51100000000E-03 0.  1.
         11   -1    0    0    0    0 -0.00000000000E+00 -0.00000000000E+00 -0.45593999997E+02  0.45594000000E+02  0.51100000000E-03 0. -1.
    9900012    2    1    2    0    0 -0.24297366557E+02  0.11257761598E+02 -0.34154413936E+02  0.47787271790E+02  0.20000003401E+02 0.  0.
        -12    1    1    2    0    0  0.24297366557E+02 -0.11257761598E+02  0.34154413936E+02  0.43400728210E+02  0.00000000000E+00 0.  1.
         11    1    3    3    0    0 -0.41636164068E+01 -0.62816937290E+00 -0.79387808578E+01  0.89863529929E+01  0.51100000000E-03 0. -1.
        -11    1    3    3    0    0 -0.95078256507E+01 -0.26592834001E+01 -0.53270518402E+01  0.11218200318E+02  0.51100000000E-03 0.  1.
        -12    1    3    3    0    0 -0.10625924500E+02  0.14545214371E+02 -0.20888581238E+02  0.27582718479E+02  0.00000000000E+00 0.  1.
</event>
<event>
 7    1  0.2497395E-009  0.4778727E+02  0.7816164E-02  0.1312668E+00
        -11   -1    0    0    0    0  0.00000000000E+00  0.00000000000E+00  0.45593999997E+02  0.45594000000E+02  0.51100000000E-03 0. -1.
         11   -1    0    0    0    0 -0.00000000000E+00 -0.00000000000E+00 -0.45593999997E+02  0.45594000000E+02  0.51100000000E-03 0.  1.
    9900012    2    1    2    0    0 -0.36903796640E+01  0.35360780174E+02  0.24892159295E+02  0.47787271078E+02  0.20000000153E+02 0.  0.
        -12    1    1    2    0    0  0.36903796640E+01 -0.35360780174E+02 -0.24892159295E+02  0.43400728922E+02  0.00000000000E+00 0.  1.
         11    1    3    3    0    0 -0.38506857290E+01  0.20653227579E+02  0.11257984518E+02  0.23835389774E+02  0.51100000000E-03 0. -1.
        -11    1    3    3    0    0  0.29198672854E+01  0.15191001802E+02  0.74644412467E+01  0.17175856430E+02  0.51100000000E-03 0.  1.
         12    1    3    3    0    0 -0.27595612204E+01 -0.48344920671E+00  0.61697335297E+01  0.67760248739E+01  0.00000000000E+00 0. -1.
</event>
<event>
 7    1  0.2497395E-009  0.4778727E+02  0.7816164E-02  0.1312668E+00
        -11   -1    0    0    0    0  0.00000000000E+00  0.00000000000E+00  0.45593999997E+02  0.45594000000E+02  0.51100000000E-03 0.  1.
         11   -1    0    0    0    0 -0.00000000000E+00 -0.00000000000E+00 -0.45593999997E+02  0.45594000000E+02  0.51100000000E-03 0. -1.
    9900012    2    1    2    0    0 -0.18356011074E+02 -0.35230497043E+02  0.17478338922E+02  0.47787269639E+02  0.19999993590E+02 0.  0.
        -12    1    1    2    0    0  0.18356011074E+02  0.35230497043E+02 -0.17478338922E+02  0.43400730361E+02  0.00000000000E+00 0.  1.
         11    1    3    3    0    0  0.31002839268E+01 -0.17231320389E+01  0.77250784769E+00  0.36301119936E+01  0.51100000000E-03 0. -1.
        -11    1    3    3    0    0 -0.18969744819E+02 -0.25534474660E+02  0.96990544631E+01  0.33255560022E+02  0.51100000000E-03 0.  1.
        -12    1    3    3    0    0 -0.24865501821E+01 -0.79728903440E+01  0.70067766115E+01  0.10901597623E+02  0.00000000000E+00 0.  1.
</event>
<event>
 7    1  0.2497395E-009  0.4778727E+02  0.7816164E-02  0.1312668E+00
        -11   -1    0    0    0    0  0.00000000000E+00  0.00000000000E+00  0.45593999997E+02  0.45594000000E+02  0.51100000000E-03 0.  1.
         11   -1    0    0    0    0 -0.00000000000E+00 -0.00000000000E+00 -0.45593999997E+02  0.45594000000E+02  0.51100000000E-03 0. -1.
    9900012    2    1    2    0    0 -0.35445918108E+02  0.21805913638E+02 -0.12317154200E+02  0.47787271116E+02  0.20000000326E+02 0.  0.
        -12    1    1    2    0    0  0.35445918108E+02 -0.21805913638E+02  0.12317154200E+02  0.43400728884E+02  0.00000000000E+00 0.  1.
         11    1    3    3    0    0 -0.93139232383E+01  0.75004301705E+01 -0.18526768762E+01  0.12101158238E+02  0.51100000000E-03 0. -1.
        -11    1    3    3    0    0  0.15420086136E+00  0.67620533151E+01 -0.23511493589E+01  0.71607992927E+01  0.51100000000E-03 0.  1.
        -12    1    3    3    0    0 -0.26286195731E+02  0.75434301519E+01 -0.81133279645E+01  0.28525313585E+02  0.00000000000E+00 0.  1.
</event>
<event>
 7    1  0.2497395E-009  0.4778727E+02  0.7816164E-02  0.1312668E+00
        -11   -1    0    0    0    0  0.00000000000E+00  0.00000000000E+00  0.45593999997E+02  0.45594000000E+02  0.51100000000E-03 0. -1.
         11   -1    0    0    0    0 -0.00000000000E+00 -0.00000000000E+00 -0.45593999997E+02  0.45594000000E+02  0.51100000000E-03 0.  1.
    9900012    2    1    2    0    0  0.41512578759E+02  0.49681762441E+01 -0.11646722278E+02  0.47787272930E+02  0.20000008595E+02 0.  0.
        -12    1    1    2    0    0 -0.41512578759E+02 -0.49681762441E+01  0.11646722278E+02  0.43400727070E+02  0.00000000000E+00 0.  1.
         11    1    3    3    0    0  0.39340603688E+02  0.63966117693E+01 -0.15413996698E+02  0.42733956464E+02  0.51100000000E-03 0. -1.
        -11    1    3    3    0    0  0.24664200684E+01 -0.13185201188E+01  0.38202849627E+01  0.47345855906E+01  0.51100000000E-03 0.  1.
         12    1    3    3    0    0 -0.29444499690E+00 -0.10991540648E+00 -0.53010542683E-01  0.31873087459E+00  0.00000000000E+00 0. -1.
</event>
<event>
 7    1  0.2497395E-009  0.4778725E+02  0.7816164E-02  0.1312668E+00
        -11   -1    0    0    0    0  0.00000000000E+00  0.00000000000E+00  0.45593999997E+02  0.45594000000E+02  0.51100000000E-03 0.  1.
         11   -1    0    0    0    0 -0.00000000000E+00 -0.00000000000E+00 -0.45593999997E+02  0.45594000000E+02  0.51100000000E-03 0. -1.
    9900012    2    1    2    0    0 -0.56669922796E+01  0.35187300188E+01 -0.42885067762E+02  0.47787247709E+02  0.19999893605E+02 0.  0.
        -12    1    1    2    0    0  0.56669922796E+01 -0.35187300188E+01  0.42885067762E+02  0.43400752291E+02  0.00000000000E+00 0.  1.
         11    1    3    3    0    0 -0.31486979232E+01  0.67798691950E+01 -0.41127236423E+02  0.41801082533E+02  0.51100000000E-03 0. -1.
        -11    1    3    3    0    0  0.82167087650E+00  0.22634868484E+00 -0.14985914815E-01  0.85240928854E+00  0.51100000000E-03 0.  1.
         12    1    3    3    0    0 -0.33399652329E+01 -0.34874878610E+01 -0.17428454246E+01  0.51337558874E+01  0.00000000000E+00 0. -1.
</event>
<event>
 7    1  0.2497395E-009  0.4778727E+02  0.7816164E-02  0.1312668E+00
        -11   -1    0    0    0    0  0.00000000000E+00  0.00000000000E+00  0.45593999997E+02  0.45594000000E+02  0.51100000000E-03 0. -1.
         11   -1    0    0    0    0 -0.00000000000E+00 -0.00000000000E+00 -0.45593999997E+02  0.45594000000E+02  0.51100000000E-03 0.  1.
    9900012    2    1    2    0    0  0.13769675119E+02  0.40286676229E+02  0.84263206992E+01  0.47787272875E+02  0.20000008347E+02 0.  0.
        -12    1    1    2    0    0 -0.13769675119E+02 -0.40286676229E+02 -0.84263206992E+01  0.43400727125E+02  0.00000000000E+00 0.  1.
         11    1    3    3    0    0  0.77562898943E+01  0.10291513038E+02  0.72418936681E+01  0.14782432063E+02  0.51100000000E-03 0. -1.
        -11    1    3    3    0    0  0.39204080315E+01  0.30390757380E+02  0.16405883583E+00  0.30643019577E+02  0.51100000000E-03 0.  1.
        -12    1    3    3    0    0  0.20929771931E+01 -0.39559418876E+00  0.10203681953E+01  0.23618212352E+01  0.00000000000E+00 0.  1.
</event>
<event>
 7    1  0.2497395E-009  0.4778727E+02  0.7816164E-02  0.1312668E+00
        -11   -1    0    0    0    0  0.00000000000E+00  0.00000000000E+00  0.45593999997E+02  0.45594000000E+02  0.51100000000E-03 0.  1.
         11   -1    0    0    0    0 -0.00000000000E+00 -0.00000000000E+00 -0.45593999997E+02  0.45594000000E+02  0.51100000000E-03 0. -1.
    9900012    2    1    2    0    0  0.83820654913E+01 -0.23529207761E+02 -0.35492824448E+02  0.47787271584E+02  0.20000002460E+02 0.  0.
        -12    1    1    2    0    0 -0.83820654913E+01  0.23529207761E+02  0.35492824448E+02  0.43400728416E+02  0.00000000000E+00 0.  1.
         11    1    3    3    0    0  0.65955054523E+01 -0.10290060643E+02 -0.13713319022E+02  0.18369571554E+02  0.51100000000E-03 0. -1.
        -11    1    3    3    0    0  0.16987718698E+01 -0.26086314616E+01  0.17691657372E+01  0.35806049259E+01  0.51100000000E-03 0.  1.
        -12    1    3    3    0    0  0.87788169138E-01 -0.10630515657E+02 -0.23548671163E+02  0.25837095104E+02  0.00000000000E+00 0.  1.
</event>
<event>
 7    1  0.2497395E-009  0.4778727E+02  0.7816164E-02  0.1312668E+00
        -11   -1    0    0    0    0  0.00000000000E+00  0.00000000000E+00  0.45593999997E+02  0.45594000000E+02  0.51100000000E-03 0.  1.
         11   -1    0    0    0    0 -0.00000000000E+00 -0.00000000000E+00 -0.45593999997E+02  0.45594000000E+02  0.51100000000E-03 0. -1.
    9900012    2    1    2    0    0  0.12379385559E+02  0.13594956930E+02 -0.39313500246E+02  0.47787270255E+02  0.19999996403E+02 0.  0.
        -12    1    1    2    0    0 -0.12379385559E+02 -0.13594956930E+02  0.39313500246E+02  0.43400729745E+02  0.00000000000E+00 0.  1.
         11    1    3    3    0    0 -0.50048613798E+01  0.21499797936E+01 -0.10667107424E+02  0.11977405044E+02  0.51100000000E-03 0. -1.
        -11    1    3    3    0    0  0.81301174003E+01  0.49339594760E+01 -0.87605277002E+01  0.12930182168E+02  0.51100000000E-03 0.  1.
         12    1    3    3    0    0  0.92541295380E+01  0.65110176605E+01 -0.19885865122E+02  0.22879683043E+02  0.00000000000E+00 0. -1.
</event>
<event>
 7    1  0.2497395E-009  0.4778727E+02  0.7816164E-02  0.1312668E+00
        -11   -1    0    0    0    0  0.00000000000E+00  0.00000000000E+00  0.45593999997E+02  0.45594000000E+02  0.51100000000E-03 0.  1.
         11   -1    0    0    0    0 -0.00000000000E+00 -0.00000000000E+00 -0.45593999997E+02  0.45594000000E+02  0.51100000000E-03 0. -1.
    9900012    2    1    2    0    0 -0.14343868838E+02 -0.77374268881E+01 -0.40224479362E+02  0.47787273185E+02  0.20000009760E+02 0.  0.
        -12    1    1    2    0    0  0.14343868838E+02  0.77374268881E+01  0.40224479362E+02  0.43400726815E+02  0.00000000000E+00 0.  1.
         11    1    3    3    0    0 -0.75412925500E+01 -0.10863748539E+02 -0.34245580864E+02  0.36710379113E+02  0.51100000000E-03 0. -1.
        -11    1    3    3    0    0 -0.39167387979E+01  0.31890713860E+01 -0.64073529074E+01  0.81587493317E+01  0.51100000000E-03 0.  1.
         12    1    3    3    0    0 -0.28858374900E+01 -0.62749734976E-01  0.42845440845E+00  0.29181447408E+01  0.00000000000E+00 0. -1.
</event>
<event>
 7    1  0.2497395E-009  0.4778727E+02  0.7816164E-02  0.1312668E+00
        -11   -1    0    0    0    0  0.00000000000E+00  0.00000000000E+00  0.45593999997E+02  0.45594000000E+02  0.51100000000E-03 0. -1.
         11   -1    0    0    0    0 -0.00000000000E+00 -0.00000000000E+00 -0.45593999997E+02  0.45594000000E+02  0.51100000000E-03 0.  1.
    9900012    2    1    2    0    0  0.37874302447E+02 -0.95301565009E+01  0.18929785784E+02  0.47787268916E+02  0.19999990295E+02 0.  0.
        -12    1    1    2    0    0 -0.37874302447E+02  0.95301565009E+01 -0.18929785784E+02  0.43400731084E+02  0.00000000000E+00 0.  1.
         11    1    3    3    0    0  0.21009500165E+02 -0.20604988173E+01  0.16088318218E+02  0.26542018309E+02  0.51100000000E-03 0. -1.
        -11    1    3    3    0    0  0.65964407797E+01 -0.39645054423E+01  0.62047434003E+01  0.98858067596E+01  0.51100000000E-03 0.  1.
         12    1    3    3    0    0  0.10268361503E+02 -0.35051522413E+01 -0.33632758343E+01  0.11359443847E+02  0.00000000000E+00 0. -1.
</event>
<event>
 7    1  0.2497395E-009  0.4778727E+02  0.7816164E-02  0.1312668E+00
        -11   -1    0    0    0    0  0.00000000000E+00  0.00000000000E+00  0.45593999997E+02  0.45594000000E+02  0.51100000000E-03 0. -1.
         11   -1    0    0    0    0 -0.00000000000E+00 -0.00000000000E+00 -0.45593999997E+02  0.45594000000E+02  0.51100000000E-03 0.  1.
    9900012    2    1    2    0    0 -0.25791770897E+02  0.34844206871E+02 -0.20709894531E+01  0.47787271944E+02  0.20000004101E+02 0.  0.
        -12    1    1    2    0    0  0.25791770897E+02 -0.34844206871E+02  0.20709894531E+01  0.43400728056E+02  0.00000000000E+00 0.  1.
         11    1    3    3    0    0 -0.95069716327E+01  0.22763996222E+02  0.30649179862E+01  0.24859118169E+02  0.51100000000E-03 0. -1.
        -11    1    3    3    0    0 -0.12578844782E+02  0.11717504421E+02 -0.72375661989E+01  0.18652335260E+02  0.51100000000E-03 0.  1.
        -12    1    3    3    0    0 -0.37059544825E+01  0.36270622872E+00  0.21016587596E+01  0.42758185154E+01  0.00000000000E+00 0.  1.
</event>
<event>
 7    1  0.2497395E-009  0.4778728E+02  0.7816164E-02  0.1312668E+00
        -11   -1    0    0    0    0  0.00000000000E+00  0.00000000000E+00  0.45593999997E+02  0.45594000000E+02  0.51100000000E-03 0.  1.
         11   -1    0    0    0    0 -0.00000000000E+00 -0.00000000000E+00 -0.45593999997E+02  0.45594000000E+02  0.51100000000E-03 0. -1.
    9900012    2    1    2    0    0  0.21464240245E+02  0.57540775040E+00 -0.37717081242E+02  0.47787275113E+02  0.20000018548E+02 0.  0.
        -12    1    1    2    0    0 -0.21464240245E+02 -0.57540775040E+00  0.37717081242E+02  0.43400724887E+02  0.00000000000E+00 0.  1.
         11    1    3    3    0    0  0.11770759542E+02  0.76991196411E+01 -0.26318257296E+02  0.29840876174E+02  0.51100000000E-03 0. -1.
        -11    1    3    3    0    0  0.79369048810E+01 -0.73714185003E+01 -0.62617753389E+01  0.12511678563E+02  0.51100000000E-03 0.  1.
        -12    1    3    3    0    0  0.17565758211E+01  0.24770660957E+00 -0.51370486070E+01  0.54347203765E+01  0.00000000000E+00 0.  1.
</event>
<event>
 7    1  0.2497395E-009  0.4778727E+02  0.7816164E-02  0.1312668E+00
        -11   -1    0    0    0    0  0.00000000000E+00  0.00000000000E+00  0.45593999997E+02  0.45594000000E+02  0.51100000000E-03 0.  1.
         11   -1    0    0    0    0 -0.00000000000E+00 -0.00000000000E+00 -0.45593999997E+02  0.45594000000E+02  0.51100000000E-03 0. -1.
    9900012    2    1    2    0    0 -0.83334652811E+01  0.36339853238E+02 -0.22216923695E+02  0.47787271027E+02  0.19999999920E+02 0.  0.
        -12    1    1    2    0    0  0.83334652811E+01 -0.36339853238E+02  0.22216923695E+02  0.43400728973E+02  0.00000000000E+00 0.  1.
         11    1    3    3    0    0  0.28670668307E+00  0.11685806883E+02  0.83223774805E+00  0.11718912200E+02  0.51100000000E-03 0. -1.
        -11    1    3    3    0    0 -0.56894455172E+01  0.23194467933E+02 -0.17434472644E+02  0.29568800612E+02  0.51100000000E-03 0.  1.
        -12    1    3    3    0    0 -0.29307264470E+01  0.14595784215E+01 -0.56146887987E+01  0.64995582144E+01  0.00000000000E+00 0.  1.
</event>
<event>
 7    1  0.2497395E-009  0.4778727E+02  0.7816164E-02  0.1312668E+00
        -11   -1    0    0    0    0  0.00000000000E+00  0.00000000000E+00  0.45593999997E+02  0.45594000000E+02  0.51100000000E-03 0.  1.
         11   -1    0    0    0    0 -0.00000000000E+00 -0.00000000000E+00 -0.45593999997E+02  0.45594000000E+02  0.51100000000E-03 0. -1.
    9900012    2    1    2    0    0 -0.30782975715E+02 -0.25489099196E+02 -0.16921516414E+02  0.47787268561E+02  0.19999988675E+02 0.  0.
        -12    1    1    2    0    0  0.30782975715E+02  0.25489099196E+02  0.16921516414E+02  0.43400731439E+02  0.00000000000E+00 0.  1.
         11    1    3    3    0    0 -0.21777928213E+02 -0.22399269559E+02 -0.60411033937E+01  0.31819810881E+02  0.51100000000E-03 0.  1.
        -11    1    3    3    0    0 -0.28044187711E+01 -0.44775024453E+01 -0.42142265156E+01  0.67581431013E+01  0.51100000000E-03 0. -1.
         12    1    3    3    0    0 -0.62006287309E+01  0.13876728080E+01 -0.66661865051E+01  0.92093145783E+01  0.00000000000E+00 0. -1.
</event>
<event>
 7    1  0.2497395E-009  0.4778728E+02  0.7816164E-02  0.1312668E+00
        -11   -1    0    0    0    0  0.00000000000E+00  0.00000000000E+00  0.45593999997E+02  0.45594000000E+02  0.51100000000E-03 0.  1.
         11   -1    0    0    0    0 -0.00000000000E+00 -0.00000000000E+00 -0.45593999997E+02  0.45594000000E+02  0.51100000000E-03 0. -1.
    9900012    2    1    2    0    0  0.20192012560E+02  0.16646638690E+02 -0.34623617627E+02  0.47787275945E+02  0.20000022346E+02 0.  0.
        -12    1    1    2    0    0 -0.20192012560E+02 -0.16646638690E+02  0.34623617627E+02  0.43400724055E+02  0.00000000000E+00 0.  1.
         11    1    3    3    0    0  0.13112436633E+00  0.23881946219E+01 -0.44985050437E+01  0.50948223758E+01  0.51100000000E-03 0. -1.
        -11    1    3    3    0    0  0.12358177373E+02  0.16729554523E+02 -0.15357915289E+02  0.25854750140E+02  0.51100000000E-03 0.  1.
        -12    1    3    3    0    0  0.77027108199E+01 -0.24711104550E+01 -0.14767197294E+02  0.16837703429E+02  0.00000000000E+00 0.  1.
</event>
<event>
 7    1  0.2497395E-009  0.4778727E+02  0.7816164E-02  0.1312668E+00
        -11   -1    0    0    0    0  0.00000000000E+00  0.00000000000E+00  0.45593999997E+02  0.45594000000E+02  0.51100000000E-03 0. -1.
         11   -1    0    0    0    0 -0.00000000000E+00 -0.00000000000E+00 -0.45593999997E+02  0.45594000000E+02  0.51100000000E-03 0.  1.
    9900012    2    1    2    0    0  0.40106597060E+02 -0.44049726766E+01  0.15990008149E+02  0.47787271058E+02  0.20000000063E+02 0.  0.
        -12    1    1    2    0    0 -0.40106597060E+02  0.44049726766E+01 -0.15990008149E+02  0.43400728942E+02  0.00000000000E+00 0.  1.
         11    1    3    3    0    0  0.14948847404E+01 -0.22235433740E+01  0.70569356435E+01  0.75484545743E+01  0.51100000000E-03 0. -1.
        -11    1    3    3    0    0  0.28358631304E+02 -0.41064362935E+01  0.49865461280E+01  0.29085055114E+02  0.51100000000E-03 0.  1.
        -12    1    3    3    0    0  0.10253081017E+02  0.19250069909E+01  0.39465263777E+01  0.11153761370E+02  0.00000000000E+00 0.  1.
</event>
<event>
 7    1  0.2497395E-009  0.4778728E+02  0.7816164E-02  0.1312668E+00
        -11   -1    0    0    0    0  0.00000000000E+00  0.00000000000E+00  0.45593999997E+02  0.45594000000E+02  0.51100000000E-03 0.  1.
         11   -1    0    0    0    0 -0.00000000000E+00 -0.00000000000E+00 -0.45593999997E+02  0.45594000000E+02  0.51100000000E-03 0. -1.
    9900012    2    1    2    0    0  0.24506016821E+02  0.34161511463E+00 -0.35818448144E+02  0.47787276633E+02  0.20000025479E+02 0.  0.
        -12    1    1    2    0    0 -0.24506016821E+02 -0.34161511463E+00  0.35818448144E+02  0.43400723367E+02  0.00000000000E+00 0.  1.
         11    1    3    3    0    0  0.69569596060E+01 -0.57090777796E+01 -0.18431617759E+02  0.20511396577E+02  0.51100000000E-03 0. -1.
        -11    1    3    3    0    0  0.37376341688E+01  0.19352862862E+01  0.57409756761E+00  0.42479207229E+01  0.51100000000E-03 0.  1.
         12    1    3    3    0    0  0.13811423046E+02  0.41154066080E+01 -0.17960927953E+02  0.23027959333E+02  0.00000000000E+00 0. -1.
</event>
<event>
 7    1  0.2497395E-009  0.4778724E+02  0.7816164E-02  0.1312668E+00
        -11   -1    0    0    0    0  0.00000000000E+00  0.00000000000E+00  0.45593999997E+02  0.45594000000E+02  0.51100000000E-03 0.  1.
         11   -1    0    0    0    0 -0.00000000000E+00 -0.00000000000E+00 -0.45593999997E+02  0.45594000000E+02  0.51100000000E-03 0. -1.
    9900012    2    1    2    0    0 -0.48147806744E+01  0.11722710813E+02 -0.41509302616E+02  0.47787236580E+02  0.19999842863E+02 0.  0.
        -12    1    1    2    0    0  0.48147806744E+01 -0.11722710813E+02  0.41509302616E+02  0.43400763420E+02  0.00000000000E+00 0.  1.
         11    1    3    3    0    0 -0.72657684225E+01  0.44301959062E+01 -0.11457418089E+02  0.14272016538E+02  0.51100000000E-03 0. -1.
        -11    1    3    3    0    0  0.41698563648E+01 -0.23320454899E+01 -0.69926192862E+01  0.84689351758E+01  0.51100000000E-03 0.  1.
        -12    1    3    3    0    0 -0.17188686167E+01  0.96245603968E+01 -0.23059265241E+02  0.25046284866E+02  0.00000000000E+00 0.  1.
</event>
<event>
 7    1  0.2497395E-009  0.4778727E+02  0.7816164E-02  0.1312668E+00
        -11   -1    0    0    0    0  0.00000000000E+00  0.00000000000E+00  0.45593999997E+02  0.45594000000E+02  0.51100000000E-03 0. -1.
         11   -1    0    0    0    0 -0.00000000000E+00 -0.00000000000E+00 -0.45593999997E+02  0.45594000000E+02  0.51100000000E-03 0.  1.
    9900012    2    1    2    0    0 -0.27676292427E+02  0.33076483067E+02 -0.48572167977E+01  0.47787269020E+02  0.19999990771E+02 0.  0.
        -12    1    1    2    0    0  0.27676292427E+02 -0.33076483067E+02  0.48572167977E+01  0.43400730980E+02  0.00000000000E+00 0.  1.
         11    1    3    3    0    0 -0.76200417245E+00  0.13008964222E+02 -0.92901970669E+00  0.13064336124E+02  0.51100000000E-03 0. -1.
        -11    1    3    3    0    0 -0.24624694050E+02  0.15539163271E+02 -0.49807796867E+01  0.29540638429E+02  0.51100000000E-03 0.  1.
        -12    1    3    3    0    0 -0.22895942037E+01  0.45283555747E+01  0.10525825957E+01  0.51822944676E+01  0.00000000000E+00 0.  1.
</event>
<event>
 7    1  0.2497395E-009  0.4778727E+02  0.7816164E-02  0.1312668E+00
        -11   -1    0    0    0    0  0.00000000000E+00  0.00000000000E+00  0.45593999997E+02  0.45594000000E+02  0.51100000000E-03 0. -1.
         11   -1    0    0    0    0 -0.00000000000E+00 -0.00000000000E+00 -0.45593999997E+02  0.45594000000E+02  0.51100000000E-03 0.  1.
    9900012    2    1    2    0    0 -0.34896890296E+01 -0.42717157712E+02  0.68329805584E+01  0.47787272865E+02  0.20000008301E+02 0.  0.
        -12    1    1    2    0    0  0.34896890296E+01  0.42717157712E+02 -0.68329805584E+01  0.43400727135E+02  0.00000000000E+00 0.  1.
         11    1    3    3    0    0 -0.12460393652E+01 -0.10937804802E+02  0.78177661386E+01  0.13502061163E+02  0.51100000000E-03 0. -1.
        -11    1    3    3    0    0  0.36950247962E+01 -0.36613176129E+01  0.15700127026E+01  0.54335435081E+01  0.51100000000E-03 0.  1.
         12    1    3    3    0    0 -0.59386744605E+01 -0.28118035298E+02 -0.25547982827E+01  0.28851668195E+02  0.00000000000E+00 0. -1.
</event>
<event>
 7    1  0.2497395E-009  0.4778731E+02  0.7816164E-02  0.1312668E+00
        -11   -1    0    0    0    0  0.00000000000E+00  0.00000000000E+00  0.45593999997E+02  0.45594000000E+02  0.51100000000E-03 0. -1.
         11   -1    0    0    0    0 -0.00000000000E+00 -0.00000000000E+00 -0.45593999997E+02  0.45594000000E+02  0.51100000000E-03 0.  1.
    9900012    2    1    2    0    0 -0.42877858817E+02  0.30114890050E+01  0.60033043844E+01  0.47787314449E+02  0.20000197898E+02 0.  0.
        -12    1    1    2    0    0  0.42877858817E+02 -0.30114890050E+01 -0.60033043844E+01  0.43400685551E+02  0.00000000000E+00 0.  1.
         11    1    3    3    0    0 -0.25522909262E+02  0.77304108816E+01  0.57785852443E+01  0.27286813616E+02  0.51100000000E-03 0. -1.
        -11    1    3    3    0    0 -0.80487343624E+01 -0.56438496623E+01 -0.34988421612E+01  0.10434417117E+02  0.51100000000E-03 0.  1.
        -12    1    3    3    0    0 -0.93062151925E+01  0.92492778563E+00  0.37235613013E+01  0.10066083716E+02  0.00000000000E+00 0.  1.
</event>
<event>
 7    1  0.2497395E-009  0.4778728E+02  0.7816164E-02  0.1312668E+00
        -11   -1    0    0    0    0  0.00000000000E+00  0.00000000000E+00  0.45593999997E+02  0.45594000000E+02  0.51100000000E-03 0.  1.
         11   -1    0    0    0    0 -0.00000000000E+00 -0.00000000000E+00 -0.45593999997E+02  0.45594000000E+02  0.51100000000E-03 0. -1.
    9900012    2    1    2    0    0 -0.28457255601E+02  0.31210683624E+02 -0.99850173209E+01  0.47787277201E+02  0.20000028068E+02 0.  0.
        -12    1    1    2    0    0  0.28457255601E+02 -0.31210683624E+02  0.99850173209E+01  0.43400722799E+02  0.00000000000E+00 0.  1.
         11    1    3    3    0    0 -0.36179591531E+01  0.99639122354E+00 -0.47461601646E+01  0.60504925810E+01  0.51100000000E-03 0. -1.
        -11    1    3    3    0    0 -0.86321538619E+01  0.21086762642E+02 -0.35428383950E+01  0.23058997011E+02  0.51100000000E-03 0.  1.
        -12    1    3    3    0    0 -0.16207142586E+02  0.91275297584E+01 -0.16960187613E+01  0.18677787608E+02  0.00000000000E+00 0.  1.
</event>
<event>
 7    1  0.2497395E-009  0.4778727E+02  0.7816164E-02  0.1312668E+00
        -11   -1    0    0    0    0  0.00000000000E+00  0.00000000000E+00  0.45593999997E+02  0.45594000000E+02  0.51100000000E-03 0. -1.
         11   -1    0    0    0    0 -0.00000000000E+00 -0.00000000000E+00 -0.45593999997E+02  0.45594000000E+02  0.51100000000E-03 0.  1.
    9900012    2    1    2    0    0  0.35967386613E+02  0.18544457881E+02  0.15686723947E+02  0.47787272748E+02  0.20000007765E+02 0.  0.
        -12    1    1    2    0    0 -0.35967386613E+02 -0.18544457881E+02 -0.15686723947E+02  0.43400727252E+02  0.00000000000E+00 0.  1.
         11    1    3    3    0    0  0.40326088396E+01  0.33444207704E+01 -0.30896542804E+01  0.60821910671E+01  0.51100000000E-03 0. -1.
        -11    1    3    3    0    0 -0.73678193432E+00 -0.49654873884E+00  0.10020125263E-01  0.88854315192E+00  0.51100000000E-03 0.  1.
         12    1    3    3    0    0  0.32671559708E+02  0.15696585850E+02  0.18766358102E+02  0.40816538529E+02  0.00000000000E+00 0. -1.
</event>
<event>
 7    1  0.2497395E-009  0.4778729E+02  0.7816164E-02  0.1312668E+00
        -11   -1    0    0    0    0  0.00000000000E+00  0.00000000000E+00  0.45593999997E+02  0.45594000000E+02  0.51100000000E-03 0.  1.
         11   -1    0    0    0    0 -0.00000000000E+00 -0.00000000000E+00 -0.45593999997E+02  0.45594000000E+02  0.51100000000E-03 0. -1.
    9900012    2    1    2    0    0 -0.80300271520E+01  0.17643224469E+02 -0.38831137463E+02  0.47787286384E+02  0.20000069939E+02 0.  0.
        -12    1    1    2    0    0  0.80300271520E+01 -0.17643224469E+02  0.38831137463E+02  0.43400713616E+02  0.00000000000E+00 0.  1.
         11    1    3    3    0    0 -0.91245966831E+01  0.24077253607E+00 -0.15113087655E+02  0.17655640877E+02  0.51100000000E-03 0. -1.
        -11    1    3    3    0    0  0.36129514393E+01  0.12014595972E+02 -0.14659552559E+02  0.19295243351E+02  0.51100000000E-03 0.  1.
        -12    1    3    3    0    0 -0.25183819083E+01  0.53878559604E+01 -0.90584972483E+01  0.10836402156E+02  0.00000000000E+00 0.  1.
</event>
<event>
 7    1  0.2497395E-009  0.4778728E+02  0.7816164E-02  0.1312668E+00
        -11   -1    0    0    0    0  0.00000000000E+00  0.00000000000E+00  0.45593999997E+02  0.45594000000E+02  0.51100000000E-03 0.  1.
         11   -1    0    0    0    0 -0.00000000000E+00 -0.00000000000E+00 -0.45593999997E+02  0.45594000000E+02  0.51100000000E-03 0. -1.
    9900012    2    1    2    0    0 -0.21166464532E+02  0.37399577274E+02  0.60724850310E+01  0.47787277938E+02  0.20000031429E+02 0.  0.
        -12    1    1    2    0    0  0.21166464532E+02 -0.37399577274E+02 -0.60724850310E+01  0.43400722062E+02  0.00000000000E+00 0.  1.
         11    1    3    3    0    0 -0.15188556519E+02  0.30015956414E+02 -0.23073846761E+01  0.33719043772E+02  0.51100000000E-03 0. -1.
        -11    1    3    3    0    0  0.15123372220E+00 -0.65956357520E-01 -0.76086807978E+00  0.77855145994E+00  0.51100000000E-03 0.  1.
         12    1    3    3    0    0 -0.61291417351E+01  0.74495772175E+01  0.91407377869E+01  0.13289682706E+02  0.00000000000E+00 0. -1.
</event>
<event>
 7    1  0.2497395E-009  0.4778727E+02  0.7816164E-02  0.1312668E+00
        -11   -1    0    0    0    0  0.00000000000E+00  0.00000000000E+00  0.45593999997E+02  0.45594000000E+02  0.51100000000E-03 0.  1.
         11   -1    0    0    0    0 -0.00000000000E+00 -0.00000000000E+00 -0.45593999997E+02  0.45594000000E+02  0.51100000000E-03 0. -1.
    9900012    2    1    2    0    0  0.38241400364E+02  0.74097534407E+01 -0.19139335641E+02  0.47787270552E+02  0.19999997754E+02 0.  0.
        -12    1    1    2    0    0 -0.38241400364E+02 -0.74097534407E+01  0.19139335641E+02  0.43400729448E+02  0.00000000000E+00 0.  1.
         11    1    3    3    0    0  0.33571658493E+02  0.68205640042E+01 -0.14486991863E+02  0.37194748027E+02  0.51100000000E-03 0. -1.
        -11    1    3    3    0    0  0.10219353727E+01  0.34379091934E+01 -0.47635854362E+01  0.59628280201E+01  0.51100000000E-03 0.  1.
         12    1    3    3    0    0  0.36478064984E+01 -0.28487197569E+01  0.11124165780E+00  0.46296945050E+01  0.00000000000E+00 0. -1.
</event>
<event>
 7    1  0.2497395E-009  0.4778725E+02  0.7816164E-02  0.1312668E+00
        -11   -1    0    0    0    0  0.00000000000E+00  0.00000000000E+00  0.45593999997E+02  0.45594000000E+02  0.51100000000E-03 0.  1.
         11   -1    0    0    0    0 -0.00000000000E+00 -0.00000000000E+00 -0.45593999997E+02  0.45594000000E+02  0.51100000000E-03 0. -1.
    9900012    2    1    2    0    0 -0.29149849538E+02 -0.42125707362E+01 -0.31877355668E+02  0.47787247879E+02  0.19999894378E+02 0.  0.
        -12    1    1    2    0    0  0.29149849538E+02  0.42125707362E+01  0.31877355668E+02  0.43400752121E+02  0.00000000000E+00 0.  1.
         11    1    3    3    0    0 -0.62123960221E+01  0.24739569626E+01 -0.14373248092E+02  0.15852589327E+02  0.51100000000E-03 0. -1.
        -11    1    3    3    0    0 -0.21690486818E+02 -0.25013817076E+01 -0.12019747434E+02  0.24924053793E+02  0.51100000000E-03 0.  1.
        -12    1    3    3    0    0 -0.12469666979E+01 -0.41851459912E+01 -0.54843601420E+01  0.70106047586E+01  0.00000000000E+00 0.  1.
</event>
<event>
 7    1  0.2497395E-009  0.4778727E+02  0.7816164E-02  0.1312668E+00
        -11   -1    0    0    0    0  0.00000000000E+00  0.00000000000E+00  0.45593999997E+02  0.45594000000E+02  0.51100000000E-03 0.  1.
         11   -1    0    0    0    0 -0.00000000000E+00 -0.00000000000E+00 -0.45593999997E+02  0.45594000000E+02  0.51100000000E-03 0. -1.
    9900012    2    1    2    0    0  0.26903592690E+02 -0.19871451040E+02 -0.27657650897E+02  0.47787268219E+02  0.19999987116E+02 0.  0.
        -12    1    1    2    0    0 -0.26903592690E+02  0.19871451040E+02  0.27657650897E+02  0.43400731781E+02  0.00000000000E+00 0.  1.
         11    1    3    3    0    0  0.37593515759E+01 -0.39935600491E+01 -0.43085218070E+01  0.69745685572E+01  0.51100000000E-03 0. -1.
        -11    1    3    3    0    0  0.84644888891E+01 -0.32411404948E+01  0.16241324255E+01  0.92081686701E+01  0.51100000000E-03 0.  1.
        -12    1    3    3    0    0  0.14679752225E+02 -0.12636750496E+02 -0.24973261515E+02  0.31604530991E+02  0.00000000000E+00 0.  1.
</event>
<event>
 7    1  0.2497395E-009  0.4778727E+02  0.7816164E-02  0.1312668E+00
        -11   -1    0    0    0    0  0.00000000000E+00  0.00000000000E+00  0.45593999997E+02  0.45594000000E+02  0.51100000000E-03 0.  1.
         11   -1    0    0    0    0 -0.00000000000E+00 -0.00000000000E+00 -0.45593999997E+02  0.45594000000E+02  0.51100000000E-03 0. -1.
    9900012    2    1    2    0    0  0.29197772329E+02  0.25594178002E+02 -0.19392045078E+02  0.47787271102E+02  0.20000000263E+02 0.  0.
        -12    1    1    2    0    0 -0.29197772329E+02 -0.25594178002E+02  0.19392045078E+02  0.43400728898E+02  0.00000000000E+00 0.  1.
         11    1    3    3    0    0  0.16663981629E+02  0.13991203415E+02 -0.18490042060E+02  0.28553873859E+02  0.51100000000E-03 0. -1.
        -11    1    3    3    0    0  0.37904313095E+00  0.42178572973E+01 -0.25060277187E+01  0.49207894756E+01  0.51100000000E-03 0.  1.
         12    1    3    3    0    0  0.12154747569E+02  0.73851172898E+01  0.16040247007E+01  0.14312607767E+02  0.00000000000E+00 0. -1.
</event>
<event>
 7    1  0.2497395E-009  0.4778727E+02  0.7816164E-02  0.1312668E+00
        -11   -1    0    0    0    0  0.00000000000E+00  0.00000000000E+00  0.45593999997E+02  0.45594000000E+02  0.51100000000E-03 0. -1.
         11   -1    0    0    0    0 -0.00000000000E+00 -0.00000000000E+00 -0.45593999997E+02  0.45594000000E+02  0.51100000000E-03 0.  1.
    9900012    2    1    2    0    0 -0.15911983483E+02  0.23646066541E+02  0.32730650933E+02  0.47787271991E+02  0.20000004314E+02 0.  0.
        -12    1    1    2    0    0  0.15911983483E+02 -0.23646066541E+02 -0.32730650933E+02  0.43400728009E+02  0.00000000000E+00 0.  1.
         11    1    3    3    0    0 -0.18957167068E+02  0.25060114561E+02  0.28988106587E+02  0.42751536216E+02  0.51100000000E-03 0. -1.
        -11    1    3    3    0    0  0.22784395468E+01 -0.10172354744E+01  0.25990866829E+01  0.36029580382E+01  0.51100000000E-03 0.  1.
         12    1    3    3    0    0  0.76674403775E+00 -0.39681254525E+00  0.11434576629E+01  0.14327777366E+01  0.00000000000E+00 0. -1.
</event>
<event>
 7    1  0.2497395E-009  0.4778727E+02  0.7816164E-02  0.1312668E+00
        -11   -1    0    0    0    0  0.00000000000E+00  0.00000000000E+00  0.45593999997E+02  0.45594000000E+02  0.51100000000E-03 0.  1.
         11   -1    0    0    0    0 -0.00000000000E+00 -0.00000000000E+00 -0.45593999997E+02  0.45594000000E+02  0.51100000000E-03 0. -1.
    9900012    2    1    2    0    0  0.40512314862E+02  0.80343662663E+01  0.13335090733E+02  0.47787270263E+02  0.19999996439E+02 0.  0.
        -12    1    1    2    0    0 -0.40512314862E+02 -0.80343662663E+01 -0.13335090733E+02  0.43400729737E+02  0.00000000000E+00 0.  1.
         11    1    3    3    0    0  0.16933138098E+02  0.24921956554E+01  0.40433873708E+00  0.17120329877E+02  0.51100000000E-03 0. -1.
        -11    1    3    3    0    0  0.23533255079E+02  0.70753438930E+01  0.14450454240E+02  0.28507722003E+02  0.51100000000E-03 0.  1.
        -12    1    3    3    0    0  0.45921685678E-01 -0.15331732821E+01 -0.15197022442E+01  0.21592183829E+01  0.00000000000E+00 0.  1.
</event>
<event>
 7    1  0.2497395E-009  0.4778727E+02  0.7816164E-02  0.1312668E+00
        -11   -1    0    0    0    0  0.00000000000E+00  0.00000000000E+00  0.45593999997E+02  0.45594000000E+02  0.51100000000E-03 0. -1.
         11   -1    0    0    0    0 -0.00000000000E+00 -0.00000000000E+00 -0.45593999997E+02  0.45594000000E+02  0.51100000000E-03 0.  1.
    9900012    2    1    2    0    0  0.12735476139E+02  0.40952052950E+02 -0.66603559172E+01  0.47787270349E+02  0.19999996828E+02 0.  0.
        -12    1    1    2    0    0 -0.12735476139E+02 -0.40952052950E+02  0.66603559172E+01  0.43400729651E+02  0.00000000000E+00 0.  1.
         11    1    3    3    0    0  0.10787345340E+02  0.29639188426E+02  0.20402612035E+01  0.31607134892E+02  0.51100000000E-03 0. -1.
        -11    1    3    3    0    0  0.25691160061E+01  0.33253359159E+01 -0.67226632594E+01  0.79279516627E+01  0.51100000000E-03 0.  1.
        -12    1    3    3    0    0 -0.62098520694E+00  0.79875286082E+01 -0.19779538614E+01  0.82521837942E+01  0.00000000000E+00 0.  1.
</event>
<event>
 7    1  0.2497395E-009  0.4778728E+02  0.7816164E-02  0.1312668E+00
        -11   -1    0    0    0    0  0.00000000000E+00  0.00000000000E+00  0.45593999997E+02  0.45594000000E+02  0.51100000000E-03 0.  1.
         11   -1    0    0    0    0 -0.00000000000E+00 -0.00000000000E+00 -0.45593999997E+02  0.45594000000E+02  0.51100000000E-03 0. -1.
    9900012    2    1    2    0    0 -0.28377734158E+02 -0.24088129947E+02 -0.22317904774E+02  0.47787277958E+02  0.20000031521E+02 0.  0.
        -12    1    1    2    0    0  0.28377734158E+02  0.24088129947E+02  0.22317904774E+02  0.43400722042E+02  0.00000000000E+00 0.  1.
         11    1    3    3    0    0 -0.15937163142E+02 -0.15803892991E+02 -0.21971402185E+02  0.31408577124E+02  0.51100000000E-03 0. -1.
        -11    1    3    3    0    0 -0.20261714670E+01 -0.14446885729E+01  0.25753464520E+01  0.35811877213E+01  0.51100000000E-03 0.  1.
         12    1    3    3    0    0 -0.10414399549E+02 -0.68395483830E+01 -0.29218490407E+01  0.12797513113E+02  0.00000000000E+00 0. -1.
</event>
<event>
 7    1  0.2497395E-009  0.4778727E+02  0.7816164E-02  0.1312668E+00
        -11   -1    0    0    0    0  0.00000000000E+00  0.00000000000E+00  0.45593999997E+02  0.45594000000E+02  0.51100000000E-03 0.  1.
         11   -1    0    0    0    0 -0.00000000000E+00 -0.00000000000E+00 -0.45593999997E+02  0.45594000000E+02  0.51100000000E-03 0. -1.
    9900012    2    1    2    0    0  0.39089766694E+02 -0.16997735216E+02  0.81664234244E+01  0.47787270349E+02  0.19999996829E+02 0.  0.
        -12    1    1    2    0    0 -0.39089766694E+02  0.16997735216E+02 -0.81664234244E+01  0.43400729651E+02  0.00000000000E+00 0.  1.
         11    1    3    3    0    0  0.10393630858E+01 -0.74375409118E+01  0.18314404955E+01  0.77299071785E+01  0.51100000000E-03 0. -1.
        -11    1    3    3    0    0  0.25037673021E+02 -0.75189464744E+01  0.62772562340E+01  0.26885378415E+02  0.51100000000E-03 0.  1.
         12    1    3    3    0    0  0.13012730587E+02 -0.20412478296E+01  0.57726694897E-01  0.13171984756E+02  0.00000000000E+00 0. -1.
</event>
<event>
 7    1  0.2497395E-009  0.4778727E+02  0.7816164E-02  0.1312668E+00
        -11   -1    0    0    0    0  0.00000000000E+00  0.00000000000E+00  0.45593999997E+02  0.45594000000E+02  0.51100000000E-03 0.  1.
         11   -1    0    0    0    0 -0.00000000000E+00 -0.00000000000E+00 -0.45593999997E+02  0.45594000000E+02  0.51100000000E-03 0. -1.
    9900012    2    1    2    0    0 -0.14516767143E+02  0.14065326118E+02 -0.38406422034E+02  0.47787272119E+02  0.20000004900E+02 0.  0.
        -12    1    1    2    0    0  0.14516767143E+02 -0.14065326118E+02  0.38406422034E+02  0.43400727881E+02  0.00000000000E+00 0.  1.
         11    1    3    3    0    0 -0.21953393737E+01 -0.24920713263E-01 -0.76040129711E+01  0.79146161962E+01  0.51100000000E-03 0. -1.
        -11    1    3    3    0    0 -0.60401778500E+01 -0.21916863818E+01 -0.31064769646E+01  0.71370468016E+01  0.51100000000E-03 0.  1.
        -12    1    3    3    0    0 -0.62812499196E+01  0.16281933213E+02 -0.27695932099E+02  0.32735609121E+02  0.00000000000E+00 0.  1.
</event>
<event>
 7    1  0.2497395E-009  0.4778727E+02  0.7816164E-02  0.1312668E+00
        -11   -1    0    0    0    0  0.00000000000E+00  0.00000000000E+00  0.45593999997E+02  0.45594000000E+02  0.51100000000E-03 0.  1.
         11   -1    0    0    0    0 -0.00000000000E+00 -0.00000000000E+00 -0.45593999997E+02  0.45594000000E+02  0.51100000000E-03 0. -1.
    9900012    2    1    2    0    0 -0.35521633150E+02 -0.25772118545E+01 -0.24803119298E+02  0.47787272247E+02  0.20000005483E+02 0.  0.
        -12    1    1    2    0    0  0.35521633150E+02  0.25772118545E+01  0.24803119298E+02  0.43400727753E+02  0.00000000000E+00 0.  1.
         11    1    3    3    0    0 -0.25348398097E+02 -0.72519788020E+01 -0.17670259031E+02  0.31739101076E+02  0.51100000000E-03 0. -1.
        -11    1    3    3    0    0 -0.71268784312E+01  0.41983511052E+01  0.63644483747E-02  0.82715529947E+01  0.51100000000E-03 0.  1.
         12    1    3    3    0    0 -0.30463566215E+01  0.47641584226E+00 -0.71392247159E+01  0.77766181766E+01  0.00000000000E+00 0. -1.
</event>
<event>
 7    1  0.2497395E-009  0.4778727E+02  0.7816164E-02  0.1312668E+00
        -11   -1    0    0    0    0  0.00000000000E+00  0.00000000000E+00  0.45593999997E+02  0.45594000000E+02  0.51100000000E-03 0.  1.
         11   -1    0    0    0    0 -0.00000000000E+00 -0.00000000000E+00 -0.45593999997E+02  0.45594000000E+02  0.51100000000E-03 0. -1.
    9900012    2    1    2    0    0  0.38557744694E+02  0.58734282211E-01 -0.19922852239E+02  0.47787272276E+02  0.20000005617E+02 0.  0.
        -12    1    1    2    0    0 -0.38557744694E+02 -0.58734282211E-01  0.19922852239E+02  0.43400727724E+02  0.00000000000E+00 0.  1.
         11    1    3    3    0    0  0.29534060422E+02 -0.24177924342E+00 -0.89829930108E+01  0.30870914238E+02  0.51100000000E-03 0. -1.
        -11    1    3    3    0    0  0.84656830131E+00  0.38554610085E+01 -0.39766948163E+01  0.56031561999E+01  0.51100000000E-03 0.  1.
         12    1    3    3    0    0  0.81771159705E+01 -0.35549474829E+01 -0.69631644122E+01  0.11313201838E+02  0.00000000000E+00 0. -1.
</event>
<event>
 7    1  0.2497395E-009  0.4778728E+02  0.7816164E-02  0.1312668E+00
        -11   -1    0    0    0    0  0.00000000000E+00  0.00000000000E+00  0.45593999997E+02  0.45594000000E+02  0.51100000000E-03 0. -1.
         11   -1    0    0    0    0 -0.00000000000E+00 -0.00000000000E+00 -0.45593999997E+02  0.45594000000E+02  0.51100000000E-03 0.  1.
    9900012    2    1    2    0    0  0.17202154206E+02  0.57677791051E+01  0.39426397605E+02  0.47787283264E+02  0.20000055713E+02 0.  0.
        -12    1    1    2    0    0 -0.17202154206E+02 -0.57677791051E+01 -0.39426397605E+02  0.43400716736E+02  0.00000000000E+00 0.  1.
         11    1    3    3    0    0  0.20784277112E+01  0.61055910201E+01  0.21395731094E+01  0.67952834236E+01  0.51100000000E-03 0. -1.
        -11    1    3    3    0    0  0.14333289582E+02  0.14144568425E+01  0.35711863822E+02  0.38506896737E+02  0.51100000000E-03 0.  1.
        -12    1    3    3    0    0  0.79043691240E+00 -0.17522687574E+01  0.15749606728E+01  0.24851031028E+01  0.00000000000E+00 0.  1.
</event>
<event>
 7    1  0.2497395E-009  0.4778727E+02  0.7816164E-02  0.1312668E+00
        -11   -1    0    0    0    0  0.00000000000E+00  0.00000000000E+00  0.45593999997E+02  0.45594000000E+02  0.51100000000E-03 0. -1.
         11   -1    0    0    0    0 -0.00000000000E+00 -0.00000000000E+00 -0.45593999997E+02  0.45594000000E+02  0.51100000000E-03 0.  1.
    9900012    2    1    2    0    0  0.13965094359E+02 -0.42845587233E+01  0.40868592810E+02  0.47787272101E+02  0.20000004818E+02 0.  0.
        -12    1    1    2    0    0 -0.13965094359E+02  0.42845587233E+01 -0.40868592810E+02  0.43400727899E+02  0.00000000000E+00 0.  1.
         11    1    3    3    0    0  0.83887356557E+01  0.85433213239E+00  0.69759247135E+01  0.10943687457E+02  0.51100000000E-03 0. -1.
        -11    1    3    3    0    0 -0.24280245752E+01  0.12363770937E+01  0.16009079486E+02  0.16239290560E+02  0.51100000000E-03 0.  1.
        -12    1    3    3    0    0  0.80043832787E+01 -0.63752679494E+01  0.17883588610E+02  0.20604294084E+02  0.00000000000E+00 0.  1.
</event>
<event>
 7    1  0.2497395E-009  0.4778726E+02  0.7816164E-02  0.1312668E+00
        -11   -1    0    0    0    0  0.00000000000E+00  0.00000000000E+00  0.45593999997E+02  0.45594000000E+02  0.51100000000E-03 0.  1.
         11   -1    0    0    0    0 -0.00000000000E+00 -0.00000000000E+00 -0.45593999997E+02  0.45594000000E+02  0.51100000000E-03 0. -1.
    9900012    2    1    2    0    0  0.15203981577E+02 -0.40586428962E+02 -0.22813990878E+01  0.47787262063E+02  0.19999959048E+02 0.  0.
        -12    1    1    2    0    0 -0.15203981577E+02  0.40586428962E+02  0.22813990878E+01  0.43400737937E+02  0.00000000000E+00 0.  1.
         11    1    3    3    0    0  0.13271555727E+02 -0.30735474549E+02 -0.29500653090E+01  0.33608131051E+02  0.51100000000E-03 0. -1.
        -11    1    3    3    0    0 -0.21941475111E+01 -0.40562079972E+01  0.41994705738E+01  0.62371996904E+01  0.51100000000E-03 0.  1.
        -12    1    3    3    0    0  0.41265733606E+01 -0.57947464168E+01 -0.35308043526E+01  0.79419313213E+01  0.00000000000E+00 0.  1.
</event>
<event>
 7    1  0.2497395E-009  0.4778728E+02  0.7816164E-02  0.1312668E+00
        -11   -1    0    0    0    0  0.00000000000E+00  0.00000000000E+00  0.45593999997E+02  0.45594000000E+02  0.51100000000E-03 0.  1.
         11   -1    0    0    0    0 -0.00000000000E+00 -0.00000000000E+00 -0.45593999997E+02  0.45594000000E+02  0.51100000000E-03 0. -1.
    9900012    2    1    2    0    0 -0.20506636764E+02 -0.30868132680E+02 -0.22588908184E+02  0.47787279506E+02  0.20000038578E+02 0.  0.
        -12    1    1    2    0    0  0.20506636764E+02  0.30868132680E+02  0.22588908184E+02  0.43400720494E+02  0.00000000000E+00 0.  1.
         11    1    3    3    0    0 -0.13527482518E+02 -0.27783722107E+02 -0.12395460152E+02  0.33295276392E+02  0.51100000000E-03 0. -1.
        -11    1    3    3    0    0 -0.46097303146E+01 -0.21516124957E+01 -0.10743322132E+02  0.11886884394E+02  0.51100000000E-03 0.  1.
        -12    1    3    3    0    0 -0.23694239310E+01 -0.93279807734E+00  0.54987410016E+00  0.26051187197E+01  0.00000000000E+00 0.  1.
</event>
<event>
 7    1  0.2497395E-009  0.4778729E+02  0.7816164E-02  0.1312668E+00
        -11   -1    0    0    0    0  0.00000000000E+00  0.00000000000E+00  0.45593999997E+02  0.45594000000E+02  0.51100000000E-03 0.  1.
         11   -1    0    0    0    0 -0.00000000000E+00 -0.00000000000E+00 -0.45593999997E+02  0.45594000000E+02  0.51100000000E-03 0. -1.
    9900012    2    1    2    0    0 -0.37568418176E+02  0.10668807500E+01 -0.21704785280E+02  0.47787285918E+02  0.20000067816E+02 0.  0.
        -12    1    1    2    0    0  0.37568418176E+02 -0.10668807500E+01  0.21704785280E+02  0.43400714082E+02  0.00000000000E+00 0.  1.
         11    1    3    3    0    0 -0.18752881451E+02  0.34876430046E+01 -0.18609592475E+02  0.26648661294E+02  0.51100000000E-03 0. -1.
        -11    1    3    3    0    0 -0.94228344491E+01 -0.56280527364E+01 -0.19508791200E+01  0.11147677617E+02  0.51100000000E-03 0.  1.
        -12    1    3    3    0    0 -0.93927022759E+01  0.32072904819E+01 -0.11443136846E+01  0.99909470066E+01  0.00000000000E+00 0.  1.
</event>
<event>
 7    1  0.2497395E-009  0.4778727E+02  0.7816164E-02  0.1312668E+00
        -11   -1    0    0    0    0  0.00000000000E+00  0.00000000000E+00  0.45593999997E+02  0.45594000000E+02  0.51100000000E-03 0.  1.
         11   -1    0    0    0    0 -0.00000000000E+00 -0.00000000000E+00 -0.45593999997E+02  0.45594000000E+02  0.51100000000E-03 0. -1.
    9900012    2    1    2    0    0  0.18317572223E+02  0.34469681421E+02 -0.18971836968E+02  0.47787274345E+02  0.20000015048E+02 0.  0.
        -12    1    1    2    0    0 -0.18317572223E+02 -0.34469681421E+02  0.18971836968E+02  0.43400725655E+02  0.00000000000E+00 0.  1.
         11    1    3    3    0    0  0.67128230409E+01  0.75616154422E+01  0.13969125673E+01  0.10207418197E+02  0.51100000000E-03 0. -1.
        -11    1    3    3    0    0  0.35715236338E+01  0.10249483412E+02 -0.11612776873E+01  0.10915871812E+02  0.51100000000E-03 0.  1.
         12    1    3    3    0    0  0.80332255481E+01  0.16658582567E+02 -0.19207471848E+02  0.26663984336E+02  0.00000000000E+00 0. -1.
</event>
<event>
 7    1  0.2497395E-009  0.4778726E+02  0.7816164E-02  0.1312668E+00
        -11   -1    0    0    0    0  0.00000000000E+00  0.00000000000E+00  0.45593999997E+02  0.45594000000E+02  0.51100000000E-03 0. -1.
         11   -1    0    0    0    0 -0.00000000000E+00 -0.00000000000E+00 -0.45593999997E+02  0.45594000000E+02  0.51100000000E-03 0.  1.
    9900012    2    1    2    0    0 -0.11163158729E+02  0.89134088313E+01  0.40982430001E+02  0.47787256474E+02  0.19999933569E+02 0.  0.
        -12    1    1    2    0    0  0.11163158729E+02 -0.89134088313E+01 -0.40982430001E+02  0.43400743526E+02  0.00000000000E+00 0.  1.
         11    1    3    3    0    0  0.19881723336E+00  0.83843061328E+01  0.13677754096E+02  0.16044222480E+02  0.51100000000E-03 0. -1.
        -11    1    3    3    0    0 -0.68175688894E+01 -0.40093883741E+01  0.74124815443E+01  0.10839710494E+02  0.51100000000E-03 0.  1.
        -12    1    3    3    0    0 -0.45444070731E+01  0.45384910726E+01  0.19892194361E+02  0.20903323500E+02  0.00000000000E+00 0.  1.
</event>
<event>
 7    1  0.2497395E-009  0.4778728E+02  0.7816164E-02  0.1312668E+00
        -11   -1    0    0    0    0  0.00000000000E+00  0.00000000000E+00  0.45593999997E+02  0.45594000000E+02  0.51100000000E-03 0.  1.
         11   -1    0    0    0    0 -0.00000000000E+00 -0.00000000000E+00 -0.45593999997E+02  0.45594000000E+02  0.51100000000E-03 0. -1.
    9900012    2    1    2    0    0 -0.11426404201E+02  0.37451174355E+02 -0.18720826990E+02  0.47787279537E+02  0.20000038719E+02 0.  0.
        -12    1    1    2    0    0  0.11426404201E+02 -0.37451174355E+02  0.18720826990E+02  0.43400720463E+02  0.00000000000E+00 0.  1.
         11    1    3    3    0    0 -0.72124127913E+01  0.29971417980E+02 -0.76412120658E+01  0.31759926261E+02  0.51100000000E-03 0. -1.
        -11    1    3    3    0    0 -0.51158828377E+01  0.25774615992E+01 -0.89064932088E+01  0.10589673604E+02  0.51100000000E-03 0.  1.
        -12    1    3    3    0    0  0.90189142827E+00  0.49022947766E+01 -0.21731217151E+01  0.54376796719E+01  0.00000000000E+00 0.  1.
</event>
<event>
 7    1  0.2497395E-009  0.4778727E+02  0.7816164E-02  0.1312668E+00
        -11   -1    0    0    0    0  0.00000000000E+00  0.00000000000E+00  0.45593999997E+02  0.45594000000E+02  0.51100000000E-03 0. -1.
         11   -1    0    0    0    0 -0.00000000000E+00 -0.00000000000E+00 -0.45593999997E+02  0.45594000000E+02  0.51100000000E-03 0.  1.
    9900012    2    1    2    0    0 -0.22919674628E+02 -0.36681640473E+02  0.35733706823E+01  0.47787271771E+02  0.20000003311E+02 0.  0.
        -12    1    1    2    0    0  0.22919674628E+02  0.36681640473E+02 -0.35733706823E+01  0.43400728229E+02  0.00000000000E+00 0.  1.
         11    1    3    3    0    0 -0.16028722405E+02 -0.36144111661E+02  0.41642679109E+01  0.39757488316E+02  0.51100000000E-03 0. -1.
        -11    1    3    3    0    0 -0.47232016711E+01  0.13025884307E+01 -0.13588309419E+01  0.50844657965E+01  0.51100000000E-03 0.  1.
        -12    1    3    3    0    0 -0.21677505520E+01 -0.18401172423E+01  0.76793371322E+00  0.29453176584E+01  0.00000000000E+00 0.  1.
</event>
<event>
 7    1  0.2497395E-009  0.4778727E+02  0.7816164E-02  0.1312668E+00
        -11   -1    0    0    0    0  0.00000000000E+00  0.00000000000E+00  0.45593999997E+02  0.45594000000E+02  0.51100000000E-03 0.  1.
         11   -1    0    0    0    0 -0.00000000000E+00 -0.00000000000E+00 -0.45593999997E+02  0.45594000000E+02  0.51100000000E-03 0. -1.
    9900012    2    1    2    0    0 -0.21119079848E+02  0.19981256606E+02 -0.32223555426E+02  0.47787266441E+02  0.19999979010E+02 0.  0.
        -12    1    1    2    0    0  0.21119079848E+02 -0.19981256606E+02  0.32223555426E+02  0.43400733559E+02  0.00000000000E+00 0.  1.
         11    1    3    3    0    0 -0.11471063739E+02  0.88033514637E+01 -0.77936323574E+01  0.16426350961E+02  0.51100000000E-03 0. -1.
        -11    1    3    3    0    0  0.13635688895E+01 -0.14240446152E+01 -0.66837521412E+01  0.69684837755E+01  0.51100000000E-03 0.  1.
        -12    1    3    3    0    0 -0.11011584998E+02  0.12601949757E+02 -0.17746170927E+02  0.24392431704E+02  0.00000000000E+00 0.  1.
</event>
<event>
 7    1  0.2497395E-009  0.4778727E+02  0.7816164E-02  0.1312668E+00
        -11   -1    0    0    0    0  0.00000000000E+00  0.00000000000E+00  0.45593999997E+02  0.45594000000E+02  0.51100000000E-03 0.  1.
         11   -1    0    0    0    0 -0.00000000000E+00 -0.00000000000E+00 -0.45593999997E+02  0.45594000000E+02  0.51100000000E-03 0. -1.
    9900012    2    1    2    0    0  0.17043233047E+02  0.39805946727E+02 -0.29391378794E+01  0.47787265916E+02  0.19999976616E+02 0.  0.
        -12    1    1    2    0    0 -0.17043233047E+02 -0.39805946727E+02  0.29391378794E+01  0.43400734084E+02  0.00000000000E+00 0.  1.
         11    1    3    3    0    0  0.69066003367E+01  0.55600459128E+01  0.28710432119E+01  0.93197708206E+01  0.51100000000E-03 0. -1.
        -11    1    3    3    0    0  0.35164909545E+01  0.27184507024E+02 -0.79779276666E+01  0.28548388062E+02  0.51100000000E-03 0.  1.
        -12    1    3    3    0    0  0.66201417560E+01  0.70613937902E+01  0.21677465753E+01  0.99191070337E+01  0.00000000000E+00 0.  1.
</event>
<event>
 7    1  0.2497395E-009  0.4778727E+02  0.7816164E-02  0.1312668E+00
        -11   -1    0    0    0    0  0.00000000000E+00  0.00000000000E+00  0.45593999997E+02  0.45594000000E+02  0.51100000000E-03 0.  1.
         11   -1    0    0    0    0 -0.00000000000E+00 -0.00000000000E+00 -0.45593999997E+02  0.45594000000E+02  0.51100000000E-03 0. -1.
    9900012    2    1    2    0    0 -0.63856896585E+01 -0.45752552692E+00 -0.42925944711E+02  0.47787273147E+02  0.20000009588E+02 0.  0.
        -12    1    1    2    0    0  0.63856896585E+01  0.45752552692E+00  0.42925944711E+02  0.43400726853E+02  0.00000000000E+00 0.  1.
         11    1    3    3    0    0 -0.10447925213E+02 -0.19505074975E+00 -0.22124997957E+02  0.24468606844E+02  0.51100000000E-03 0. -1.
        -11    1    3    3    0    0  0.14094247796E+01 -0.49343789419E+01 -0.92113071515E+01  0.10544323281E+02  0.51100000000E-03 0.  1.
         12    1    3    3    0    0  0.26528107747E+01  0.46719041647E+01 -0.11589639602E+02  0.12774343022E+02  0.00000000000E+00 0. -1.
</event>
<event>
 7    1  0.2497395E-009  0.4778727E+02  0.7816164E-02  0.1312668E+00
        -11   -1    0    0    0    0  0.00000000000E+00  0.00000000000E+00  0.45593999997E+02  0.45594000000E+02  0.51100000000E-03 0.  1.
         11   -1    0    0    0    0 -0.00000000000E+00 -0.00000000000E+00 -0.45593999997E+02  0.45594000000E+02  0.51100000000E-03 0. -1.
    9900012    2    1    2    0    0  0.27168425079E+02 -0.16023593043E+01 -0.33807283528E+02  0.47787270788E+02  0.19999998830E+02 0.  0.
        -12    1    1    2    0    0 -0.27168425079E+02  0.16023593043E+01  0.33807283528E+02  0.43400729212E+02  0.00000000000E+00 0.  1.
         11    1    3    3    0    0  0.40091139318E+01 -0.94342564878E+00 -0.60664751947E+01  0.73324735269E+01  0.51100000000E-03 0. -1.
        -11    1    3    3    0    0  0.17692432566E+02 -0.76492336670E+01 -0.13001520378E+02  0.23250214583E+02  0.51100000000E-03 0.  1.
        -12    1    3    3    0    0  0.54668785820E+01  0.69903000115E+01 -0.14739287955E+02  0.17204582678E+02  0.00000000000E+00 0.  1.
</event>
<event>
 7    1  0.2497395E-009  0.4778727E+02  0.7816164E-02  0.1312668E+00
        -11   -1    0    0    0    0  0.00000000000E+00  0.00000000000E+00  0.45593999997E+02  0.45594000000E+02  0.51100000000E-03 0. -1.
         11   -1    0    0    0    0 -0.00000000000E+00 -0.00000000000E+00 -0.45593999997E+02  0.45594000000E+02  0.51100000000E-03 0.  1.
    9900012    2    1    2    0    0 -0.39842852660E+02  0.15840032386E+02 -0.67278224113E+01  0.47787272720E+02  0.20000007638E+02 0.  0.
        -12    1    1    2    0    0  0.39842852660E+02 -0.15840032386E+02  0.67278224113E+01  0.43400727280E+02  0.00000000000E+00 0.  1.
         11    1    3    3    0    0 -0.12190821955E+02  0.81943198724E+01  0.18557236364E+01  0.14805631651E+02  0.51100000000E-03 0. -1.
        -11    1    3    3    0    0 -0.17098898456E+02  0.46866596827E+01 -0.12107116604E+02  0.21469033050E+02  0.51100000000E-03 0.  1.
        -12    1    3    3    0    0 -0.10553132249E+02  0.29590528304E+01  0.35235705561E+01  0.11512608019E+02  0.00000000000E+00 0.  1.
</event>
<event>
 7    1  0.2497395E-009  0.4778728E+02  0.7816164E-02  0.1312668E+00
        -11   -1    0    0    0    0  0.00000000000E+00  0.00000000000E+00  0.45593999997E+02  0.45594000000E+02  0.51100000000E-03 0. -1.
         11   -1    0    0    0    0 -0.00000000000E+00 -0.00000000000E+00 -0.45593999997E+02  0.45594000000E+02  0.51100000000E-03 0.  1.
    9900012    2    1    2    0    0  0.31363304202E+02  0.22235858817E+02  0.20137833975E+02  0.47787278520E+02  0.20000034085E+02 0.  0.
        -12    1    1    2    0    0 -0.31363304202E+02 -0.22235858817E+02 -0.20137833975E+02  0.43400721480E+02  0.00000000000E+00 0.  1.
         11    1    3    3    0    0  0.20140928097E+02  0.11101466761E+02  0.14272860306E+02  0.27066844856E+02  0.51100000000E-03 0. -1.
        -11    1    3    3    0    0 -0.22283174663E+01  0.39395735834E+01  0.51466197208E+00  0.45552734228E+01  0.51100000000E-03 0.  1.
        -12    1    3    3    0    0  0.13450693571E+02  0.71948184725E+01  0.53503116963E+01  0.16165160242E+02  0.00000000000E+00 0.  1.
</event>
<event>
 7    1  0.2497395E-009  0.4778727E+02  0.7816164E-02  0.1312668E+00
        -11   -1    0    0    0    0  0.00000000000E+00  0.00000000000E+00  0.45593999997E+02  0.45594000000E+02  0.51100000000E-03 0.  1.
         11   -1    0    0    0    0 -0.00000000000E+00 -0.00000000000E+00 -0.45593999997E+02  0.45594000000E+02  0.51100000000E-03 0. -1.
    9900012    2    1    2    0    0 -0.12920402362E+02 -0.57551250389E+01 -0.41031270667E+02  0.47787269200E+02  0.19999991593E+02 0.  0.
        -12    1    1    2    0    0  0.12920402362E+02  0.57551250389E+01  0.41031270667E+02  0.43400730800E+02  0.00000000000E+00 0.  1.
         11    1    3    3    0    0 -0.17182145312E+02 -0.38450502607E+01 -0.26638886786E+02  0.31931815145E+02  0.51100000000E-03 0. -1.
        -11    1    3    3    0    0  0.29652757844E+01  0.42827699586E+00 -0.33514111790E+01  0.44953574736E+01  0.51100000000E-03 0.  1.
         12    1    3    3    0    0  0.12964671662E+01 -0.23383517741E+01 -0.11040972702E+02  0.11360096581E+02  0.00000000000E+00 0. -1.
</event>
<event>
 7    1  0.2497395E-009  0.4778726E+02  0.7816164E-02  0.1312668E+00
        -11   -1    0    0    0    0  0.00000000000E+00  0.00000000000E+00  0.45593999997E+02  0.45594000000E+02  0.51100000000E-03 0.  1.
         11   -1    0    0    0    0 -0.00000000000E+00 -0.00000000000E+00 -0.45593999997E+02  0.45594000000E+02  0.51100000000E-03 0. -1.
    9900012    2    1    2    0    0  0.85100413092E+01 -0.46752339598E+01 -0.42300657688E+02  0.47787259724E+02  0.19999948387E+02 0.  0.
        -12    1    1    2    0    0 -0.85100413092E+01  0.46752339598E+01  0.42300657688E+02  0.43400740276E+02  0.00000000000E+00 0.  1.
         11    1    3    3    0    0 -0.59577755248E+00  0.63776354717E+00 -0.16265350728E+02  0.16288748503E+02  0.51100000000E-03 0. -1.
        -11    1    3    3    0    0  0.66011261750E+01 -0.88019015349E+01 -0.98974313943E+01  0.14798901509E+02  0.51100000000E-03 0.  1.
        -12    1    3    3    0    0  0.25046926866E+01  0.34889040279E+01 -0.16137875565E+02  0.16699609712E+02  0.00000000000E+00 0.  1.
</event>
<event>
 7    1  0.2497395E-009  0.4778727E+02  0.7816164E-02  0.1312668E+00
        -11   -1    0    0    0    0  0.00000000000E+00  0.00000000000E+00  0.45593999997E+02  0.45594000000E+02  0.51100000000E-03 0.  1.
         11   -1    0    0    0    0 -0.00000000000E+00 -0.00000000000E+00 -0.45593999997E+02  0.45594000000E+02  0.51100000000E-03 0. -1.
    9900012    2    1    2    0    0  0.72403974724E+01 -0.25669140190E+02 -0.34238803486E+02  0.47787265239E+02  0.19999973531E+02 0.  0.
        -12    1    1    2    0    0 -0.72403974724E+01  0.25669140190E+02  0.34238803486E+02  0.43400734761E+02  0.00000000000E+00 0.  1.
         11    1    3    3    0    0  0.62571533558E+01 -0.61074027019E+01 -0.23394619708E+02  0.24975199047E+02  0.51100000000E-03 0. -1.
        -11    1    3    3    0    0 -0.11182125850E+01 -0.10153148625E+02 -0.72390435708E+01  0.12519607760E+02  0.51100000000E-03 0.  1.
         12    1    3    3    0    0  0.21014567016E+01 -0.94085888632E+01 -0.36051402071E+01  0.10292458432E+02  0.00000000000E+00 0. -1.
</event>
<event>
 7    1  0.2497395E-009  0.4778727E+02  0.7816164E-02  0.1312668E+00
        -11   -1    0    0    0    0  0.00000000000E+00  0.00000000000E+00  0.45593999997E+02  0.45594000000E+02  0.51100000000E-03 0.  1.
         11   -1    0    0    0    0 -0.00000000000E+00 -0.00000000000E+00 -0.45593999997E+02  0.45594000000E+02  0.51100000000E-03 0. -1.
    9900012    2    1    2    0    0  0.15700534663E+02  0.32229383884E+02 -0.24461873701E+02  0.47787271444E+02  0.20000001821E+02 0.  0.
        -12    1    1    2    0    0 -0.15700534663E+02 -0.32229383884E+02  0.24461873701E+02  0.43400728556E+02  0.00000000000E+00 0.  1.
         11    1    3    3    0    0  0.14194364939E+01  0.14715252295E+00 -0.73879117182E+01  0.75244729810E+01  0.51100000000E-03 0.  1.
        -11    1    3    3    0    0  0.20182357699E+01  0.76960344319E+01 -0.85216162131E+01  0.11658480379E+02  0.51100000000E-03 0. -1.
         12    1    3    3    0    0  0.12262862399E+02  0.24386196930E+02 -0.85523457692E+01  0.28604318084E+02  0.00000000000E+00 0. -1.
</event>
<event>
 7    1  0.2497395E-009  0.4778727E+02  0.7816164E-02  0.1312668E+00
        -11   -1    0    0    0    0  0.00000000000E+00  0.00000000000E+00  0.45593999997E+02  0.45594000000E+02  0.51100000000E-03 0. -1.
         11   -1    0    0    0    0 -0.00000000000E+00 -0.00000000000E+00 -0.45593999997E+02  0.45594000000E+02  0.51100000000E-03 0.  1.
    9900012    2    1    2    0    0  0.39670430192E+02 -0.12981678892E+02  0.11889343938E+02  0.47787268235E+02  0.19999987191E+02 0.  0.
        -12    1    1    2    0    0 -0.39670430192E+02  0.12981678892E+02 -0.11889343938E+02  0.43400731765E+02  0.00000000000E+00 0.  1.
         11    1    3    3    0    0  0.82750877057E+01 -0.10685362057E+02  0.44048598141E+01  0.14214669503E+02  0.51100000000E-03 0. -1.
        -11    1    3    3    0    0  0.24083983633E+02 -0.42919326815E+01  0.27048484274E+01  0.24612500057E+02  0.51100000000E-03 0.  1.
        -12    1    3    3    0    0  0.73113588527E+01  0.19956158464E+01  0.47796356961E+01  0.89600986750E+01  0.00000000000E+00 0.  1.
</event>
<event>
 7    1  0.2497395E-009  0.4778725E+02  0.7816164E-02  0.1312668E+00
        -11   -1    0    0    0    0  0.00000000000E+00  0.00000000000E+00  0.45593999997E+02  0.45594000000E+02  0.51100000000E-03 0.  1.
         11   -1    0    0    0    0 -0.00000000000E+00 -0.00000000000E+00 -0.45593999997E+02  0.45594000000E+02  0.51100000000E-03 0. -1.
    9900012    2    1    2    0    0  0.33860676087E+02 -0.76399048665E+01 -0.26052085766E+02  0.47787254566E+02  0.19999924869E+02 0.  0.
        -12    1    1    2    0    0 -0.33860676087E+02  0.76399048665E+01  0.26052085766E+02  0.43400745434E+02  0.00000000000E+00 0.  1.
         11    1    3    3    0    0 -0.88904562780E+00 -0.22409873472E+01 -0.45959751192E+01  0.51899339086E+01  0.51100000000E-03 0. -1.
        -11    1    3    3    0    0  0.70878209203E+01 -0.36033079885E+01 -0.72819600637E+00  0.79844413420E+01  0.51100000000E-03 0.  1.
         12    1    3    3    0    0  0.27661900795E+02 -0.17956095308E+01 -0.20727914641E+02  0.34612879316E+02  0.00000000000E+00 0. -1.
</event>
<event>
 7    1  0.2497395E-009  0.4778727E+02  0.7816164E-02  0.1312668E+00
        -11   -1    0    0    0    0  0.00000000000E+00  0.00000000000E+00  0.45593999997E+02  0.45594000000E+02  0.51100000000E-03 0.  1.
         11   -1    0    0    0    0 -0.00000000000E+00 -0.00000000000E+00 -0.45593999997E+02  0.45594000000E+02  0.51100000000E-03 0. -1.
    9900012    2    1    2    0    0 -0.33795090613E+02 -0.87247366818E+01 -0.25795236730E+02  0.47787269388E+02  0.19999992449E+02 0.  0.
        -12    1    1    2    0    0  0.33795090613E+02  0.87247366818E+01  0.25795236730E+02  0.43400730612E+02  0.00000000000E+00 0.  1.
         11    1    3    3    0    0 -0.10282730765E+02  0.26778031051E+01 -0.52041333132E+01  0.11831660292E+02  0.51100000000E-03 0. -1.
        -11    1    3    3    0    0 -0.13066477083E+02 -0.10022622831E+02 -0.19251924521E+02  0.25334213818E+02  0.51100000000E-03 0.  1.
        -12    1    3    3    0    0 -0.10445882765E+02 -0.13799169557E+01 -0.13391788957E+01  0.10621395278E+02  0.00000000000E+00 0.  1.
</event>
<event>
 7    1  0.2497395E-009  0.4778727E+02  0.7816164E-02  0.1312668E+00
        -11   -1    0    0    0    0  0.00000000000E+00  0.00000000000E+00  0.45593999997E+02  0.45594000000E+02  0.51100000000E-03 0.  1.
         11   -1    0    0    0    0 -0.00000000000E+00 -0.00000000000E+00 -0.45593999997E+02  0.45594000000E+02  0.51100000000E-03 0. -1.
    9900012    2    1    2    0    0  0.37540261656E+02 -0.19251135750E+02  0.10185570863E+02  0.47787270436E+02  0.19999997227E+02 0.  0.
        -12    1    1    2    0    0 -0.37540261656E+02  0.19251135750E+02 -0.10185570863E+02  0.43400729564E+02  0.00000000000E+00 0.  1.
         11    1    3    3    0    0  0.25176752275E+02 -0.17819499947E+02  0.14823584363E+02  0.34221953292E+02  0.51100000000E-03 0. -1.
        -11    1    3    3    0    0  0.93057232172E+01 -0.21237285223E+01 -0.40822629798E+01  0.10381309105E+02  0.51100000000E-03 0.  1.
         12    1    3    3    0    0  0.30577861636E+01  0.69209271973E+00 -0.55575051990E+00  0.31840080395E+01  0.00000000000E+00 0. -1.
</event>
<event>
 7    1  0.2497395E-009  0.4778727E+02  0.7816164E-02  0.1312668E+00
        -11   -1    0    0    0    0  0.00000000000E+00  0.00000000000E+00  0.45593999997E+02  0.45594000000E+02  0.51100000000E-03 0. -1.
         11   -1    0    0    0    0 -0.00000000000E+00 -0.00000000000E+00 -0.45593999997E+02  0.45594000000E+02  0.51100000000E-03 0.  1.
    9900012    2    1    2    0    0 -0.30789856064E+02 -0.15558869948E+02  0.26334950715E+02  0.47787270747E+02  0.19999998645E+02 0.  0.
        -12    1    1    2    0    0  0.30789856064E+02  0.15558869948E+02 -0.26334950715E+02  0.43400729253E+02  0.00000000000E+00 0.  1.
         11    1    3    3    0    0 -0.88432228996E+01 -0.14665676186E+02  0.91950240907E+01  0.19437929868E+02  0.51100000000E-03 0. -1.
        -11    1    3    3    0    0 -0.16181430691E+02 -0.46221964613E+00  0.15320953619E+02  0.22288651064E+02  0.51100000000E-03 0.  1.
         12    1    3    3    0    0 -0.57652024733E+01 -0.43097411602E+00  0.18189730062E+01  0.60606898158E+01  0.00000000000E+00 0. -1.
</event>
<event>
 7    1  0.2497395E-009  0.4778727E+02  0.7816164E-02  0.1312668E+00
        -11   -1    0    0    0    0  0.00000000000E+00  0.00000000000E+00  0.45593999997E+02  0.45594000000E+02  0.51100000000E-03 0. -1.
         11   -1    0    0    0    0 -0.00000000000E+00 -0.00000000000E+00 -0.45593999997E+02  0.45594000000E+02  0.51100000000E-03 0.  1.
    9900012    2    1    2    0    0 -0.94786479606E+01  0.21917655335E+02  0.36240789040E+02  0.47787272209E+02  0.20000005309E+02 0.  0.
        -12    1    1    2    0    0  0.94786479606E+01 -0.21917655335E+02 -0.36240789040E+02  0.43400727791E+02  0.00000000000E+00 0.  1.
         11    1    3    3    0    0  0.21095436683E+01 -0.80747738163E+00 -0.22389887370E+00  0.22698733835E+01  0.51100000000E-03 0.  1.
        -11    1    3    3    0    0 -0.44518703871E+01  0.16786526783E+02  0.28029480731E+02  0.32973601892E+02  0.51100000000E-03 0. -1.
        -12    1    3    3    0    0 -0.71363212419E+01  0.59386059339E+01  0.84352071825E+01  0.12543796934E+02  0.00000000000E+00 0.  1.
</event>
<event>
 7    1  0.2497395E-009  0.4778728E+02  0.7816164E-02  0.1312668E+00
        -11   -1    0    0    0    0  0.00000000000E+00  0.00000000000E+00  0.45593999997E+02  0.45594000000E+02  0.51100000000E-03 0. -1.
         11   -1    0    0    0    0 -0.00000000000E+00 -0.00000000000E+00 -0.45593999997E+02  0.45594000000E+02  0.51100000000E-03 0.  1.
    9900012    2    1    2    0    0  0.40163954205E+02 -0.46978910739E+01 -0.15761011838E+02  0.47787275443E+02  0.20000020056E+02 0.  0.
        -12    1    1    2    0    0 -0.40163954205E+02  0.46978910739E+01  0.15761011838E+02  0.43400724557E+02  0.00000000000E+00 0.  1.
         11    1    3    3    0    0  0.25605959353E+02  0.28357535637E+01 -0.15382309516E+02  0.30005367836E+02  0.51100000000E-03 0. -1.
        -11    1    3    3    0    0  0.21722126590E+00 -0.14686518886E+00 -0.15839797424E+01  0.16055362181E+01  0.51100000000E-03 0.  1.
         12    1    3    3    0    0  0.14340773586E+02 -0.73867794488E+01  0.12052774205E+01  0.16176371389E+02  0.00000000000E+00 0. -1.
</event>
<event>
 7    1  0.2497395E-009  0.4778727E+02  0.7816164E-02  0.1312668E+00
        -11   -1    0    0    0    0  0.00000000000E+00  0.00000000000E+00  0.45593999997E+02  0.45594000000E+02  0.51100000000E-03 0.  1.
         11   -1    0    0    0    0 -0.00000000000E+00 -0.00000000000E+00 -0.45593999997E+02  0.45594000000E+02  0.51100000000E-03 0. -1.
    9900012    2    1    2    0    0 -0.84686397555E+01 -0.36999792630E+02 -0.21045694697E+02  0.47787265222E+02  0.19999973453E+02 0.  0.
        -12    1    1    2    0    0  0.84686397555E+01  0.36999792630E+02  0.21045694697E+02  0.43400734778E+02  0.00000000000E+00 0.  1.
         11    1    3    3    0    0 -0.70291984065E+00  0.15158253336E+01 -0.19102276181E+01  0.25378716592E+01  0.51100000000E-03 0. -1.
        -11    1    3    3    0    0 -0.47843918161E+00 -0.26913594744E+02 -0.96927222783E+01  0.28609777201E+02  0.51100000000E-03 0.  1.
        -12    1    3    3    0    0 -0.72872807333E+01 -0.11602023220E+02 -0.94427448006E+01  0.16639616362E+02  0.00000000000E+00 0.  1.
</event>
<event>
 7    1  0.2497395E-009  0.4778726E+02  0.7816164E-02  0.1312668E+00
        -11   -1    0    0    0    0  0.00000000000E+00  0.00000000000E+00  0.45593999997E+02  0.45594000000E+02  0.51100000000E-03 0.  1.
         11   -1    0    0    0    0 -0.00000000000E+00 -0.00000000000E+00 -0.45593999997E+02  0.45594000000E+02  0.51100000000E-03 0. -1.
    9900012    2    1    2    0    0  0.59320838726E+01 -0.35978659207E+02 -0.23536582132E+02  0.47787259962E+02  0.19999949470E+02 0.  0.
        -12    1    1    2    0    0 -0.59320838726E+01  0.35978659207E+02  0.23536582132E+02  0.43400740038E+02  0.00000000000E+00 0.  1.
         11    1    3    3    0    0  0.82165461921E+01 -0.10755462022E+02 -0.11607176583E+01  0.13584508102E+02  0.51100000000E-03 0. -1.
        -11    1    3    3    0    0 -0.34603326770E+01 -0.12088468169E+02 -0.93727282562E+01  0.15682888769E+02  0.51100000000E-03 0.  1.
        -12    1    3    3    0    0  0.11758703575E+01 -0.13134729016E+02 -0.13003136217E+02  0.18519863091E+02  0.00000000000E+00 0.  1.
</event>
<event>
 7    1  0.2497395E-009  0.4778727E+02  0.7816164E-02  0.1312668E+00
        -11   -1    0    0    0    0  0.00000000000E+00  0.00000000000E+00  0.45593999997E+02  0.45594000000E+02  0.51100000000E-03 0. -1.
         11   -1    0    0    0    0 -0.00000000000E+00 -0.00000000000E+00 -0.45593999997E+02  0.45594000000E+02  0.51100000000E-03 0.  1.
    9900012    2    1    2    0    0  0.94909507612E+01  0.22104990857E+02  0.36123606539E+02  0.47787265945E+02  0.19999976749E+02 0.  0.
        -12    1    1    2    0    0 -0.94909507612E+01 -0.22104990857E+02 -0.36123606539E+02  0.43400734055E+02  0.00000000000E+00 0.  1.
         11    1    3    3    0    0  0.13579803354E+01 -0.19445421046E+01  0.70903533913E+01  0.74765276742E+01  0.51100000000E-03 0. -1.
        -11    1    3    3    0    0  0.78531428926E+01  0.25320604446E+02  0.28441897966E+02  0.38881183404E+02  0.51100000000E-03 0.  1.
        -12    1    3    3    0    0  0.27982753316E+00 -0.12710714836E+01  0.59135518196E+00  0.14295548664E+01  0.00000000000E+00 0.  1.
</event>
<event>
 7    1  0.2497395E-009  0.4778727E+02  0.7816164E-02  0.1312668E+00
        -11   -1    0    0    0    0  0.00000000000E+00  0.00000000000E+00  0.45593999997E+02  0.45594000000E+02  0.51100000000E-03 0.  1.
         11   -1    0    0    0    0 -0.00000000000E+00 -0.00000000000E+00 -0.45593999997E+02  0.45594000000E+02  0.51100000000E-03 0. -1.
    9900012    2    1    2    0    0 -0.26509206061E+02  0.15559285595E+02 -0.30639748458E+02  0.47787267751E+02  0.19999984982E+02 0.  0.
        -12    1    1    2    0    0  0.26509206061E+02 -0.15559285595E+02  0.30639748458E+02  0.43400732249E+02  0.00000000000E+00 0.  1.
         11    1    3    3    0    0 -0.11937025913E+02 -0.18078019814E+01 -0.11980697668E+02  0.17008758113E+02  0.51100000000E-03 0. -1.
        -11    1    3    3    0    0 -0.13737481491E+02  0.99671344989E+01 -0.11972801988E+02  0.20770415392E+02  0.51100000000E-03 0.  1.
         12    1    3    3    0    0 -0.83469865651E+00  0.73999530779E+01 -0.66862488020E+01  0.10008094246E+02  0.00000000000E+00 0. -1.
</event>
<event>
 7    1  0.2497395E-009  0.4778727E+02  0.7816164E-02  0.1312668E+00
        -11   -1    0    0    0    0  0.00000000000E+00  0.00000000000E+00  0.45593999997E+02  0.45594000000E+02  0.51100000000E-03 0. -1.
         11   -1    0    0    0    0 -0.00000000000E+00 -0.00000000000E+00 -0.45593999997E+02  0.45594000000E+02  0.51100000000E-03 0.  1.
    9900012    2    1    2    0    0 -0.40923873978E+02 -0.93907771743E+01 -0.10985124535E+02  0.47787272836E+02  0.20000008168E+02 0.  0.
        -12    1    1    2    0    0  0.40923873978E+02  0.93907771743E+01  0.10985124535E+02  0.43400727164E+02  0.00000000000E+00 0.  1.
         11    1    3    3    0    0 -0.74128798766E+01 -0.32457708829E-01 -0.48352051298E+01  0.88504830645E+01  0.51100000000E-03 0. -1.
        -11    1    3    3    0    0 -0.25708865285E+02 -0.10259945545E+02 -0.10909857955E+02  0.29752936623E+02  0.51100000000E-03 0.  1.
        -12    1    3    3    0    0 -0.78021288163E+01  0.90162607930E+00  0.47599385495E+01  0.91838531482E+01  0.00000000000E+00 0.  1.
</event>
<event>
 7    1  0.2497395E-009  0.4778728E+02  0.7816164E-02  0.1312668E+00
        -11   -1    0    0    0    0  0.00000000000E+00  0.00000000000E+00  0.45593999997E+02  0.45594000000E+02  0.51100000000E-03 0.  1.
         11   -1    0    0    0    0 -0.00000000000E+00 -0.00000000000E+00 -0.45593999997E+02  0.45594000000E+02  0.51100000000E-03 0. -1.
    9900012    2    1    2    0    0 -0.14914272827E+00 -0.27103982688E+02 -0.33896529492E+02  0.47787276127E+02  0.20000023174E+02 0.  0.
        -12    1    1    2    0    0  0.14914272827E+00  0.27103982688E+02  0.33896529492E+02  0.43400723873E+02  0.00000000000E+00 0.  1.
         11    1    3    3    0    0  0.90101735718E+00 -0.15696344595E+02 -0.21118828785E+02  0.26328539562E+02  0.51100000000E-03 0. -1.
        -11    1    3    3    0    0  0.33710807783E+01 -0.15497947291E+01  0.11013901863E+01  0.38702855088E+01  0.51100000000E-03 0.  1.
        -12    1    3    3    0    0 -0.44212408638E+01 -0.98578433641E+01 -0.13879090893E+02  0.17588451057E+02  0.00000000000E+00 0.  1.
</event>
<event>
 7    1  0.2497395E-009  0.4778727E+02  0.7816164E-02  0.1312668E+00
        -11   -1    0    0    0    0  0.00000000000E+00  0.00000000000E+00  0.45593999997E+02  0.45594000000E+02  0.51100000000E-03 0.  1.
         11   -1    0    0    0    0 -0.00000000000E+00 -0.00000000000E+00 -0.45593999997E+02  0.45594000000E+02  0.51100000000E-03 0. -1.
    9900012    2    1    2    0    0 -0.40797229411E+02  0.12829089885E+02  0.73907696101E+01  0.47787274772E+02  0.20000016996E+02 0.  0.
        -12    1    1    2    0    0  0.40797229411E+02 -0.12829089885E+02 -0.73907696101E+01  0.43400725228E+02  0.00000000000E+00 0.  1.
         11    1    3    3    0    0 -0.93359418845E+01  0.73458240335E+01  0.71532104111E+00  0.11900950637E+02  0.51100000000E-03 0. -1.
        -11    1    3    3    0    0 -0.32049861807E+02  0.75749696211E+01  0.70561114311E+01  0.33680298624E+02  0.51100000000E-03 0.  1.
        -12    1    3    3    0    0  0.58857428080E+00 -0.20917037695E+01 -0.38066286210E+00  0.22060255117E+01  0.00000000000E+00 0.  1.
</event>
<event>
 7    1  0.2497395E-009  0.4778727E+02  0.7816164E-02  0.1312668E+00
        -11   -1    0    0    0    0  0.00000000000E+00  0.00000000000E+00  0.45593999997E+02  0.45594000000E+02  0.51100000000E-03 0.  1.
         11   -1    0    0    0    0 -0.00000000000E+00 -0.00000000000E+00 -0.45593999997E+02  0.45594000000E+02  0.51100000000E-03 0. -1.
    9900012    2    1    2    0    0 -0.28835091286E+02  0.29154999841E+02 -0.14217827655E+02  0.47787272720E+02  0.20000007641E+02 0.  0.
        -12    1    1    2    0    0  0.28835091286E+02 -0.29154999841E+02  0.14217827655E+02  0.43400727280E+02  0.00000000000E+00 0.  1.
         11    1    3    3    0    0 -0.16206867929E+02  0.19126866728E+02 -0.12824210063E+02  0.28159544792E+02  0.51100000000E-03 0. -1.
        -11    1    3    3    0    0 -0.62052749765E+01 -0.95336926370E+00  0.17612287727E+01  0.65204507159E+01  0.51100000000E-03 0.  1.
         12    1    3    3    0    0 -0.64229483804E+01  0.10981502376E+02 -0.31548463648E+01  0.13107277212E+02  0.00000000000E+00 0. -1.
</event>
<event>
 7    1  0.2497395E-009  0.4778727E+02  0.7816164E-02  0.1312668E+00
        -11   -1    0    0    0    0  0.00000000000E+00  0.00000000000E+00  0.45593999997E+02  0.45594000000E+02  0.51100000000E-03 0.  1.
         11   -1    0    0    0    0 -0.00000000000E+00 -0.00000000000E+00 -0.45593999997E+02  0.45594000000E+02  0.51100000000E-03 0. -1.
    9900012    2    1    2    0    0 -0.19154273382E+02  0.32806917677E+02 -0.20986743576E+02  0.47787269105E+02  0.19999991159E+02 0.  0.
        -12    1    1    2    0    0  0.19154273382E+02 -0.32806917677E+02  0.20986743576E+02  0.43400730895E+02  0.00000000000E+00 0.  1.
         11    1    3    3    0    0 -0.92239890079E+01  0.10289544599E+02  0.13231624951E+01  0.13881911270E+02  0.51100000000E-03 0.  1.
        -11    1    3    3    0    0 -0.10785452194E+02  0.20478316961E+02 -0.19103720105E+02  0.30010657551E+02  0.51100000000E-03 0. -1.
        -12    1    3    3    0    0  0.85516781950E+00  0.20390561179E+01 -0.32061859663E+01  0.38947002840E+01  0.00000000000E+00 0.  1.
</event>
<event>
 7    1  0.2497395E-009  0.4778727E+02  0.7816164E-02  0.1312668E+00
        -11   -1    0    0    0    0  0.00000000000E+00  0.00000000000E+00  0.45593999997E+02  0.45594000000E+02  0.51100000000E-03 0. -1.
         11   -1    0    0    0    0 -0.00000000000E+00 -0.00000000000E+00 -0.45593999997E+02  0.45594000000E+02  0.51100000000E-03 0.  1.
    9900012    2    1    2    0    0 -0.21920573699E+01  0.17352996562E+02  0.39720164416E+02  0.47787273434E+02  0.20000010896E+02 0.  0.
        -12    1    1    2    0    0  0.21920573699E+01 -0.17352996562E+02 -0.39720164416E+02  0.43400726566E+02  0.00000000000E+00 0.  1.
         11    1    3    3    0    0  0.19292966184E+01 -0.31775881609E+01  0.81588217714E+01  0.89658030828E+01  0.51100000000E-03 0. -1.
        -11    1    3    3    0    0 -0.64889738748E+00 -0.77928889428E+00  0.14031783773E+01  0.17312622043E+01  0.51100000000E-03 0.  1.
         12    1    3    3    0    0 -0.34724566008E+01  0.21309873617E+02  0.30158164267E+02  0.37090208147E+02  0.00000000000E+00 0. -1.
</event>
<event>
 7    1  0.2497395E-009  0.4778726E+02  0.7816164E-02  0.1312668E+00
        -11   -1    0    0    0    0  0.00000000000E+00  0.00000000000E+00  0.45593999997E+02  0.45594000000E+02  0.51100000000E-03 0.  1.
         11   -1    0    0    0    0 -0.00000000000E+00 -0.00000000000E+00 -0.45593999997E+02  0.45594000000E+02  0.51100000000E-03 0. -1.
    9900012    2    1    2    0    0  0.49996351913E+01 -0.20820158997E+02 -0.37751138221E+02  0.47787264872E+02  0.19999971857E+02 0.  0.
        -12    1    1    2    0    0 -0.49996351913E+01  0.20820158997E+02  0.37751138221E+02  0.43400735128E+02  0.00000000000E+00 0.  1.
         11    1    3    3    0    0  0.28936837223E+01 -0.10766235679E+02 -0.70363174243E+01  0.13183133138E+02  0.51100000000E-03 0. -1.
        -11    1    3    3    0    0  0.46261227615E+01 -0.12890402968E+01 -0.19832061518E+02  0.20405227296E+02  0.51100000000E-03 0.  1.
        -12    1    3    3    0    0 -0.25201712926E+01 -0.87648830214E+01 -0.10882759279E+02  0.14198904438E+02  0.00000000000E+00 0.  1.
</event>
<event>
 7    1  0.2497395E-009  0.4778727E+02  0.7816164E-02  0.1312668E+00
        -11   -1    0    0    0    0  0.00000000000E+00  0.00000000000E+00  0.45593999997E+02  0.45594000000E+02  0.51100000000E-03 0. -1.
         11   -1    0    0    0    0 -0.00000000000E+00 -0.00000000000E+00 -0.45593999997E+02  0.45594000000E+02  0.51100000000E-03 0.  1.
    9900012    2    1    2    0    0 -0.25388193804E+02 -0.35196544779E+02  0.51587323923E+00  0.47787271040E+02  0.19999999981E+02 0.  0.
        -12    1    1    2    0    0  0.25388193804E+02  0.35196544779E+02 -0.51587323923E+00  0.43400728960E+02  0.00000000000E+00 0.  1.
         11    1    3    3    0    0 -0.19753354502E+02 -0.18426173624E+02 -0.40826344413E+00  0.27016394426E+02  0.51100000000E-03 0. -1.
        -11    1    3    3    0    0  0.31688856212E+01 -0.55053002317E+01  0.12315419356E+01  0.64704607658E+01  0.51100000000E-03 0.  1.
        -12    1    3    3    0    0 -0.88037249237E+01 -0.11265070924E+02 -0.30740525224E+00  0.14300415848E+02  0.00000000000E+00 0.  1.
</event>
<event>
 7    1  0.2497395E-009  0.4778728E+02  0.7816164E-02  0.1312668E+00
        -11   -1    0    0    0    0  0.00000000000E+00  0.00000000000E+00  0.45593999997E+02  0.45594000000E+02  0.51100000000E-03 0.  1.
         11   -1    0    0    0    0 -0.00000000000E+00 -0.00000000000E+00 -0.45593999997E+02  0.45594000000E+02  0.51100000000E-03 0. -1.
    9900012    2    1    2    0    0 -0.24149845884E+01 -0.42769092661E+02 -0.69710424095E+01  0.47787275699E+02  0.20000021221E+02 0.  0.
        -12    1    1    2    0    0  0.24149845884E+01  0.42769092661E+02  0.69710424095E+01  0.43400724301E+02  0.00000000000E+00 0.  1.
         11    1    3    3    0    0 -0.19841532825E+01 -0.30894835541E+02 -0.13577991739E+02  0.33805171014E+02  0.51100000000E-03 0. -1.
        -11    1    3    3    0    0  0.63288414363E+00 -0.95069283282E+01  0.40965319196E+01  0.10371297055E+02  0.51100000000E-03 0.  1.
         12    1    3    3    0    0 -0.10637154495E+01 -0.23673287916E+01  0.25104174099E+01  0.36108076295E+01  0.00000000000E+00 0. -1.
</event>
<event>
 7    1  0.2497395E-009  0.4778727E+02  0.7816164E-02  0.1312668E+00
        -11   -1    0    0    0    0  0.00000000000E+00  0.00000000000E+00  0.45593999997E+02  0.45594000000E+02  0.51100000000E-03 0.  1.
         11   -1    0    0    0    0 -0.00000000000E+00 -0.00000000000E+00 -0.45593999997E+02  0.45594000000E+02  0.51100000000E-03 0. -1.
    9900012    2    1    2    0    0 -0.24304554970E+01  0.14552276360E+02 -0.40816019412E+02  0.47787270722E+02  0.19999998531E+02 0.  0.
        -12    1    1    2    0    0  0.24304554970E+01 -0.14552276360E+02  0.40816019412E+02  0.43400729278E+02  0.00000000000E+00 0.  1.
         11    1    3    3    0    0 -0.57771490526E+01  0.22526203854E+01 -0.22496446790E+02  0.23335378038E+02  0.51100000000E-03 0. -1.
        -11    1    3    3    0    0  0.69971799729E+00  0.11579835440E+02 -0.88450210408E+01  0.14588234697E+02  0.51100000000E-03 0.  1.
         12    1    3    3    0    0  0.26469755583E+01  0.71982053451E+00 -0.94745515819E+01  0.98636579871E+01  0.00000000000E+00 0. -1.
</event>
<event>
 7    1  0.2497395E-009  0.4778727E+02  0.7816164E-02  0.1312668E+00
        -11   -1    0    0    0    0  0.00000000000E+00  0.00000000000E+00  0.45593999997E+02  0.45594000000E+02  0.51100000000E-03 0.  1.
         11   -1    0    0    0    0 -0.00000000000E+00 -0.00000000000E+00 -0.45593999997E+02  0.45594000000E+02  0.51100000000E-03 0. -1.
    9900012    2    1    2    0    0  0.17299836433E+02  0.39633306353E+02  0.36796698391E+01  0.47787270937E+02  0.19999999512E+02 0.  0.
        -12    1    1    2    0    0 -0.17299836433E+02 -0.39633306353E+02 -0.36796698391E+01  0.43400729063E+02  0.00000000000E+00 0.  1.
         11    1    3    3    0    0  0.61075273011E+01  0.13898095412E+02  0.13251880886E+01  0.15238604580E+02  0.51100000000E-03 0. -1.
        -11    1    3    3    0    0 -0.69671150897E+00  0.34110944500E+01  0.60572233045E+01  0.69864817108E+01  0.51100000000E-03 0.  1.
        -12    1    3    3    0    0  0.11889020641E+02  0.22324116491E+02 -0.37027415540E+01  0.25562184647E+02  0.00000000000E+00 0.  1.
</event>
<event>
 7    1  0.2497395E-009  0.4778721E+02  0.7816164E-02  0.1312668E+00
        -11   -1    0    0    0    0  0.00000000000E+00  0.00000000000E+00  0.45593999997E+02  0.45594000000E+02  0.51100000000E-03 0. -1.
         11   -1    0    0    0    0 -0.00000000000E+00 -0.00000000000E+00 -0.45593999997E+02  0.45594000000E+02  0.51100000000E-03 0.  1.
    9900012    2    1    2    0    0  0.28374029229E+02 -0.20508289577E+02 -0.25650592603E+02  0.47787212254E+02  0.19999731951E+02 0.  0.
        -12    1    1    2    0    0 -0.28374029229E+02  0.20508289577E+02  0.25650592603E+02  0.43400787746E+02  0.00000000000E+00 0.  1.
         11    1    3    3    0    0  0.20560363061E+02 -0.13875954041E+02 -0.59511021703E+01  0.25508552430E+02  0.51100000000E-03 0. -1.
        -11    1    3    3    0    0  0.49785181149E+01 -0.30568306360E+01 -0.11071606148E+02  0.12518399223E+02  0.51100000000E-03 0.  1.
         12    1    3    3    0    0  0.28351480523E+01 -0.35755049004E+01 -0.86278842854E+01  0.97602606018E+01  0.00000000000E+00 0. -1.
</event>
<event>
 7    1  0.2497395E-009  0.4778727E+02  0.7816164E-02  0.1312668E+00
        -11   -1    0    0    0    0  0.00000000000E+00  0.00000000000E+00  0.45593999997E+02  0.45594000000E+02  0.51100000000E-03 0.  1.
         11   -1    0    0    0    0 -0.00000000000E+00 -0.00000000000E+00 -0.45593999997E+02  0.45594000000E+02  0.51100000000E-03 0. -1.
    9900012    2    1    2    0    0 -0.45897907432E+01  0.26880477607E+02 -0.33763837527E+02  0.47787274430E+02  0.20000015435E+02 0.  0.
        -12    1    1    2    0    0  0.45897907432E+01 -0.26880477607E+02  0.33763837527E+02  0.43400725570E+02  0.00000000000E+00 0.  1.
         11    1    3    3    0    0  0.18843538827E+01  0.62046622673E+01 -0.15110310649E+02  0.16442935005E+02  0.51100000000E-03 0. -1.
        -11    1    3    3    0    0 -0.90270515397E+01  0.20059919802E+02 -0.14226450080E+02  0.26196944938E+02  0.51100000000E-03 0.  1.
        -12    1    3    3    0    0  0.25529069138E+01  0.61589553844E+00 -0.44270767980E+01  0.51473944865E+01  0.00000000000E+00 0.  1.
</event>
<event>
 7    1  0.2497395E-009  0.4778727E+02  0.7816164E-02  0.1312668E+00
        -11   -1    0    0    0    0  0.00000000000E+00  0.00000000000E+00  0.45593999997E+02  0.45594000000E+02  0.51100000000E-03 0.  1.
         11   -1    0    0    0    0 -0.00000000000E+00 -0.00000000000E+00 -0.45593999997E+02  0.45594000000E+02  0.51100000000E-03 0. -1.
    9900012    2    1    2    0    0  0.16355326268E+02 -0.35633304803E+01 -0.40042838435E+02  0.47787274991E+02  0.20000017992E+02 0.  0.
        -12    1    1    2    0    0 -0.16355326268E+02  0.35633304803E+01  0.40042838435E+02  0.43400725009E+02  0.00000000000E+00 0.  1.
         11    1    3    3    0    0  0.51866192386E+01 -0.30221029963E+01 -0.52860563857E+01  0.79985322416E+01  0.51100000000E-03 0. -1.
        -11    1    3    3    0    0  0.13160504031E+02 -0.25951443620E+01 -0.34378472914E+02  0.36902751128E+02  0.51100000000E-03 0.  1.
        -12    1    3    3    0    0 -0.19917970014E+01  0.20539168780E+01 -0.37830913442E+00  0.28859916212E+01  0.00000000000E+00 0.  1.
</event>
<event>
 7    1  0.2497395E-009  0.4778725E+02  0.7816164E-02  0.1312668E+00
        -11   -1    0    0    0    0  0.00000000000E+00  0.00000000000E+00  0.45593999997E+02  0.45594000000E+02  0.51100000000E-03 0. -1.
         11   -1    0    0    0    0 -0.00000000000E+00 -0.00000000000E+00 -0.45593999997E+02  0.45594000000E+02  0.51100000000E-03 0.  1.
    9900012    2    1    2    0    0  0.10614389752E+02 -0.33885688387E+02  0.24954356839E+02  0.47787250323E+02  0.19999905524E+02 0.  0.
        -12    1    1    2    0    0 -0.10614389752E+02  0.33885688387E+02 -0.24954356839E+02  0.43400749677E+02  0.00000000000E+00 0.  1.
         11    1    3    3    0    0  0.47472786550E+01 -0.25332448408E+02  0.16049331986E+02  0.30361993584E+02  0.51100000000E-03 0. -1.
        -11    1    3    3    0    0 -0.10542661315E+01  0.18008858294E+01  0.29677826532E+01  0.36280023407E+01  0.51100000000E-03 0.  1.
         12    1    3    3    0    0  0.69213772281E+01 -0.10354125809E+02  0.59372421998E+01  0.13797254398E+02  0.00000000000E+00 0. -1.
</event>
<event>
 7    1  0.2497395E-009  0.4778727E+02  0.7816164E-02  0.1312668E+00
        -11   -1    0    0    0    0  0.00000000000E+00  0.00000000000E+00  0.45593999997E+02  0.45594000000E+02  0.51100000000E-03 0.  1.
         11   -1    0    0    0    0 -0.00000000000E+00 -0.00000000000E+00 -0.45593999997E+02  0.45594000000E+02  0.51100000000E-03 0. -1.
    9900012    2    1    2    0    0  0.36044649799E+02 -0.46585599926E+01  0.23721392741E+02  0.47787269201E+02  0.19999991593E+02 0.  0.
        -12    1    1    2    0    0 -0.36044649799E+02  0.46585599926E+01 -0.23721392741E+02  0.43400730799E+02  0.00000000000E+00 0.  1.
         11    1    3    3    0    0  0.17340833087E+02  0.15846814684E+01  0.65456292486E+01  0.18602714050E+02  0.51100000000E-03 0. -1.
        -11    1    3    3    0    0  0.14918094525E+02 -0.10109809907E+02  0.11699274442E+02  0.21485595718E+02  0.51100000000E-03 0.  1.
        -12    1    3    3    0    0  0.37857221871E+01  0.38665684462E+01  0.54764890506E+01  0.76989594328E+01  0.00000000000E+00 0.  1.
</event>
<event>
 7    1  0.2497395E-009  0.4778727E+02  0.7816164E-02  0.1312668E+00
        -11   -1    0    0    0    0  0.00000000000E+00  0.00000000000E+00  0.45593999997E+02  0.45594000000E+02  0.51100000000E-03 0. -1.
         11   -1    0    0    0    0 -0.00000000000E+00 -0.00000000000E+00 -0.45593999997E+02  0.45594000000E+02  0.51100000000E-03 0.  1.
    9900012    2    1    2    0    0  0.89100645659E+01 -0.18846804219E+02  0.38066155492E+02  0.47787268742E+02  0.19999989501E+02 0.  0.
        -12    1    1    2    0    0 -0.89100645659E+01  0.18846804219E+02 -0.38066155492E+02  0.43400731258E+02  0.00000000000E+00 0.  1.
         11    1    3    3    0    0 -0.10764540466E+01 -0.63835247851E+01  0.11509509134E+02  0.13205186207E+02  0.51100000000E-03 0. -1.
        -11    1    3    3    0    0  0.90008602506E+01 -0.18679261670E+01  0.48179454814E+01  0.10378691263E+02  0.51100000000E-03 0.  1.
        -12    1    3    3    0    0  0.98565836191E+00 -0.10595353267E+02  0.21738700876E+02  0.24203391271E+02  0.00000000000E+00 0.  1.
</event>
<event>
 7    1  0.2497395E-009  0.4778727E+02  0.7816164E-02  0.1312668E+00
        -11   -1    0    0    0    0  0.00000000000E+00  0.00000000000E+00  0.45593999997E+02  0.45594000000E+02  0.51100000000E-03 0. -1.
         11   -1    0    0    0    0 -0.00000000000E+00 -0.00000000000E+00 -0.45593999997E+02  0.45594000000E+02  0.51100000000E-03 0.  1.
    9900012    2    1    2    0    0 -0.13947180833E+02  0.33419977401E+02  0.23920803058E+02  0.47787267729E+02  0.19999984886E+02 0.  0.
        -12    1    1    2    0    0  0.13947180833E+02 -0.33419977401E+02 -0.23920803058E+02  0.43400732271E+02  0.00000000000E+00 0.  1.
         11    1    3    3    0    0 -0.20581101918E+01  0.11363444615E+02  0.15278876784E+02  0.19152226167E+02  0.51100000000E-03 0. -1.
        -11    1    3    3    0    0 -0.80748870825E+01  0.19276121599E+02  0.27401918094E+01  0.21077981799E+02  0.51100000000E-03 0.  1.
        -12    1    3    3    0    0 -0.38141835587E+01  0.27804111866E+01  0.59017344642E+01  0.75570597637E+01  0.00000000000E+00 0.  1.
</event>
<event>
 7    1  0.2497395E-009  0.4778727E+02  0.7816164E-02  0.1312668E+00
        -11   -1    0    0    0    0  0.00000000000E+00  0.00000000000E+00  0.45593999997E+02  0.45594000000E+02  0.51100000000E-03 0.  1.
         11   -1    0    0    0    0 -0.00000000000E+00 -0.00000000000E+00 -0.45593999997E+02  0.45594000000E+02  0.51100000000E-03 0. -1.
    9900012    2    1    2    0    0  0.32652555407E+02 -0.11440611214E+02 -0.26202031746E+02  0.47787269278E+02  0.19999991946E+02 0.  0.
        -12    1    1    2    0    0 -0.32652555407E+02  0.11440611214E+02  0.26202031746E+02  0.43400730722E+02  0.00000000000E+00 0.  1.
         11    1    3    3    0    0  0.17553763686E+02 -0.62908918062E+01 -0.12910626698E+02  0.22680260609E+02  0.51100000000E-03 0. -1.
        -11    1    3    3    0    0 -0.11756183285E+01 -0.43556561948E+01 -0.52964479050E+01  0.69574549954E+01  0.51100000000E-03 0.  1.
        -12    1    3    3    0    0  0.16274410050E+02 -0.79406321336E+00 -0.79949571425E+01  0.18149553674E+02  0.00000000000E+00 0.  1.
</event>
<event>
 7    1  0.2497395E-009  0.4778725E+02  0.7816164E-02  0.1312668E+00
        -11   -1    0    0    0    0  0.00000000000E+00  0.00000000000E+00  0.45593999997E+02  0.45594000000E+02  0.51100000000E-03 0.  1.
         11   -1    0    0    0    0 -0.00000000000E+00 -0.00000000000E+00 -0.45593999997E+02  0.45594000000E+02  0.51100000000E-03 0. -1.
    9900012    2    1    2    0    0  0.10774568595E+02  0.38625100484E+02  0.16602260241E+02  0.47787253913E+02  0.19999921891E+02 0.  0.
        -12    1    1    2    0    0 -0.10774568595E+02 -0.38625100484E+02 -0.16602260241E+02  0.43400746087E+02  0.00000000000E+00 0.  1.
         11    1    3    3    0    0  0.10402799479E+02  0.99199083494E+01  0.38802567399E+01  0.14888895570E+02  0.51100000000E-03 0.  1.
        -11    1    3    3    0    0 -0.20738140742E+01  0.15258933906E+02  0.20019891590E+01  0.15528803226E+02  0.51100000000E-03 0. -1.
        -12    1    3    3    0    0  0.24455831903E+01  0.13446258228E+02  0.10720014342E+02  0.17369555118E+02  0.00000000000E+00 0.  1.
</event>
<event>
 7    1  0.2497395E-009  0.4778726E+02  0.7816164E-02  0.1312668E+00
        -11   -1    0    0    0    0  0.00000000000E+00  0.00000000000E+00  0.45593999997E+02  0.45594000000E+02  0.51100000000E-03 0.  1.
         11   -1    0    0    0    0 -0.00000000000E+00 -0.00000000000E+00 -0.45593999997E+02  0.45594000000E+02  0.51100000000E-03 0. -1.
    9900012    2    1    2    0    0 -0.31548209666E+02 -0.34856338525E+01 -0.29600417463E+02  0.47787263941E+02  0.19999967612E+02 0.  0.
        -12    1    1    2    0    0  0.31548209666E+02  0.34856338525E+01  0.29600417463E+02  0.43400736059E+02  0.00000000000E+00 0.  1.
         11    1    3    3    0    0 -0.24685097805E+02 -0.47421175385E+01 -0.19317665618E+02  0.31701954791E+02  0.51100000000E-03 0. -1.
        -11    1    3    3    0    0 -0.31751319043E+01  0.34932808392E+01  0.22574855625E+00  0.47260381191E+01  0.51100000000E-03 0.  1.
         12    1    3    3    0    0 -0.36879799569E+01 -0.22367971533E+01 -0.10508500401E+02  0.11359271031E+02  0.00000000000E+00 0. -1.
</event>
<event>
 7    1  0.2497395E-009  0.4778727E+02  0.7816164E-02  0.1312668E+00
        -11   -1    0    0    0    0  0.00000000000E+00  0.00000000000E+00  0.45593999997E+02  0.45594000000E+02  0.51100000000E-03 0.  1.
         11   -1    0    0    0    0 -0.00000000000E+00 -0.00000000000E+00 -0.45593999997E+02  0.45594000000E+02  0.51100000000E-03 0. -1.
    9900012    2    1    2    0    0 -0.35720409709E+02  0.16879108814E+02 -0.17965839207E+02  0.47787270023E+02  0.19999995341E+02 0.  0.
        -12    1    1    2    0    0  0.35720409709E+02 -0.16879108814E+02  0.17965839207E+02  0.43400729977E+02  0.00000000000E+00 0.  1.
         11    1    3    3    0    0 -0.29097742628E+02  0.78841093210E+01 -0.19767967570E+02  0.36050108848E+02  0.51100000000E-03 0. -1.
        -11    1    3    3    0    0 -0.56584428733E+01  0.63009516104E+01  0.22905454913E+00  0.84718612592E+01  0.51100000000E-03 0.  1.
         12    1    3    3    0    0 -0.96422420839E+00  0.26940478824E+01  0.15730738139E+01  0.32652999159E+01  0.00000000000E+00 0. -1.
</event>
<event>
 7    1  0.2497395E-009  0.4778727E+02  0.7816164E-02  0.1312668E+00
        -11   -1    0    0    0    0  0.00000000000E+00  0.00000000000E+00  0.45593999997E+02  0.45594000000E+02  0.51100000000E-03 0.  1.
         11   -1    0    0    0    0 -0.00000000000E+00 -0.00000000000E+00 -0.45593999997E+02  0.45594000000E+02  0.51100000000E-03 0. -1.
    9900012    2    1    2    0    0 -0.75129748475E+01 -0.16061001874E+02 -0.39613414053E+02  0.47787272527E+02  0.20000006759E+02 0.  0.
        -12    1    1    2    0    0  0.75129748475E+01  0.16061001874E+02  0.39613414053E+02  0.43400727473E+02  0.00000000000E+00 0.  1.
         11    1    3    3    0    0  0.19883759305E+00  0.34562399465E+01 -0.38328308088E+01  0.51648546181E+01  0.51100000000E-03 0. -1.
        -11    1    3    3    0    0 -0.90895638415E+01 -0.14557262140E+02 -0.21936136333E+02  0.27851896333E+02  0.51100000000E-03 0.  1.
         12    1    3    3    0    0  0.13777514010E+01 -0.49599796806E+01 -0.13844446911E+02  0.14770521576E+02  0.00000000000E+00 0. -1.
</event>
<event>
 7    1  0.2497395E-009  0.4778727E+02  0.7816164E-02  0.1312668E+00
        -11   -1    0    0    0    0  0.00000000000E+00  0.00000000000E+00  0.45593999997E+02  0.45594000000E+02  0.51100000000E-03 0.  1.
         11   -1    0    0    0    0 -0.00000000000E+00 -0.00000000000E+00 -0.45593999997E+02  0.45594000000E+02  0.51100000000E-03 0. -1.
    9900012    2    1    2    0    0  0.35887651252E+02 -0.69230087619E+01 -0.23404524810E+02  0.47787270234E+02  0.19999996304E+02 0.  0.
        -12    1    1    2    0    0 -0.35887651252E+02  0.69230087619E+01  0.23404524810E+02  0.43400729766E+02  0.00000000000E+00 0.  1.
         11    1    3    3    0    0  0.13395667236E+02 -0.48276503580E+01  0.32114829176E+00  0.14242655832E+02  0.51100000000E-03 0. -1.
        -11    1    3    3    0    0  0.24325146369E+01 -0.27100946273E+01 -0.34530406037E+01  0.50184888182E+01  0.51100000000E-03 0.  1.
         12    1    3    3    0    0  0.20059469379E+02  0.61473622335E+00 -0.20272632498E+02  0.28526125583E+02  0.00000000000E+00 0. -1.
</event>
<event>
 7    1  0.2497395E-009  0.4778727E+02  0.7816164E-02  0.1312668E+00
        -11   -1    0    0    0    0  0.00000000000E+00  0.00000000000E+00  0.45593999997E+02  0.45594000000E+02  0.51100000000E-03 0.  1.
         11   -1    0    0    0    0 -0.00000000000E+00 -0.00000000000E+00 -0.45593999997E+02  0.45594000000E+02  0.51100000000E-03 0. -1.
    9900012    2    1    2    0    0 -0.17615779766E+02 -0.15210176001E+02 -0.36632747550E+02  0.47787270239E+02  0.19999996326E+02 0.  0.
        -12    1    1    2    0    0  0.17615779766E+02  0.15210176001E+02  0.36632747550E+02  0.43400729761E+02  0.00000000000E+00 0.  1.
         11    1    3    3    0    0 -0.12354257954E+02 -0.83265288913E+01 -0.34039747172E+02  0.37157276014E+02  0.51100000000E-03 0. -1.
        -11    1    3    3    0    0 -0.48221645399E+01 -0.64215368646E+01 -0.73298752174E-01  0.80308641827E+01  0.51100000000E-03 0.  1.
        -12    1    3    3    0    0 -0.43935727243E+00 -0.46211024482E+00 -0.25197016256E+01  0.25991300416E+01  0.00000000000E+00 0.  1.
</event>
<event>
 7    1  0.2497395E-009  0.4778726E+02  0.7816164E-02  0.1312668E+00
        -11   -1    0    0    0    0  0.00000000000E+00  0.00000000000E+00  0.45593999997E+02  0.45594000000E+02  0.51100000000E-03 0. -1.
         11   -1    0    0    0    0 -0.00000000000E+00 -0.00000000000E+00 -0.45593999997E+02  0.45594000000E+02  0.51100000000E-03 0.  1.
    9900012    2    1    2    0    0 -0.25497751102E+02 -0.10943704611E+02  0.33372503387E+02  0.47787263091E+02  0.19999963738E+02 0.  0.
        -12    1    1    2    0    0  0.25497751102E+02  0.10943704611E+02 -0.33372503387E+02  0.43400736909E+02  0.00000000000E+00 0.  1.
         11    1    3    3    0    0 -0.10912055123E+02 -0.75390022017E+01  0.10386017356E+02  0.16845737087E+02  0.51100000000E-03 0. -1.
        -11    1    3    3    0    0  0.12558991131E+00  0.33685113023E+01  0.78586978444E+00  0.34612472895E+01  0.51100000000E-03 0.  1.
        -12    1    3    3    0    0 -0.14711285891E+02 -0.67732137111E+01  0.22200616246E+02  0.27480278715E+02  0.00000000000E+00 0.  1.
</event>
<event>
 7    1  0.2497395E-009  0.4778727E+02  0.7816164E-02  0.1312668E+00
        -11   -1    0    0    0    0  0.00000000000E+00  0.00000000000E+00  0.45593999997E+02  0.45594000000E+02  0.51100000000E-03 0. -1.
         11   -1    0    0    0    0 -0.00000000000E+00 -0.00000000000E+00 -0.45593999997E+02  0.45594000000E+02  0.51100000000E-03 0.  1.
    9900012    2    1    2    0    0  0.41865897100E+02  0.62945375074E+01  0.95524204603E+01  0.47787270985E+02  0.19999999727E+02 0.  0.
        -12    1    1    2    0    0 -0.41865897100E+02 -0.62945375074E+01 -0.95524204603E+01  0.43400729015E+02  0.00000000000E+00 0.  1.
         11    1    3    3    0    0  0.33738972415E+01  0.32334782122E+01  0.66537470337E+01  0.81308618113E+01  0.51100000000E-03 0.  1.
        -11    1    3    3    0    0  0.23373821481E+02  0.56891678987E+01  0.89010501011E-01  0.24056393851E+02  0.51100000000E-03 0. -1.
        -12    1    3    3    0    0  0.15118178378E+02 -0.26281086035E+01  0.28096629256E+01  0.15600015322E+02  0.00000000000E+00 0.  1.
</event>
<event>
 7    1  0.2497395E-009  0.4778727E+02  0.7816164E-02  0.1312668E+00
        -11   -1    0    0    0    0  0.00000000000E+00  0.00000000000E+00  0.45593999997E+02  0.45594000000E+02  0.51100000000E-03 0.  1.
         11   -1    0    0    0    0 -0.00000000000E+00 -0.00000000000E+00 -0.45593999997E+02  0.45594000000E+02  0.51100000000E-03 0. -1.
    9900012    2    1    2    0    0  0.23028446735E+02  0.78200165486E+01 -0.35946643414E+02  0.47787272004E+02  0.20000004375E+02 0.  0.
        -12    1    1    2    0    0 -0.23028446735E+02 -0.78200165486E+01  0.35946643414E+02  0.43400727996E+02  0.00000000000E+00 0.  1.
         11    1    3    3    0    0  0.12176234119E+02 -0.31156371098E+00 -0.84284988611E+01  0.14812067465E+02  0.51100000000E-03 0. -1.
        -11    1    3    3    0    0  0.67284653763E+01  0.10219921071E+02 -0.24691592276E+02  0.27557100036E+02  0.51100000000E-03 0.  1.
         12    1    3    3    0    0  0.41237472391E+01 -0.20883408110E+01 -0.28265522776E+01  0.54181045036E+01  0.00000000000E+00 0. -1.
</event>
<event>
 7    1  0.2497395E-009  0.4778727E+02  0.7816164E-02  0.1312668E+00
        -11   -1    0    0    0    0  0.00000000000E+00  0.00000000000E+00  0.45593999997E+02  0.45594000000E+02  0.51100000000E-03 0.  1.
         11   -1    0    0    0    0 -0.00000000000E+00 -0.00000000000E+00 -0.45593999997E+02  0.45594000000E+02  0.51100000000E-03 0. -1.
    9900012    2    1    2    0    0 -0.26005513566E+02 -0.20162516281E+01 -0.34688200417E+02  0.47787271266E+02  0.20000001012E+02 0.  0.
        -12    1    1    2    0    0  0.26005513566E+02  0.20162516281E+01  0.34688200417E+02  0.43400728734E+02  0.00000000000E+00 0.  1.
         11    1    3    3    0    0 -0.21968213327E+02 -0.49155853520E+01 -0.17766303580E+02  0.28677637966E+02  0.51100000000E-03 0. -1.
        -11    1    3    3    0    0 -0.11576499070E+01  0.47988991467E+01 -0.67064954228E+01  0.83274646469E+01  0.51100000000E-03 0.  1.
         12    1    3    3    0    0 -0.28796503321E+01 -0.18995654228E+01 -0.10215401414E+02  0.10782168654E+02  0.00000000000E+00 0. -1.
</event>
<event>
 7    1  0.2497395E-009  0.4778727E+02  0.7816164E-02  0.1312668E+00
        -11   -1    0    0    0    0  0.00000000000E+00  0.00000000000E+00  0.45593999997E+02  0.45594000000E+02  0.51100000000E-03 0.  1.
         11   -1    0    0    0    0 -0.00000000000E+00 -0.00000000000E+00 -0.45593999997E+02  0.45594000000E+02  0.51100000000E-03 0. -1.
    9900012    2    1    2    0    0  0.27743904845E+02  0.33103618817E+00 -0.33373484862E+02  0.47787270365E+02  0.19999996903E+02 0.  0.
        -12    1    1    2    0    0 -0.27743904845E+02 -0.33103618817E+00  0.33373484862E+02  0.43400729635E+02  0.00000000000E+00 0.  1.
         11    1    3    3    0    0  0.32436732419E+01  0.53458876727E+01 -0.10405947547E+02  0.12140167862E+02  0.51100000000E-03 0. -1.
        -11    1    3    3    0    0  0.11845927052E+02 -0.68465562748E+01 -0.16116860897E+02  0.21141299061E+02  0.51100000000E-03 0.  1.
         12    1    3    3    0    0  0.12654304551E+02  0.18317047903E+01 -0.68506764176E+01  0.14505803442E+02  0.00000000000E+00 0. -1.
</event>
<event>
 7    1  0.2497395E-009  0.4778727E+02  0.7816164E-02  0.1312668E+00
        -11   -1    0    0    0    0  0.00000000000E+00  0.00000000000E+00  0.45593999997E+02  0.45594000000E+02  0.51100000000E-03 0.  1.
         11   -1    0    0    0    0 -0.00000000000E+00 -0.00000000000E+00 -0.45593999997E+02  0.45594000000E+02  0.51100000000E-03 0. -1.
    9900012    2    1    2    0    0 -0.17021419785E+01 -0.13378640543E+02 -0.41252127874E+02  0.47787270004E+02  0.19999995254E+02 0.  0.
        -12    1    1    2    0    0  0.17021419785E+01  0.13378640543E+02  0.41252127874E+02  0.43400729996E+02  0.00000000000E+00 0.  1.
         11    1    3    3    0    0  0.26304348016E+01 -0.10067430921E+02 -0.29191990577E+02  0.30991041717E+02  0.51100000000E-03 0. -1.
        -11    1    3    3    0    0  0.30765779249E+01 -0.47350466473E+00 -0.61837556571E+01  0.69230320441E+01  0.51100000000E-03 0.  1.
         12    1    3    3    0    0 -0.74091547050E+01 -0.28377049569E+01 -0.58763816398E+01  0.98731962424E+01  0.00000000000E+00 0. -1.
</event>
<event>
 7    1  0.2497395E-009  0.4778726E+02  0.7816164E-02  0.1312668E+00
        -11   -1    0    0    0    0  0.00000000000E+00  0.00000000000E+00  0.45593999997E+02  0.45594000000E+02  0.51100000000E-03 0.  1.
         11   -1    0    0    0    0 -0.00000000000E+00 -0.00000000000E+00 -0.45593999997E+02  0.45594000000E+02  0.51100000000E-03 0. -1.
    9900012    2    1    2    0    0 -0.14925998926E+02 -0.39360497033E+02 -0.10563617406E+02  0.47787260567E+02  0.19999952228E+02 0.  0.
        -12    1    1    2    0    0  0.14925998926E+02  0.39360497033E+02  0.10563617406E+02  0.43400739433E+02  0.00000000000E+00 0.  1.
         11    1    3    3    0    0 -0.54411256748E+00 -0.43316566732E+01 -0.28047629886E+01  0.51890272406E+01  0.51100000000E-03 0. -1.
        -11    1    3    3    0    0 -0.18451942805E+02 -0.28561356692E+02 -0.80791916662E+01  0.34949944601E+02  0.51100000000E-03 0.  1.
        -12    1    3    3    0    0  0.40700564461E+01 -0.64674836682E+01  0.32033724912E+00  0.76482887253E+01  0.00000000000E+00 0.  1.
</event>
<event>
 7    1  0.2497395E-009  0.4778727E+02  0.7816164E-02  0.1312668E+00
        -11   -1    0    0    0    0  0.00000000000E+00  0.00000000000E+00  0.45593999997E+02  0.45594000000E+02  0.51100000000E-03 0.  1.
         11   -1    0    0    0    0 -0.00000000000E+00 -0.00000000000E+00 -0.45593999997E+02  0.45594000000E+02  0.51100000000E-03 0. -1.
    9900012    2    1    2    0    0  0.34932016887E+02 -0.26682739014E+00 -0.25754733657E+02  0.47787270670E+02  0.19999998291E+02 0.  0.
        -12    1    1    2    0    0 -0.34932016887E+02  0.26682739014E+00  0.25754733657E+02  0.43400729330E+02  0.00000000000E+00 0.  1.
         11    1    3    3    0    0  0.12613826872E+02  0.73778469366E+01 -0.13999728804E+02  0.20236938025E+02  0.51100000000E-03 0. -1.
        -11    1    3    3    0    0  0.56270991078E+01 -0.23612089899E+01  0.58605537883E+00  0.61304986283E+01  0.51100000000E-03 0.  1.
         12    1    3    3    0    0  0.16691090907E+02 -0.52834653367E+01 -0.12341060232E+02  0.21419834016E+02  0.00000000000E+00 0. -1.
</event>
<event>
 7    1  0.2497395E-009  0.4778730E+02  0.7816164E-02  0.1312668E+00
        -11   -1    0    0    0    0  0.00000000000E+00  0.00000000000E+00  0.45593999997E+02  0.45594000000E+02  0.51100000000E-03 0.  1.
         11   -1    0    0    0    0 -0.00000000000E+00 -0.00000000000E+00 -0.45593999997E+02  0.45594000000E+02  0.51100000000E-03 0. -1.
    9900012    2    1    2    0    0 -0.19945954370E+01  0.77085163282E+01 -0.42664049449E+02  0.47787300117E+02  0.20000132554E+02 0.  0.
        -12    1    1    2    0    0  0.19945954370E+01 -0.77085163282E+01  0.42664049449E+02  0.43400699883E+02  0.00000000000E+00 0.  1.
         11    1    3    3    0    0  0.29464796184E+01  0.30781177908E+01 -0.30946155146E+01  0.52662317381E+01  0.51100000000E-03 0. -1.
        -11    1    3    3    0    0 -0.23238454802E+01  0.74564232277E+01 -0.37173066620E+02  0.37984673059E+02  0.51100000000E-03 0.  1.
        -12    1    3    3    0    0 -0.26172295751E+01 -0.28260246904E+01 -0.23963673143E+01  0.45363953206E+01  0.00000000000E+00 0.  1.
</event>
<event>
 7    1  0.2497395E-009  0.4778727E+02  0.7816164E-02  0.1312668E+00
        -11   -1    0    0    0    0  0.00000000000E+00  0.00000000000E+00  0.45593999997E+02  0.45594000000E+02  0.51100000000E-03 0. -1.
         11   -1    0    0    0    0 -0.00000000000E+00 -0.00000000000E+00 -0.45593999997E+02  0.45594000000E+02  0.51100000000E-03 0.  1.
    9900012    2    1    2    0    0  0.28151984712E+02  0.69128896132E+01  0.32300166503E+02  0.47787273714E+02  0.20000012171E+02 0.  0.
        -12    1    1    2    0    0 -0.28151984712E+02 -0.69128896132E+01 -0.32300166503E+02  0.43400726286E+02  0.00000000000E+00 0.  1.
         11    1    3    3    0    0  0.10213656458E+02 -0.52089007360E+01  0.40381233612E+01  0.12155569327E+02  0.51100000000E-03 0. -1.
        -11    1    3    3    0    0  0.99502248095E+01  0.58640715781E+01  0.14765784573E+02  0.18746271724E+02  0.51100000000E-03 0.  1.
         12    1    3    3    0    0  0.79881034444E+01  0.62577187712E+01  0.13496258568E+02  0.16885432663E+02  0.00000000000E+00 0. -1.
</event>
<event>
 7    1  0.2497395E-009  0.4778727E+02  0.7816164E-02  0.1312668E+00
        -11   -1    0    0    0    0  0.00000000000E+00  0.00000000000E+00  0.45593999997E+02  0.45594000000E+02  0.51100000000E-03 0.  1.
         11   -1    0    0    0    0 -0.00000000000E+00 -0.00000000000E+00 -0.45593999997E+02  0.45594000000E+02  0.51100000000E-03 0. -1.
    9900012    2    1    2    0    0  0.41645213952E+00  0.42189577824E+02 -0.10172991421E+02  0.47787266552E+02  0.19999979519E+02 0.  0.
        -12    1    1    2    0    0 -0.41645213952E+00 -0.42189577824E+02  0.10172991421E+02  0.43400733448E+02  0.00000000000E+00 0.  1.
         11    1    3    3    0    0 -0.38393987413E+00  0.23775632746E+01  0.35125530437E+01  0.42589019827E+01  0.51100000000E-03 0.  1.
        -11    1    3    3    0    0  0.16109780643E+01  0.32909965232E+02 -0.66004841100E+01  0.33603979715E+02  0.51100000000E-03 0. -1.
        -12    1    3    3    0    0 -0.81058605068E+00  0.69020493168E+01 -0.70850603551E+01  0.99243848551E+01  0.00000000000E+00 0.  1.
</event>
<event>
 7    1  0.2497395E-009  0.4778726E+02  0.7816164E-02  0.1312668E+00
        -11   -1    0    0    0    0  0.00000000000E+00  0.00000000000E+00  0.45593999997E+02  0.45594000000E+02  0.51100000000E-03 0.  1.
         11   -1    0    0    0    0 -0.00000000000E+00 -0.00000000000E+00 -0.45593999997E+02  0.45594000000E+02  0.51100000000E-03 0. -1.
    9900012    2    1    2    0    0  0.18185922905E+02 -0.25763494173E+02 -0.29818427844E+02  0.47787261954E+02  0.19999958551E+02 0.  0.
        -12    1    1    2    0    0 -0.18185922905E+02  0.25763494173E+02  0.29818427844E+02  0.43400738046E+02  0.00000000000E+00 0.  1.
         11    1    3    3    0    0  0.13382885640E+02 -0.98584169472E+01 -0.67908595730E+01  0.17955661691E+02  0.51100000000E-03 0.  1.
        -11    1    3    3    0    0 -0.19039114316E+01 -0.76101023956E+01 -0.66375345167E+01  0.10275962336E+02  0.51100000000E-03 0. -1.
         12    1    3    3    0    0  0.67069486961E+01 -0.82949748300E+01 -0.16390033754E+02  0.19555637927E+02  0.00000000000E+00 0. -1.
</event>
<event>
 7    1  0.2497395E-009  0.4778727E+02  0.7816164E-02  0.1312668E+00
        -11   -1    0    0    0    0  0.00000000000E+00  0.00000000000E+00  0.45593999997E+02  0.45594000000E+02  0.51100000000E-03 0.  1.
         11   -1    0    0    0    0 -0.00000000000E+00 -0.00000000000E+00 -0.45593999997E+02  0.45594000000E+02  0.51100000000E-03 0. -1.
    9900012    2    1    2    0    0 -0.25257433169E+02  0.29245179448E+02 -0.19758664347E+02  0.47787271112E+02  0.20000000309E+02 0.  0.
        -12    1    1    2    0    0  0.25257433169E+02 -0.29245179448E+02  0.19758664347E+02  0.43400728888E+02  0.00000000000E+00 0.  1.
         11    1    3    3    0    0 -0.18770660130E+01  0.12074326717E+02 -0.18067832856E+01  0.12352214724E+02  0.51100000000E-03 0.  1.
        -11    1    3    3    0    0 -0.17374566960E+02  0.17220474325E+02 -0.13346825725E+02  0.27866791530E+02  0.51100000000E-03 0. -1.
         12    1    3    3    0    0 -0.60058001961E+01 -0.49621594204E-01 -0.46050553364E+01  0.75682648572E+01  0.00000000000E+00 0. -1.
</event>
<event>
 7    1  0.2497395E-009  0.4778723E+02  0.7816164E-02  0.1312668E+00
        -11   -1    0    0    0    0  0.00000000000E+00  0.00000000000E+00  0.45593999997E+02  0.45594000000E+02  0.51100000000E-03 0.  1.
         11   -1    0    0    0    0 -0.00000000000E+00 -0.00000000000E+00 -0.45593999997E+02  0.45594000000E+02  0.51100000000E-03 0. -1.
    9900012    2    1    2    0    0 -0.19362967257E+02  0.25974843176E+02 -0.28879225333E+02  0.47787232325E+02  0.19999823460E+02 0.  0.
        -12    1    1    2    0    0  0.19362967257E+02 -0.25974843176E+02  0.28879225333E+02  0.43400767675E+02  0.00000000000E+00 0.  1.
         11    1    3    3    0    0 -0.48483367452E+01  0.23169610979E+01  0.80991938271E+00  0.54342108528E+01  0.51100000000E-03 0.  1.
        -11    1    3    3    0    0 -0.11276328278E+02  0.24372825909E+02 -0.25774523202E+02  0.37222523676E+02  0.51100000000E-03 0. -1.
        -12    1    3    3    0    0 -0.32383022344E+01 -0.71494383170E+00 -0.39146215132E+01  0.51304977960E+01  0.00000000000E+00 0.  1.
</event>
<event>
 7    1  0.2497395E-009  0.4778727E+02  0.7816164E-02  0.1312668E+00
        -11   -1    0    0    0    0  0.00000000000E+00  0.00000000000E+00  0.45593999997E+02  0.45594000000E+02  0.51100000000E-03 0.  1.
         11   -1    0    0    0    0 -0.00000000000E+00 -0.00000000000E+00 -0.45593999997E+02  0.45594000000E+02  0.51100000000E-03 0. -1.
    9900012    2    1    2    0    0 -0.31207169960E+02 -0.20035919755E+02 -0.22545457226E+02  0.47787272139E+02  0.20000004990E+02 0.  0.
        -12    1    1    2    0    0  0.31207169960E+02  0.20035919755E+02  0.22545457226E+02  0.43400727861E+02  0.00000000000E+00 0.  1.
         11    1    3    3    0    0 -0.15478399619E+02 -0.10884034103E+02 -0.19356353663E+02  0.27068643861E+02  0.51100000000E-03 0. -1.
        -11    1    3    3    0    0 -0.18451107293E+01 -0.32795388704E+01  0.25966823374E+01  0.45719326579E+01  0.51100000000E-03 0.  1.
        -12    1    3    3    0    0 -0.13883659612E+02 -0.58723467820E+01 -0.57857859006E+01  0.16146695620E+02  0.00000000000E+00 0.  1.
</event>
<event>
 7    1  0.2497395E-009  0.4778727E+02  0.7816164E-02  0.1312668E+00
        -11   -1    0    0    0    0  0.00000000000E+00  0.00000000000E+00  0.45593999997E+02  0.45594000000E+02  0.51100000000E-03 0. -1.
         11   -1    0    0    0    0 -0.00000000000E+00 -0.00000000000E+00 -0.45593999997E+02  0.45594000000E+02  0.51100000000E-03 0.  1.
    9900012    2    1    2    0    0  0.30470836752E+02 -0.29533291317E+02  0.91069273592E+01  0.47787270578E+02  0.19999997874E+02 0.  0.
        -12    1    1    2    0    0 -0.30470836752E+02  0.29533291317E+02 -0.91069273592E+01  0.43400729422E+02  0.00000000000E+00 0.  1.
         11    1    3    3    0    0  0.16211491627E+02 -0.13879979394E+02 -0.57550261906E+00  0.21349414331E+02  0.51100000000E-03 0. -1.
        -11    1    3    3    0    0  0.54022479804E+01 -0.97627223273E+00  0.72951359493E+01  0.91299725900E+01  0.51100000000E-03 0.  1.
        -12    1    3    3    0    0  0.88570971449E+01 -0.14677039691E+02  0.23872940289E+01  0.17307883657E+02  0.00000000000E+00 0.  1.
</event>
<event>
 7    1  0.2497395E-009  0.4778727E+02  0.7816164E-02  0.1312668E+00
        -11   -1    0    0    0    0  0.00000000000E+00  0.00000000000E+00  0.45593999997E+02  0.45594000000E+02  0.51100000000E-03 0. -1.
         11   -1    0    0    0    0 -0.00000000000E+00 -0.00000000000E+00 -0.45593999997E+02  0.45594000000E+02  0.51100000000E-03 0.  1.
    9900012    2    1    2    0    0  0.41229306806E+02 -0.10380937888E+02  0.87180130713E+01  0.47787270017E+02  0.19999995315E+02 0.  0.
        -12    1    1    2    0    0 -0.41229306806E+02  0.10380937888E+02 -0.87180130713E+01  0.43400729983E+02  0.00000000000E+00 0.  1.
         11    1    3    3    0    0  0.15836988005E+02 -0.84995088408E+01  0.24149001845E+01  0.18135147718E+02  0.51100000000E-03 0. -1.
        -11    1    3    3    0    0  0.12387893881E+02  0.30172444979E+01 -0.27811374654E+01  0.13049843103E+02  0.51100000000E-03 0.  1.
        -12    1    3    3    0    0  0.13004424921E+02 -0.48986735451E+01  0.90842503522E+01  0.16602279195E+02  0.00000000000E+00 0.  1.
</event>
<event>
 7    1  0.2497395E-009  0.4778726E+02  0.7816164E-02  0.1312668E+00
        -11   -1    0    0    0    0  0.00000000000E+00  0.00000000000E+00  0.45593999997E+02  0.45594000000E+02  0.51100000000E-03 0. -1.
         11   -1    0    0    0    0 -0.00000000000E+00 -0.00000000000E+00 -0.45593999997E+02  0.45594000000E+02  0.51100000000E-03 0.  1.
    9900012    2    1    2    0    0  0.42532870249E+02 -0.58030994462E+01  0.63955482017E+01  0.47787262085E+02  0.19999959149E+02 0.  0.
        -12    1    1    2    0    0 -0.42532870249E+02  0.58030994462E+01 -0.63955482017E+01  0.43400737915E+02  0.00000000000E+00 0.  1.
         11    1    3    3    0    0  0.33612234458E+02 -0.12448979883E+02  0.66331022097E+01  0.36452125460E+02  0.51100000000E-03 0. -1.
        -11    1    3    3    0    0  0.23449737929E+01  0.27841936108E+01 -0.65229145112E+00  0.36981239231E+01  0.51100000000E-03 0.  1.
         12    1    3    3    0    0  0.65756619982E+01  0.38616868259E+01  0.41473744310E+00  0.76370127015E+01  0.00000000000E+00 0. -1.
</event>
<event>
 7    1  0.2497395E-009  0.4778727E+02  0.7816164E-02  0.1312668E+00
        -11   -1    0    0    0    0  0.00000000000E+00  0.00000000000E+00  0.45593999997E+02  0.45594000000E+02  0.51100000000E-03 0.  1.
         11   -1    0    0    0    0 -0.00000000000E+00 -0.00000000000E+00 -0.45593999997E+02  0.45594000000E+02  0.51100000000E-03 0. -1.
    9900012    2    1    2    0    0  0.23353233246E+02 -0.13653242858E+02 -0.33938745638E+02  0.47787274211E+02  0.20000014436E+02 0.  0.
        -12    1    1    2    0    0 -0.23353233246E+02  0.13653242858E+02  0.33938745638E+02  0.43400725789E+02  0.00000000000E+00 0.  1.
         11    1    3    3    0    0  0.94751177353E+01 -0.11921817069E+02 -0.93326856619E+01  0.17860755870E+02  0.51100000000E-03 0. -1.
        -11    1    3    3    0    0  0.22736880094E+01 -0.71512525551E+00 -0.13907401395E+02  0.14110169209E+02  0.51100000000E-03 0.  1.
         12    1    3    3    0    0  0.11604427501E+02 -0.10163005334E+01 -0.10698658581E+02  0.15816349131E+02  0.00000000000E+00 0. -1.
</event>
<event>
 7    1  0.2497395E-009  0.4778728E+02  0.7816164E-02  0.1312668E+00
        -11   -1    0    0    0    0  0.00000000000E+00  0.00000000000E+00  0.45593999997E+02  0.45594000000E+02  0.51100000000E-03 0. -1.
         11   -1    0    0    0    0 -0.00000000000E+00 -0.00000000000E+00 -0.45593999997E+02  0.45594000000E+02  0.51100000000E-03 0.  1.
    9900012    2    1    2    0    0 -0.54643541258E+00 -0.30818277055E+02  0.30554182401E+02  0.47787275876E+02  0.20000022029E+02 0.  0.
        -12    1    1    2    0    0  0.54643541258E+00  0.30818277055E+02 -0.30554182401E+02  0.43400724124E+02  0.00000000000E+00 0.  1.
         11    1    3    3    0    0 -0.28377779549E+01 -0.10930554715E+02  0.19213670882E+02  0.22286658770E+02  0.51100000000E-03 0. -1.
        -11    1    3    3    0    0  0.66189770896E+01 -0.13720102654E+02  0.85310653446E+01  0.17459414387E+02  0.51100000000E-03 0.  1.
        -12    1    3    3    0    0 -0.43276345473E+01 -0.61676196860E+01  0.28094461741E+01  0.80412027191E+01  0.00000000000E+00 0.  1.
</event>
<event>
 7    1  0.2497395E-009  0.4778727E+02  0.7816164E-02  0.1312668E+00
        -11   -1    0    0    0    0  0.00000000000E+00  0.00000000000E+00  0.45593999997E+02  0.45594000000E+02  0.51100000000E-03 0. -1.
         11   -1    0    0    0    0 -0.00000000000E+00 -0.00000000000E+00 -0.45593999997E+02  0.45594000000E+02  0.51100000000E-03 0.  1.
    9900012    2    1    2    0    0 -0.15681901900E+02  0.25097121708E+02  0.31746425855E+02  0.47787272820E+02  0.20000008094E+02 0.  0.
        -12    1    1    2    0    0  0.15681901900E+02 -0.25097121708E+02 -0.31746425855E+02  0.43400727180E+02  0.00000000000E+00 0.  1.
         11    1    3    3    0    0 -0.28680732614E+01  0.17552947695E+02  0.16821475685E+02  0.24480479192E+02  0.51100000000E-03 0. -1.
        -11    1    3    3    0    0 -0.13030706918E+02  0.33188258968E+01  0.12830292765E+02  0.18585756397E+02  0.51100000000E-03 0.  1.
        -12    1    3    3    0    0  0.21687827946E+00  0.42253481162E+01  0.20946574045E+01  0.47210372307E+01  0.00000000000E+00 0.  1.
</event>
<event>
 7    1  0.2497395E-009  0.4778728E+02  0.7816164E-02  0.1312668E+00
        -11   -1    0    0    0    0  0.00000000000E+00  0.00000000000E+00  0.45593999997E+02  0.45594000000E+02  0.51100000000E-03 0.  1.
         11   -1    0    0    0    0 -0.00000000000E+00 -0.00000000000E+00 -0.45593999997E+02  0.45594000000E+02  0.51100000000E-03 0. -1.
    9900012    2    1    2    0    0  0.43319451828E+02 -0.56106090048E+00 -0.25947557788E+01  0.47787280495E+02  0.20000043090E+02 0.  0.
        -12    1    1    2    0    0 -0.43319451828E+02  0.56106090048E+00  0.25947557788E+01  0.43400719505E+02  0.00000000000E+00 0.  1.
         11    1    3    3    0    0  0.36293822019E+01 -0.43409102788E+01  0.39372003227E+01  0.68932912211E+01  0.51100000000E-03 0. -1.
        -11    1    3    3    0    0  0.38173982903E+02  0.47418575140E+01 -0.68442254792E+01  0.39071493522E+02  0.51100000000E-03 0.  1.
        -12    1    3    3    0    0  0.15160867229E+01 -0.96200813560E+00  0.31226937769E+00  0.18224957527E+01  0.00000000000E+00 0.  1.
</event>
<event>
 7    1  0.2497395E-009  0.4778727E+02  0.7816164E-02  0.1312668E+00
        -11   -1    0    0    0    0  0.00000000000E+00  0.00000000000E+00  0.45593999997E+02  0.45594000000E+02  0.51100000000E-03 0. -1.
         11   -1    0    0    0    0 -0.00000000000E+00 -0.00000000000E+00 -0.45593999997E+02  0.45594000000E+02  0.51100000000E-03 0.  1.
    9900012    2    1    2    0    0 -0.33770639594E+02 -0.24679900148E+02  0.11578837714E+02  0.47787273592E+02  0.20000011615E+02 0.  0.
        -12    1    1    2    0    0  0.33770639594E+02  0.24679900148E+02 -0.11578837714E+02  0.43400726408E+02  0.00000000000E+00 0.  1.
         11    1    3    3    0    0 -0.27018821786E+02 -0.18916354517E+02  0.51486936760E+01  0.33381944907E+02  0.51100000000E-03 0. -1.
        -11    1    3    3    0    0 -0.42885298401E+00 -0.65004880632E+01  0.35383948122E+01  0.74135347878E+01  0.51100000000E-03 0.  1.
        -12    1    3    3    0    0 -0.63229648245E+01  0.73694243232E+00  0.28917492262E+01  0.69917938977E+01  0.00000000000E+00 0.  1.
</event>
<event>
 7    1  0.2497395E-009  0.4778730E+02  0.7816164E-02  0.1312668E+00
        -11   -1    0    0    0    0  0.00000000000E+00  0.00000000000E+00  0.45593999997E+02  0.45594000000E+02  0.51100000000E-03 0. -1.
         11   -1    0    0    0    0 -0.00000000000E+00 -0.00000000000E+00 -0.45593999997E+02  0.45594000000E+02  0.51100000000E-03 0.  1.
    9900012    2    1    2    0    0  0.30566766229E+02  0.29808405292E+02 -0.77944041370E+01  0.47787297706E+02  0.20000121562E+02 0.  0.
        -12    1    1    2    0    0 -0.30566766229E+02 -0.29808405292E+02  0.77944041370E+01  0.43400702294E+02  0.00000000000E+00 0.  1.
         11    1    3    3    0    0  0.20141688915E+02  0.24628808204E+02 -0.99075477739E+01  0.33323045015E+02  0.51100000000E-03 0. -1.
        -11    1    3    3    0    0  0.71702110464E+01  0.59641199949E+01  0.44971964027E+01  0.10354102062E+02  0.51100000000E-03 0.  1.
         12    1    3    3    0    0  0.32548662672E+01 -0.78452290707E+00 -0.23840527658E+01  0.41101506298E+01  0.00000000000E+00 0. -1.
</event>
<event>
 7    1  0.2497395E-009  0.4778727E+02  0.7816164E-02  0.1312668E+00
        -11   -1    0    0    0    0  0.00000000000E+00  0.00000000000E+00  0.45593999997E+02  0.45594000000E+02  0.51100000000E-03 0. -1.
         11   -1    0    0    0    0 -0.00000000000E+00 -0.00000000000E+00 -0.45593999997E+02  0.45594000000E+02  0.51100000000E-03 0.  1.
    9900012    2    1    2    0    0  0.10276795863E+02  0.18198114735E+02  0.38037342581E+02  0.47787270239E+02  0.19999996328E+02 0.  0.
        -12    1    1    2    0    0 -0.10276795863E+02 -0.18198114735E+02 -0.38037342581E+02  0.43400729761E+02  0.00000000000E+00 0.  1.
         11    1    3    3    0    0  0.13898364397E+02  0.18308283453E+02  0.27924903993E+02  0.36168467471E+02  0.51100000000E-03 0. -1.
        -11    1    3    3    0    0 -0.18769606700E+01 -0.98081818336E+00  0.92455258045E+01  0.94849740816E+01  0.51100000000E-03 0.  1.
        -12    1    3    3    0    0 -0.17446078637E+01  0.87064946622E+00  0.86691278360E+00  0.21338286870E+01  0.00000000000E+00 0.  1.
</event>
<event>
 7    1  0.2497395E-009  0.4778727E+02  0.7816164E-02  0.1312668E+00
        -11   -1    0    0    0    0  0.00000000000E+00  0.00000000000E+00  0.45593999997E+02  0.45594000000E+02  0.51100000000E-03 0.  1.
         11   -1    0    0    0    0 -0.00000000000E+00 -0.00000000000E+00 -0.45593999997E+02  0.45594000000E+02  0.51100000000E-03 0. -1.
    9900012    2    1    2    0    0 -0.49251137448E+01 -0.47284175813E+01 -0.42860336716E+02  0.47787272568E+02  0.20000006947E+02 0.  0.
        -12    1    1    2    0    0  0.49251137448E+01  0.47284175813E+01  0.42860336716E+02  0.43400727432E+02  0.00000000000E+00 0.  1.
         11    1    3    3    0    0  0.27170627378E+01  0.56590007967E+01 -0.15152232194E+02  0.16401123762E+02  0.51100000000E-03 0. -1.
        -11    1    3    3    0    0 -0.20224579732E+01 -0.83697552253E+01 -0.18584763355E+02  0.20482591828E+02  0.51100000000E-03 0.  1.
        -12    1    3    3    0    0 -0.56197185094E+01 -0.20176631526E+01 -0.91233411675E+01  0.10903556978E+02  0.00000000000E+00 0.  1.
</event>
<event>
 7    1  0.2497395E-009  0.4778727E+02  0.7816164E-02  0.1312668E+00
        -11   -1    0    0    0    0  0.00000000000E+00  0.00000000000E+00  0.45593999997E+02  0.45594000000E+02  0.51100000000E-03 0.  1.
         11   -1    0    0    0    0 -0.00000000000E+00 -0.00000000000E+00 -0.45593999997E+02  0.45594000000E+02  0.51100000000E-03 0. -1.
    9900012    2    1    2    0    0 -0.37116885811E+02  0.15590865597E+02 -0.16213721995E+02  0.47787273240E+02  0.20000010012E+02 0.  0.
        -12    1    1    2    0    0  0.37116885811E+02 -0.15590865597E+02  0.16213721995E+02  0.43400726760E+02  0.00000000000E+00 0.  1.
         11    1    3    3    0    0 -0.28545148720E+02  0.80251819993E+01 -0.15222452930E+02  0.33330948607E+02  0.51100000000E-03 0. -1.
        -11    1    3    3    0    0 -0.92431062310E+01  0.73752214755E+01  0.14534812495E+01  0.11913920959E+02  0.51100000000E-03 0.  1.
         12    1    3    3    0    0  0.67136914030E+00  0.19046212190E+00 -0.24447503148E+01  0.25424036745E+01  0.00000000000E+00 0. -1.
</event>
<event>
 7    1  0.2497395E-009  0.4778727E+02  0.7816164E-02  0.1312668E+00
        -11   -1    0    0    0    0  0.00000000000E+00  0.00000000000E+00  0.45593999997E+02  0.45594000000E+02  0.51100000000E-03 0.  1.
         11   -1    0    0    0    0 -0.00000000000E+00 -0.00000000000E+00 -0.45593999997E+02  0.45594000000E+02  0.51100000000E-03 0. -1.
    9900012    2    1    2    0    0  0.21639315804E+02  0.29472599096E+02 -0.23382240283E+02  0.47787271359E+02  0.20000001435E+02 0.  0.
        -12    1    1    2    0    0 -0.21639315804E+02 -0.29472599096E+02  0.23382240283E+02  0.43400728641E+02  0.00000000000E+00 0.  1.
         11    1    3    3    0    0  0.68693477061E+01  0.68930561892E+01 -0.10814324087E+02  0.14548256503E+02  0.51100000000E-03 0.  1.
        -11    1    3    3    0    0  0.10170733748E+02  0.14567305477E+02 -0.15467539753E+02  0.23556209374E+02  0.51100000000E-03 0. -1.
        -12    1    3    3    0    0  0.45992343500E+01  0.80122374296E+01  0.28996235571E+01  0.96828054822E+01  0.00000000000E+00 0.  1.
</event>
<event>
 7    1  0.2497395E-009  0.4778727E+02  0.7816164E-02  0.1312668E+00
        -11   -1    0    0    0    0  0.00000000000E+00  0.00000000000E+00  0.45593999997E+02  0.45594000000E+02  0.51100000000E-03 0.  1.
         11   -1    0    0    0    0 -0.00000000000E+00 -0.00000000000E+00 -0.45593999997E+02  0.45594000000E+02  0.51100000000E-03 0. -1.
    9900012    2    1    2    0    0 -0.20319514284E+02 -0.16983019175E+02 -0.34384846645E+02  0.47787270976E+02  0.19999999687E+02 0.  0.
        -12    1    1    2    0    0  0.20319514284E+02  0.16983019175E+02  0.34384846645E+02  0.43400729024E+02  0.00000000000E+00 0.  1.
         11    1    3    3    0    0 -0.11194701319E+02 -0.68631504403E+01 -0.22816152839E+02  0.26324912198E+02  0.51100000000E-03 0. -1.
        -11    1    3    3    0    0 -0.60983898470E+01 -0.12026731678E+02 -0.58095776968E+01  0.14682773132E+02  0.51100000000E-03 0.  1.
        -12    1    3    3    0    0 -0.30264231180E+01  0.19068629429E+01 -0.57591161091E+01  0.67795856459E+01  0.00000000000E+00 0.  1.
</event>
<event>
 7    1  0.2497395E-009  0.4778727E+02  0.7816164E-02  0.1312668E+00
        -11   -1    0    0    0    0  0.00000000000E+00  0.00000000000E+00  0.45593999997E+02  0.45594000000E+02  0.51100000000E-03 0.  1.
         11   -1    0    0    0    0 -0.00000000000E+00 -0.00000000000E+00 -0.45593999997E+02  0.45594000000E+02  0.51100000000E-03 0. -1.
    9900012    2    1    2    0    0  0.71227006362E+01  0.23917697329E+02 -0.35508229133E+02  0.47787269061E+02  0.19999990956E+02 0.  0.
        -12    1    1    2    0    0 -0.71227006362E+01 -0.23917697329E+02  0.35508229133E+02  0.43400730939E+02  0.00000000000E+00 0.  1.
         11    1    3    3    0    0  0.69387024580E+01  0.15802854873E+02 -0.28449848888E+02  0.33275662517E+02  0.51100000000E-03 0. -1.
        -11    1    3    3    0    0  0.13712102561E+01 -0.88973738285E+00  0.13610103356E+01  0.21270165894E+01  0.51100000000E-03 0.  1.
         12    1    3    3    0    0 -0.11872120780E+01  0.90045798380E+01 -0.84193905809E+01  0.12384589954E+02  0.00000000000E+00 0. -1.
</event>
<event>
 7    1  0.2497395E-009  0.4778728E+02  0.7816164E-02  0.1312668E+00
        -11   -1    0    0    0    0  0.00000000000E+00  0.00000000000E+00  0.45593999997E+02  0.45594000000E+02  0.51100000000E-03 0. -1.
         11   -1    0    0    0    0 -0.00000000000E+00 -0.00000000000E+00 -0.45593999997E+02  0.45594000000E+02  0.51100000000E-03 0.  1.
    9900012    2    1    2    0    0  0.21969652548E+02  0.99955298954E+01  0.36070022288E+02  0.47787276978E+02  0.20000027053E+02 0.  0.
        -12    1    1    2    0    0 -0.21969652548E+02 -0.99955298954E+01 -0.36070022288E+02  0.43400723022E+02  0.00000000000E+00 0.  1.
         11    1    3    3    0    0 -0.13401633944E+01  0.24080013546E+01 -0.95217284727E-01  0.27574580758E+01  0.51100000000E-03 0.  1.
        -11    1    3    3    0    0  0.18925876506E+02  0.10352377273E+02  0.30414418301E+02  0.37288032364E+02  0.51100000000E-03 0. -1.
        -12    1    3    3    0    0  0.43839394369E+01 -0.27648487326E+01  0.57508212721E+01  0.77417865382E+01  0.00000000000E+00 0.  1.
</event>
<event>
 7    1  0.2497395E-009  0.4778727E+02  0.7816164E-02  0.1312668E+00
        -11   -1    0    0    0    0  0.00000000000E+00  0.00000000000E+00  0.45593999997E+02  0.45594000000E+02  0.51100000000E-03 0. -1.
         11   -1    0    0    0    0 -0.00000000000E+00 -0.00000000000E+00 -0.45593999997E+02  0.45594000000E+02  0.51100000000E-03 0.  1.
    9900012    2    1    2    0    0  0.40921568315E+02  0.19262278550E+01 -0.14329616373E+02  0.47787274056E+02  0.20000013730E+02 0.  0.
        -12    1    1    2    0    0 -0.40921568315E+02 -0.19262278550E+01  0.14329616373E+02  0.43400725944E+02  0.00000000000E+00 0.  1.
         11    1    3    3    0    0  0.80804838681E+01 -0.29407591497E+01  0.61628365809E+00  0.86210260253E+01  0.51100000000E-03 0. -1.
        -11    1    3    3    0    0  0.21620921918E+02 -0.20166868401E+01 -0.40740746448E+01  0.22093650102E+02  0.51100000000E-03 0.  1.
        -12    1    3    3    0    0  0.11220162529E+02  0.68836738449E+01 -0.10871825386E+02  0.17072597928E+02  0.00000000000E+00 0.  1.
</event>
<event>
 7    1  0.2497395E-009  0.4778728E+02  0.7816164E-02  0.1312668E+00
        -11   -1    0    0    0    0  0.00000000000E+00  0.00000000000E+00  0.45593999997E+02  0.45594000000E+02  0.51100000000E-03 0.  1.
         11   -1    0    0    0    0 -0.00000000000E+00 -0.00000000000E+00 -0.45593999997E+02  0.45594000000E+02  0.51100000000E-03 0. -1.
    9900012    2    1    2    0    0  0.12375688306E+01  0.30634745912E+02 -0.30718126687E+02  0.47787279489E+02  0.20000038501E+02 0.  0.
        -12    1    1    2    0    0 -0.12375688306E+01 -0.30634745912E+02  0.30718126687E+02  0.43400720511E+02  0.00000000000E+00 0.  1.
         11    1    3    3    0    0  0.33416474924E+01  0.17600102430E+02 -0.26700130781E+02  0.32153183319E+02  0.51100000000E-03 0. -1.
        -11    1    3    3    0    0  0.11051247696E+01  0.87958435441E+01  0.16918057917E+00  0.88666107808E+01  0.51100000000E-03 0.  1.
        -12    1    3    3    0    0 -0.32092034314E+01  0.42387999381E+01 -0.41871764850E+01  0.67674853894E+01  0.00000000000E+00 0.  1.
</event>
<event>
 7    1  0.2497395E-009  0.4778728E+02  0.7816164E-02  0.1312668E+00
        -11   -1    0    0    0    0  0.00000000000E+00  0.00000000000E+00  0.45593999997E+02  0.45594000000E+02  0.51100000000E-03 0.  1.
         11   -1    0    0    0    0 -0.00000000000E+00 -0.00000000000E+00 -0.45593999997E+02  0.45594000000E+02  0.51100000000E-03 0. -1.
    9900012    2    1    2    0    0 -0.98305421896E+01  0.33679118097E+02 -0.25547999093E+02  0.47787276352E+02  0.20000024198E+02 0.  0.
        -12    1    1    2    0    0  0.98305421896E+01 -0.33679118097E+02  0.25547999093E+02  0.43400723648E+02  0.00000000000E+00 0.  1.
         11    1    3    3    0    0 -0.79729422368E+01  0.13382285616E+02 -0.89799608475E+01  0.17980352424E+02  0.51100000000E-03 0. -1.
        -11    1    3    3    0    0  0.25271706687E+01  0.16666695201E+01  0.15945407150E+01  0.34215404762E+01  0.51100000000E-03 0.  1.
        -12    1    3    3    0    0 -0.43847706214E+01  0.18630162961E+02 -0.18162578961E+02  0.26385383451E+02  0.00000000000E+00 0.  1.
</event>
<event>
 7    1  0.2497395E-009  0.4778727E+02  0.7816164E-02  0.1312668E+00
        -11   -1    0    0    0    0  0.00000000000E+00  0.00000000000E+00  0.45593999997E+02  0.45594000000E+02  0.51100000000E-03 0.  1.
         11   -1    0    0    0    0 -0.00000000000E+00 -0.00000000000E+00 -0.45593999997E+02  0.45594000000E+02  0.51100000000E-03 0. -1.
    9900012    2    1    2    0    0 -0.21926602785E+01 -0.13316696194E+01 -0.43324842049E+02  0.47787273720E+02  0.20000012199E+02 0.  0.
        -12    1    1    2    0    0  0.21926602785E+01  0.13316696194E+01  0.43324842049E+02  0.43400726280E+02  0.00000000000E+00 0.  1.
         11    1    3    3    0    0  0.12482184274E+01  0.19700623968E+01 -0.20772824944E+02  0.20903335894E+02  0.51100000000E-03 0. -1.
        -11    1    3    3    0    0  0.32603199094E+01 -0.16602577223E+01 -0.39779063906E+00  0.36802689127E+01  0.51100000000E-03 0.  1.
        -12    1    3    3    0    0 -0.67011986153E+01 -0.16414742938E+01 -0.22154226466E+02  0.23203668913E+02  0.00000000000E+00 0.  1.
</event>
<event>
 7    1  0.2497395E-009  0.4778722E+02  0.7816164E-02  0.1312668E+00
        -11   -1    0    0    0    0  0.00000000000E+00  0.00000000000E+00  0.45593999997E+02  0.45594000000E+02  0.51100000000E-03 0.  1.
         11   -1    0    0    0    0 -0.00000000000E+00 -0.00000000000E+00 -0.45593999997E+02  0.45594000000E+02  0.51100000000E-03 0. -1.
    9900012    2    1    2    0    0  0.39370081560E+02  0.16654056604E+02  0.75011348440E+01  0.47787217203E+02  0.19999754515E+02 0.  0.
        -12    1    1    2    0    0 -0.39370081560E+02 -0.16654056604E+02 -0.75011348440E+01  0.43400782797E+02  0.00000000000E+00 0.  1.
         11    1    3    3    0    0  0.57653639786E+01  0.74622870903E+01 -0.32548345244E+01  0.99759259453E+01  0.51100000000E-03 0. -1.
        -11    1    3    3    0    0  0.32674538606E+02  0.75657439191E+01  0.80016720006E+01  0.34480323508E+02  0.51100000000E-03 0.  1.
        -12    1    3    3    0    0  0.93017897567E+00  0.16260255942E+01  0.27542973678E+01  0.33309677498E+01  0.00000000000E+00 0.  1.
</event>
<event>
 7    1  0.2497395E-009  0.4778727E+02  0.7816164E-02  0.1312668E+00
        -11   -1    0    0    0    0  0.00000000000E+00  0.00000000000E+00  0.45593999997E+02  0.45594000000E+02  0.51100000000E-03 0.  1.
         11   -1    0    0    0    0 -0.00000000000E+00 -0.00000000000E+00 -0.45593999997E+02  0.45594000000E+02  0.51100000000E-03 0. -1.
    9900012    2    1    2    0    0 -0.26106484000E+02 -0.33676596136E+02 -0.82438735600E+01  0.47787273216E+02  0.20000009900E+02 0.  0.
        -12    1    1    2    0    0  0.26106484000E+02  0.33676596136E+02  0.82438735600E+01  0.43400726784E+02  0.00000000000E+00 0.  1.
         11    1    3    3    0    0 -0.16914358633E+02 -0.18249153241E+02 -0.10042993517E+02  0.26832607794E+02  0.51100000000E-03 0. -1.
        -11    1    3    3    0    0 -0.42128308230E+00 -0.11048645942E+02  0.13813416557E+01  0.11142628129E+02  0.51100000000E-03 0.  1.
         12    1    3    3    0    0 -0.87708422843E+01 -0.43787969531E+01  0.41777830128E+00  0.98120372932E+01  0.00000000000E+00 0. -1.
</event>
<event>
 7    1  0.2497395E-009  0.4778727E+02  0.7816164E-02  0.1312668E+00
        -11   -1    0    0    0    0  0.00000000000E+00  0.00000000000E+00  0.45593999997E+02  0.45594000000E+02  0.51100000000E-03 0.  1.
         11   -1    0    0    0    0 -0.00000000000E+00 -0.00000000000E+00 -0.45593999997E+02  0.45594000000E+02  0.51100000000E-03 0. -1.
    9900012    2    1    2    0    0  0.25754163913E+02  0.19239456294E+02 -0.29158011546E+02  0.47787271035E+02  0.19999999959E+02 0.  0.
        -12    1    1    2    0    0 -0.25754163913E+02 -0.19239456294E+02  0.29158011546E+02  0.43400728965E+02  0.00000000000E+00 0.  1.
         11    1    3    3    0    0  0.66470669901E+01  0.29845534567E+01 -0.26432443735E+01  0.77509870330E+01  0.51100000000E-03 0. -1.
        -11    1    3    3    0    0 -0.10613946826E+01 -0.23340281760E+01 -0.20575152096E+01  0.32874937715E+01  0.51100000000E-03 0.  1.
        -12    1    3    3    0    0  0.20168491606E+02  0.18588931013E+02 -0.24457251963E+02  0.36748790231E+02  0.00000000000E+00 0.  1.
</event>
<event>
 7    1  0.2497395E-009  0.4778727E+02  0.7816164E-02  0.1312668E+00
        -11   -1    0    0    0    0  0.00000000000E+00  0.00000000000E+00  0.45593999997E+02  0.45594000000E+02  0.51100000000E-03 0. -1.
         11   -1    0    0    0    0 -0.00000000000E+00 -0.00000000000E+00 -0.45593999997E+02  0.45594000000E+02  0.51100000000E-03 0.  1.
    9900012    2    1    2    0    0 -0.85908257575E+01 -0.26346713328E+02  0.33401672849E+02  0.47787270288E+02  0.19999996553E+02 0.  0.
        -12    1    1    2    0    0  0.85908257575E+01  0.26346713328E+02 -0.33401672849E+02  0.43400729712E+02  0.00000000000E+00 0.  1.
         11    1    3    3    0    0  0.79914944659E+00 -0.11023153238E+02  0.40352401224E+01  0.11765700585E+02  0.51100000000E-03 0. -1.
        -11    1    3    3    0    0 -0.11674112758E+01 -0.28587941544E+01  0.14949700921E+02  0.15265291055E+02  0.51100000000E-03 0.  1.
         12    1    3    3    0    0 -0.82225639284E+01 -0.12464765935E+02  0.14416731806E+02  0.20756278649E+02  0.00000000000E+00 0. -1.
</event>
<event>
 7    1  0.2497395E-009  0.4778727E+02  0.7816164E-02  0.1312668E+00
        -11   -1    0    0    0    0  0.00000000000E+00  0.00000000000E+00  0.45593999997E+02  0.45594000000E+02  0.51100000000E-03 0. -1.
         11   -1    0    0    0    0 -0.00000000000E+00 -0.00000000000E+00 -0.45593999997E+02  0.45594000000E+02  0.51100000000E-03 0.  1.
    9900012    2    1    2    0    0 -0.37227075863E+02  0.19698184126E+02 -0.10476158698E+02  0.47787268022E+02  0.19999986218E+02 0.  0.
        -12    1    1    2    0    0  0.37227075863E+02 -0.19698184126E+02  0.10476158698E+02  0.43400731978E+02  0.00000000000E+00 0.  1.
         11    1    3    3    0    0 -0.28798398296E+02  0.66653721405E+01 -0.21672513916E+01  0.29639026790E+02  0.51100000000E-03 0.  1.
        -11    1    3    3    0    0 -0.65603306546E+01  0.83130268805E+01 -0.75730750498E+01  0.13019056040E+02  0.51100000000E-03 0. -1.
        -12    1    3    3    0    0 -0.18683469128E+01  0.47197851046E+01 -0.73583225704E+00  0.51291851916E+01  0.00000000000E+00 0.  1.
</event>
<event>
 7    1  0.2497395E-009  0.4778727E+02  0.7816164E-02  0.1312668E+00
        -11   -1    0    0    0    0  0.00000000000E+00  0.00000000000E+00  0.45593999997E+02  0.45594000000E+02  0.51100000000E-03 0.  1.
         11   -1    0    0    0    0 -0.00000000000E+00 -0.00000000000E+00 -0.45593999997E+02  0.45594000000E+02  0.51100000000E-03 0. -1.
    9900012    2    1    2    0    0  0.23318574972E+01  0.12904400725E+02 -0.41372235360E+02  0.47787274475E+02  0.20000015641E+02 0.  0.
        -12    1    1    2    0    0 -0.23318574972E+01 -0.12904400725E+02  0.41372235360E+02  0.43400725525E+02  0.00000000000E+00 0.  1.
         11    1    3    3    0    0  0.54278319517E+01  0.77003221041E+01 -0.24426123364E+02  0.26179988981E+02  0.51100000000E-03 0. -1.
        -11    1    3    3    0    0 -0.56622371335E+01  0.13709552791E+01 -0.23196479506E+01  0.62706630120E+01  0.51100000000E-03 0.  1.
        -12    1    3    3    0    0  0.25662626791E+01  0.38331233414E+01 -0.14626464045E+02  0.15336622482E+02  0.00000000000E+00 0.  1.
</event>
<event>
 7    1  0.2497395E-009  0.4778727E+02  0.7816164E-02  0.1312668E+00
        -11   -1    0    0    0    0  0.00000000000E+00  0.00000000000E+00  0.45593999997E+02  0.45594000000E+02  0.51100000000E-03 0. -1.
         11   -1    0    0    0    0 -0.00000000000E+00 -0.00000000000E+00 -0.45593999997E+02  0.45594000000E+02  0.51100000000E-03 0.  1.
    9900012    2    1    2    0    0  0.86404978110E+01 -0.42226594160E+02  0.50872230999E+01  0.47787270794E+02  0.19999998857E+02 0.  0.
        -12    1    1    2    0    0 -0.86404978110E+01  0.42226594160E+02 -0.50872230999E+01  0.43400729206E+02  0.00000000000E+00 0.  1.
         11    1    3    3    0    0  0.26587105495E+01 -0.34383376784E+02  0.94280243099E+01  0.35751545190E+02  0.51100000000E-03 0. -1.
        -11    1    3    3    0    0  0.13106557998E+01 -0.33189049793E+01 -0.42269606031E+01  0.55317397885E+01  0.51100000000E-03 0.  1.
         12    1    3    3    0    0  0.46711314617E+01 -0.45243123968E+01 -0.11384060683E+00  0.65039858149E+01  0.00000000000E+00 0. -1.
</event>
<event>
 7    1  0.2497395E-009  0.4778727E+02  0.7816164E-02  0.1312668E+00
        -11   -1    0    0    0    0  0.00000000000E+00  0.00000000000E+00  0.45593999997E+02  0.45594000000E+02  0.51100000000E-03 0.  1.
         11   -1    0    0    0    0 -0.00000000000E+00 -0.00000000000E+00 -0.45593999997E+02  0.45594000000E+02  0.51100000000E-03 0. -1.
    9900012    2    1    2    0    0  0.46139229155E+01  0.15972193716E+02 -0.40090199157E+02  0.47787270453E+02  0.19999997302E+02 0.  0.
        -12    1    1    2    0    0 -0.46139229155E+01 -0.15972193716E+02  0.40090199157E+02  0.43400729547E+02  0.00000000000E+00 0.  1.
         11    1    3    3    0    0  0.34954647481E+01 -0.28541958226E+01 -0.15394025914E+02  0.16041843464E+02  0.51100000000E-03 0. -1.
        -11    1    3    3    0    0 -0.17127781150E+01  0.73589559789E+01 -0.60797609479E+01  0.96980067754E+01  0.51100000000E-03 0.  1.
        -12    1    3    3    0    0  0.28312362824E+01  0.11467433560E+02 -0.18616412295E+02  0.22047420214E+02  0.00000000000E+00 0.  1.
</event>
<event>
 7    1  0.2497395E-009  0.4778726E+02  0.7816164E-02  0.1312668E+00
        -11   -1    0    0    0    0  0.00000000000E+00  0.00000000000E+00  0.45593999997E+02  0.45594000000E+02  0.51100000000E-03 0.  1.
         11   -1    0    0    0    0 -0.00000000000E+00 -0.00000000000E+00 -0.45593999997E+02  0.45594000000E+02  0.51100000000E-03 0. -1.
    9900012    2    1    2    0    0 -0.13816601733E+02  0.37595764979E+01 -0.40970611875E+02  0.47787263413E+02  0.19999965205E+02 0.  0.
        -12    1    1    2    0    0  0.13816601733E+02 -0.37595764979E+01  0.40970611875E+02  0.43400736587E+02  0.00000000000E+00 0.  1.
         11    1    3    3    0    0 -0.94234928897E+01  0.44650608497E+01 -0.27331902590E+02  0.29253579031E+02  0.51100000000E-03 0. -1.
        -11    1    3    3    0    0  0.20804391499E+01 -0.37272289058E+01 -0.16471040822E+01  0.45753048523E+01  0.51100000000E-03 0.  1.
        -12    1    3    3    0    0 -0.64735479930E+01  0.30217445540E+01 -0.11991605202E+02  0.13958379530E+02  0.00000000000E+00 0.  1.
</event>
<event>
 7    1  0.2497395E-009  0.4778727E+02  0.7816164E-02  0.1312668E+00
        -11   -1    0    0    0    0  0.00000000000E+00  0.00000000000E+00  0.45593999997E+02  0.45594000000E+02  0.51100000000E-03 0. -1.
         11   -1    0    0    0    0 -0.00000000000E+00 -0.00000000000E+00 -0.45593999997E+02  0.45594000000E+02  0.51100000000E-03 0.  1.
    9900012    2    1    2    0    0 -0.80227301838E+01  0.41320884820E+02 -0.10575609185E+02  0.47787271532E+02  0.20000002222E+02 0.  0.
        -12    1    1    2    0    0  0.80227301838E+01 -0.41320884820E+02  0.10575609185E+02  0.43400728468E+02  0.00000000000E+00 0.  1.
         11    1    3    3    0    0 -0.64242645854E+01  0.24280912854E+02 -0.12342185453E+02  0.27985057557E+02  0.51100000000E-03 0. -1.
        -11    1    3    3    0    0  0.20682356843E+01  0.44680948266E+00  0.18468316510E+01  0.28085627940E+01  0.51100000000E-03 0.  1.
         12    1    3    3    0    0 -0.36667012827E+01  0.16593162484E+02 -0.80255382388E-01  0.16993651180E+02  0.00000000000E+00 0. -1.
</event>
<event>
 7    1  0.2497395E-009  0.4778728E+02  0.7816164E-02  0.1312668E+00
        -11   -1    0    0    0    0  0.00000000000E+00  0.00000000000E+00  0.45593999997E+02  0.45594000000E+02  0.51100000000E-03 0. -1.
         11   -1    0    0    0    0 -0.00000000000E+00 -0.00000000000E+00 -0.45593999997E+02  0.45594000000E+02  0.51100000000E-03 0.  1.
    9900012    2    1    2    0    0 -0.56204007531E+01  0.23758542263E+02  0.35882663202E+02  0.47787277038E+02  0.20000027328E+02 0.  0.
        -12    1    1    2    0    0  0.56204007531E+01 -0.23758542263E+02 -0.35882663202E+02  0.43400722962E+02  0.00000000000E+00 0.  1.
         11    1    3    3    0    0 -0.80938722029E+01  0.20806810849E+02  0.20143807299E+02  0.30070036875E+02  0.51100000000E-03 0. -1.
        -11    1    3    3    0    0  0.38417376211E+01  0.20364256625E+00  0.13150888152E+02  0.13702053777E+02  0.51100000000E-03 0.  1.
        -12    1    3    3    0    0 -0.13682661714E+01  0.27480888486E+01  0.25879677518E+01  0.40151863867E+01  0.00000000000E+00 0.  1.
</event>
<event>
 7    1  0.2497395E-009  0.4778727E+02  0.7816164E-02  0.1312668E+00
        -11   -1    0    0    0    0  0.00000000000E+00  0.00000000000E+00  0.45593999997E+02  0.45594000000E+02  0.51100000000E-03 0.  1.
         11   -1    0    0    0    0 -0.00000000000E+00 -0.00000000000E+00 -0.45593999997E+02  0.45594000000E+02  0.51100000000E-03 0. -1.
    9900012    2    1    2    0    0  0.16828820375E+02 -0.33579907646E+02 -0.21744052031E+02  0.47787271994E+02  0.20000004330E+02 0.  0.
        -12    1    1    2    0    0 -0.16828820375E+02  0.33579907646E+02  0.21744052031E+02  0.43400728006E+02  0.00000000000E+00 0.  1.
         11    1    3    3    0    0  0.13139679804E+02 -0.13110822186E+02 -0.16646585934E+02  0.24932983521E+02  0.51100000000E-03 0. -1.
        -11    1    3    3    0    0  0.58740952892E+01 -0.10331009833E+02 -0.21983356986E+01  0.12085836328E+02  0.51100000000E-03 0.  1.
         12    1    3    3    0    0 -0.21849547183E+01 -0.10138075627E+02 -0.28991303980E+01  0.10768452145E+02  0.00000000000E+00 0. -1.
</event>
<event>
 7    1  0.2497395E-009  0.4778727E+02  0.7816164E-02  0.1312668E+00
        -11   -1    0    0    0    0  0.00000000000E+00  0.00000000000E+00  0.45593999997E+02  0.45594000000E+02  0.51100000000E-03 0.  1.
         11   -1    0    0    0    0 -0.00000000000E+00 -0.00000000000E+00 -0.45593999997E+02  0.45594000000E+02  0.51100000000E-03 0. -1.
    9900012    2    1    2    0    0 -0.94839784870E+01 -0.80575959300E+01 -0.41578267406E+02  0.47787273962E+02  0.20000013303E+02 0.  0.
        -12    1    1    2    0    0  0.94839784870E+01  0.80575959300E+01  0.41578267406E+02  0.43400726038E+02  0.00000000000E+00 0.  1.
         11    1    3    3    0    0 -0.54950086003E+01  0.20125730799E+01 -0.20119277920E+02  0.20953064554E+02  0.51100000000E-03 0. -1.
        -11    1    3    3    0    0  0.34156396317E+01 -0.42369869314E+01 -0.32736316962E+01  0.63510091398E+01  0.51100000000E-03 0.  1.
        -12    1    3    3    0    0 -0.74046095184E+01 -0.58331820785E+01 -0.18185357790E+02  0.20483200268E+02  0.00000000000E+00 0.  1.
</event>
<event>
 7    1  0.2497395E-009  0.4778725E+02  0.7816164E-02  0.1312668E+00
        -11   -1    0    0    0    0  0.00000000000E+00  0.00000000000E+00  0.45593999997E+02  0.45594000000E+02  0.51100000000E-03 0.  1.
         11   -1    0    0    0    0 -0.00000000000E+00 -0.00000000000E+00 -0.45593999997E+02  0.45594000000E+02  0.51100000000E-03 0. -1.
    9900012    2    1    2    0    0  0.10380789197E+01  0.34531136132E+02 -0.26270676345E+02  0.47787246481E+02  0.19999888005E+02 0.  0.
        -12    1    1    2    0    0 -0.10380789197E+01 -0.34531136132E+02  0.26270676345E+02  0.43400753519E+02  0.00000000000E+00 0.  1.
         11    1    3    3    0    0 -0.81619763722E+01  0.12650720377E+02 -0.13278145143E+02  0.20074055969E+02  0.51100000000E-03 0. -1.
        -11    1    3    3    0    0  0.59078127525E+01  0.17761176856E+02 -0.76932958330E+01  0.20237303572E+02  0.51100000000E-03 0.  1.
         12    1    3    3    0    0  0.32922425395E+01  0.41192388991E+01 -0.52992353684E+01  0.74758869398E+01  0.00000000000E+00 0. -1.
</event>
<event>
 7    1  0.2497395E-009  0.4778727E+02  0.7816164E-02  0.1312668E+00
        -11   -1    0    0    0    0  0.00000000000E+00  0.00000000000E+00  0.45593999997E+02  0.45594000000E+02  0.51100000000E-03 0. -1.
         11   -1    0    0    0    0 -0.00000000000E+00 -0.00000000000E+00 -0.45593999997E+02  0.45594000000E+02  0.51100000000E-03 0.  1.
    9900012    2    1    2    0    0 -0.19182673149E+02  0.38863469336E+02  0.22976063865E+01  0.47787271975E+02  0.20000004242E+02 0.  0.
        -12    1    1    2    0    0  0.19182673149E+02 -0.38863469336E+02 -0.22976063865E+01  0.43400728025E+02  0.00000000000E+00 0.  1.
         11    1    3    3    0    0 -0.67308418778E+01  0.17101661357E+02 -0.75274445114E+01  0.19860349309E+02  0.51100000000E-03 0. -1.
        -11    1    3    3    0    0 -0.23255385983E+01  0.42344898319E+01  0.53261499125E+01  0.71907514948E+01  0.51100000000E-03 0.  1.
         12    1    3    3    0    0 -0.10126292673E+02  0.17527318148E+02  0.44989009854E+01  0.20736171171E+02  0.00000000000E+00 0. -1.
</event>
<event>
 7    1  0.2497395E-009  0.4778727E+02  0.7816164E-02  0.1312668E+00
        -11   -1    0    0    0    0  0.00000000000E+00  0.00000000000E+00  0.45593999997E+02  0.45594000000E+02  0.51100000000E-03 0.  1.
         11   -1    0    0    0    0 -0.00000000000E+00 -0.00000000000E+00 -0.45593999997E+02  0.45594000000E+02  0.51100000000E-03 0. -1.
    9900012    2    1    2    0    0 -0.21584738032E+01  0.43342610533E+02  0.61824759716E+00  0.47787272736E+02  0.20000007712E+02 0.  0.
        -12    1    1    2    0    0  0.21584738032E+01 -0.43342610533E+02 -0.61824759716E+00  0.43400727264E+02  0.00000000000E+00 0.  1.
         11    1    3    3    0    0 -0.15658393318E+01  0.28734869904E+02 -0.55587351985E+01  0.29309454763E+02  0.51100000000E-03 0. -1.
        -11    1    3    3    0    0 -0.49444955765E+00  0.10811036181E+02  0.87274632208E+01  0.13902934878E+02  0.51100000000E-03 0.  1.
        -12    1    3    3    0    0 -0.98184913798E-01  0.37967044473E+01 -0.25504804251E+01  0.45748830954E+01  0.00000000000E+00 0.  1.
</event>
<event>
 7    1  0.2497395E-009  0.4778727E+02  0.7816164E-02  0.1312668E+00
        -11   -1    0    0    0    0  0.00000000000E+00  0.00000000000E+00  0.45593999997E+02  0.45594000000E+02  0.51100000000E-03 0.  1.
         11   -1    0    0    0    0 -0.00000000000E+00 -0.00000000000E+00 -0.45593999997E+02  0.45594000000E+02  0.51100000000E-03 0. -1.
    9900012    2    1    2    0    0 -0.15861272316E+02  0.37404806199E+02 -0.15261829839E+02  0.47787274933E+02  0.20000017732E+02 0.  0.
        -12    1    1    2    0    0  0.15861272316E+02 -0.37404806199E+02  0.15261829839E+02  0.43400725067E+02  0.00000000000E+00 0.  1.
         11    1    3    3    0    0 -0.12826348317E+02  0.13944361497E+02 -0.15932941074E+01  0.19013127441E+02  0.51100000000E-03 0. -1.
        -11    1    3    3    0    0 -0.45059176777E+01  0.18836419722E+02 -0.14019026203E+02  0.23909142561E+02  0.51100000000E-03 0.  1.
        -12    1    3    3    0    0  0.14709936782E+01  0.46240249799E+01  0.35049047137E+00  0.48650049319E+01  0.00000000000E+00 0.  1.
</event>
<event>
 7    1  0.2497395E-009  0.4778727E+02  0.7816164E-02  0.1312668E+00
        -11   -1    0    0    0    0  0.00000000000E+00  0.00000000000E+00  0.45593999997E+02  0.45594000000E+02  0.51100000000E-03 0. -1.
         11   -1    0    0    0    0 -0.00000000000E+00 -0.00000000000E+00 -0.45593999997E+02  0.45594000000E+02  0.51100000000E-03 0.  1.
    9900012    2    1    2    0    0  0.30669567553E+02  0.30643693914E+02 -0.19912681416E+01  0.47787268446E+02  0.19999988152E+02 0.  0.
        -12    1    1    2    0    0 -0.30669567553E+02 -0.30643693914E+02  0.19912681416E+01  0.43400731554E+02  0.00000000000E+00 0.  1.
         11    1    3    3    0    0  0.26040958150E+02  0.24296368844E+02 -0.18344890091E+01  0.35662450708E+02  0.51100000000E-03 0. -1.
        -11    1    3    3    0    0 -0.93751952672E+00  0.58303435363E+00  0.32389618715E+01  0.34219506406E+01  0.51100000000E-03 0.  1.
        -12    1    3    3    0    0  0.55661289303E+01  0.57642907170E+01 -0.33957410039E+01  0.87028670968E+01  0.00000000000E+00 0.  1.
</event>
<event>
 7    1  0.2497395E-009  0.4778727E+02  0.7816164E-02  0.1312668E+00
        -11   -1    0    0    0    0  0.00000000000E+00  0.00000000000E+00  0.45593999997E+02  0.45594000000E+02  0.51100000000E-03 0.  1.
         11   -1    0    0    0    0 -0.00000000000E+00 -0.00000000000E+00 -0.45593999997E+02  0.45594000000E+02  0.51100000000E-03 0. -1.
    9900012    2    1    2    0    0  0.28974454057E+02 -0.32083147425E+02 -0.38439221343E+01  0.47787273348E+02  0.20000010501E+02 0.  0.
        -12    1    1    2    0    0 -0.28974454057E+02  0.32083147425E+02  0.38439221343E+01  0.43400726652E+02  0.00000000000E+00 0.  1.
         11    1    3    3    0    0  0.43269000847E+01 -0.59054564692E+01 -0.37151142765E+01  0.82096622831E+01  0.51100000000E-03 0. -1.
        -11    1    3    3    0    0  0.24315481950E+02 -0.22060749548E+02 -0.49789912358E+01  0.33207072847E+02  0.51100000000E-03 0.  1.
        -12    1    3    3    0    0  0.33207202228E+00 -0.41169414079E+01  0.48501833780E+01  0.63705382178E+01  0.00000000000E+00 0.  1.
</event>
<event>
 7    1  0.2497395E-009  0.4778727E+02  0.7816164E-02  0.1312668E+00
        -11   -1    0    0    0    0  0.00000000000E+00  0.00000000000E+00  0.45593999997E+02  0.45594000000E+02  0.51100000000E-03 0.  1.
         11   -1    0    0    0    0 -0.00000000000E+00 -0.00000000000E+00 -0.45593999997E+02  0.45594000000E+02  0.51100000000E-03 0. -1.
    9900012    2    1    2    0    0 -0.18261810116E+02  0.88023515958E+01 -0.38375100158E+02  0.47787269424E+02  0.19999992613E+02 0.  0.
        -12    1    1    2    0    0  0.18261810116E+02 -0.88023515958E+01  0.38375100158E+02  0.43400730576E+02  0.00000000000E+00 0.  1.
         11    1    3    3    0    0 -0.57892618006E+01  0.11215576152E+02 -0.12591752449E+02  0.17828542583E+02  0.51100000000E-03 0. -1.
        -11    1    3    3    0    0 -0.12930624722E+01 -0.25411964570E+01 -0.14920965004E+01  0.32180805176E+01  0.51100000000E-03 0.  1.
         12    1    3    3    0    0 -0.11179485843E+02  0.12797190026E+00 -0.24291251209E+02  0.26740646324E+02  0.00000000000E+00 0. -1.
</event>
<event>
 7    1  0.2497395E-009  0.4778727E+02  0.7816164E-02  0.1312668E+00
        -11   -1    0    0    0    0  0.00000000000E+00  0.00000000000E+00  0.45593999997E+02  0.45594000000E+02  0.51100000000E-03 0.  1.
         11   -1    0    0    0    0 -0.00000000000E+00 -0.00000000000E+00 -0.45593999997E+02  0.45594000000E+02  0.51100000000E-03 0. -1.
    9900012    2    1    2    0    0  0.19116263385E+02  0.93758156394E+01 -0.37819121284E+02  0.47787269829E+02  0.19999994458E+02 0.  0.
        -12    1    1    2    0    0 -0.19116263385E+02 -0.93758156394E+01  0.37819121284E+02  0.43400730171E+02  0.00000000000E+00 0.  1.
         11    1    3    3    0    0  0.12295544858E+02 -0.78831522841E+00 -0.19907998347E+02  0.23412181929E+02  0.51100000000E-03 0. -1.
        -11    1    3    3    0    0  0.82236774668E-01  0.32555221203E+01  0.77185472427E+00  0.33467816091E+01  0.51100000000E-03 0.  1.
        -12    1    3    3    0    0  0.67384817525E+01  0.69086087476E+01 -0.18682977661E+02  0.21028306291E+02  0.00000000000E+00 0.  1.
</event>
<event>
 7    1  0.2497395E-009  0.4778726E+02  0.7816164E-02  0.1312668E+00
        -11   -1    0    0    0    0  0.00000000000E+00  0.00000000000E+00  0.45593999997E+02  0.45594000000E+02  0.51100000000E-03 0.  1.
         11   -1    0    0    0    0 -0.00000000000E+00 -0.00000000000E+00 -0.45593999997E+02  0.45594000000E+02  0.51100000000E-03 0. -1.
    9900012    2    1    2    0    0 -0.19888634101E+01  0.23358049035E+02 -0.36524930937E+02  0.47787255625E+02  0.19999929696E+02 0.  0.
        -12    1    1    2    0    0  0.19888634101E+01 -0.23358049035E+02  0.36524930937E+02  0.43400744375E+02  0.00000000000E+00 0.  1.
         11    1    3    3    0    0 -0.50350724421E+01  0.14587559927E+02 -0.14774441610E+02  0.21364292272E+02  0.51100000000E-03 0. -1.
        -11    1    3    3    0    0 -0.66047962391E+00  0.39997615925E+01 -0.19592714047E+02  0.20007717764E+02  0.51100000000E-03 0.  1.
        -12    1    3    3    0    0  0.37066886559E+01  0.47707275148E+01 -0.21577752800E+01  0.64152455893E+01  0.00000000000E+00 0.  1.
</event>
<event>
 7    1  0.2497395E-009  0.4778727E+02  0.7816164E-02  0.1312668E+00
        -11   -1    0    0    0    0  0.00000000000E+00  0.00000000000E+00  0.45593999997E+02  0.45594000000E+02  0.51100000000E-03 0.  1.
         11   -1    0    0    0    0 -0.00000000000E+00 -0.00000000000E+00 -0.45593999997E+02  0.45594000000E+02  0.51100000000E-03 0. -1.
    9900012    2    1    2    0    0 -0.38830402737E+02 -0.68725933810E+01 -0.18127065512E+02  0.47787271659E+02  0.20000002801E+02 0.  0.
        -12    1    1    2    0    0  0.38830402737E+02  0.68725933810E+01  0.18127065512E+02  0.43400728341E+02  0.00000000000E+00 0.  1.
         11    1    3    3    0    0 -0.12900414545E+02 -0.96282519535E+01 -0.10762006001E+02  0.19363488956E+02  0.51100000000E-03 0. -1.
        -11    1    3    3    0    0 -0.54825434616E+01  0.38317667932E+01 -0.36293361496E+01  0.76100460388E+01  0.51100000000E-03 0.  1.
         12    1    3    3    0    0 -0.20447444730E+02 -0.10761082207E+01 -0.37357233615E+01  0.20813736664E+02  0.00000000000E+00 0. -1.
</event>
<event>
 7    1  0.2497395E-009  0.4778727E+02  0.7816164E-02  0.1312668E+00
        -11   -1    0    0    0    0  0.00000000000E+00  0.00000000000E+00  0.45593999997E+02  0.45594000000E+02  0.51100000000E-03 0. -1.
         11   -1    0    0    0    0 -0.00000000000E+00 -0.00000000000E+00 -0.45593999997E+02  0.45594000000E+02  0.51100000000E-03 0.  1.
    9900012    2    1    2    0    0  0.73153622632E+01  0.37827513823E+02 -0.19979689895E+02  0.47787270336E+02  0.19999996770E+02 0.  0.
        -12    1    1    2    0    0 -0.73153622632E+01 -0.37827513823E+02  0.19979689895E+02  0.43400729664E+02  0.00000000000E+00 0.  1.
         11    1    3    3    0    0  0.43942345609E+01  0.57322096694E+01 -0.97496901900E+01  0.12133589087E+02  0.51100000000E-03 0. -1.
        -11    1    3    3    0    0 -0.26765787045E+01  0.21983230994E+02 -0.94246209960E+01  0.24067613087E+02  0.51100000000E-03 0.  1.
         12    1    3    3    0    0  0.55977064068E+01  0.10112073159E+02 -0.80537870914E+00  0.11586068162E+02  0.00000000000E+00 0. -1.
</event>
<event>
 7    1  0.2497395E-009  0.4778727E+02  0.7816164E-02  0.1312668E+00
        -11   -1    0    0    0    0  0.00000000000E+00  0.00000000000E+00  0.45593999997E+02  0.45594000000E+02  0.51100000000E-03 0.  1.
         11   -1    0    0    0    0 -0.00000000000E+00 -0.00000000000E+00 -0.45593999997E+02  0.45594000000E+02  0.51100000000E-03 0. -1.
    9900012    2    1    2    0    0 -0.21014081995E+02 -0.21506358117E+02 -0.31297095374E+02  0.47787271200E+02  0.20000000710E+02 0.  0.
        -12    1    1    2    0    0  0.21014081995E+02  0.21506358117E+02  0.31297095374E+02  0.43400728800E+02  0.00000000000E+00 0.  1.
         11    1    3    3    0    0 -0.62730841586E+01 -0.14177871398E+01 -0.44862566828E+01  0.78414414823E+01  0.51100000000E-03 0. -1.
        -11    1    3    3    0    0 -0.12571515025E+02 -0.59307383132E+01 -0.19266223325E+02  0.23757188563E+02  0.51100000000E-03 0.  1.
        -12    1    3    3    0    0 -0.21694828107E+01 -0.14157832664E+02 -0.75446153660E+01  0.16188641154E+02  0.00000000000E+00 0.  1.
</event>
<event>
 7    1  0.2497395E-009  0.4778727E+02  0.7816164E-02  0.1312668E+00
        -11   -1    0    0    0    0  0.00000000000E+00  0.00000000000E+00  0.45593999997E+02  0.45594000000E+02  0.51100000000E-03 0.  1.
         11   -1    0    0    0    0 -0.00000000000E+00 -0.00000000000E+00 -0.45593999997E+02  0.45594000000E+02  0.51100000000E-03 0. -1.
    9900012    2    1    2    0    0  0.40768127929E+02 -0.12320611608E+02 -0.83537658622E+01  0.47787272709E+02  0.20000007592E+02 0.  0.
        -12    1    1    2    0    0 -0.40768127929E+02  0.12320611608E+02  0.83537658622E+01  0.43400727291E+02  0.00000000000E+00 0.  1.
         11    1    3    3    0    0  0.35374479442E+02 -0.16905393340E+02 -0.68914189768E+01  0.39807509034E+02  0.51100000000E-03 0. -1.
        -11    1    3    3    0    0  0.15280973179E+00  0.19890911988E+01 -0.43424505003E+00  0.20416668768E+01  0.51100000000E-03 0.  1.
         12    1    3    3    0    0  0.52408387559E+01  0.25956905323E+01 -0.10281018354E+01  0.59380967985E+01  0.00000000000E+00 0. -1.
</event>
<event>
 7    1  0.2497395E-009  0.4778728E+02  0.7816164E-02  0.1312668E+00
        -11   -1    0    0    0    0  0.00000000000E+00  0.00000000000E+00  0.45593999997E+02  0.45594000000E+02  0.51100000000E-03 0.  1.
         11   -1    0    0    0    0 -0.00000000000E+00 -0.00000000000E+00 -0.45593999997E+02  0.45594000000E+02  0.51100000000E-03 0. -1.
    9900012    2    1    2    0    0 -0.37069412380E+01  0.33615475602E+02 -0.27200746124E+02  0.47787283382E+02  0.20000056251E+02 0.  0.
        -12    1    1    2    0    0  0.37069412380E+01 -0.33615475602E+02  0.27200746124E+02  0.43400716618E+02  0.00000000000E+00 0.  1.
         11    1    3    3    0    0 -0.43535716258E+01  0.21698870664E+02 -0.76916955959E+01  0.23429826192E+02  0.51100000000E-03 0. -1.
        -11    1    3    3    0    0  0.36277578776E+01  0.20161304670E+01 -0.68896396750E+01  0.80431675596E+01  0.51100000000E-03 0.  1.
        -12    1    3    3    0    0 -0.29811274898E+01  0.99004744703E+01 -0.12619410853E+02  0.16314289630E+02  0.00000000000E+00 0.  1.
</event>
<event>
 7    1  0.2497395E-009  0.4778726E+02  0.7816164E-02  0.1312668E+00
        -11   -1    0    0    0    0  0.00000000000E+00  0.00000000000E+00  0.45593999997E+02  0.45594000000E+02  0.51100000000E-03 0.  1.
         11   -1    0    0    0    0 -0.00000000000E+00 -0.00000000000E+00 -0.45593999997E+02  0.45594000000E+02  0.51100000000E-03 0. -1.
    9900012    2    1    2    0    0  0.20752142231E+00 -0.38453400515E+02 -0.20122546443E+02  0.47787263236E+02  0.19999964396E+02 0.  0.
        -12    1    1    2    0    0 -0.20752142231E+00  0.38453400515E+02  0.20122546443E+02  0.43400736764E+02  0.00000000000E+00 0.  1.
         11    1    3    3    0    0  0.25767481494E+00 -0.19467916913E+02 -0.18603642401E+02  0.26928826490E+02  0.51100000000E-03 0. -1.
        -11    1    3    3    0    0 -0.48938722263E+00 -0.19229995803E+02 -0.28401757041E+01  0.19444763736E+02  0.51100000000E-03 0.  1.
        -12    1    3    3    0    0  0.43923383000E+00  0.24451220142E+00  0.13212716622E+01  0.14136730101E+01  0.00000000000E+00 0.  1.
</event>
<event>
 7    1  0.2497395E-009  0.4778727E+02  0.7816164E-02  0.1312668E+00
        -11   -1    0    0    0    0  0.00000000000E+00  0.00000000000E+00  0.45593999997E+02  0.45594000000E+02  0.51100000000E-03 0.  1.
         11   -1    0    0    0    0 -0.00000000000E+00 -0.00000000000E+00 -0.45593999997E+02  0.45594000000E+02  0.51100000000E-03 0. -1.
    9900012    2    1    2    0    0  0.18842324158E+02 -0.27632126900E+02 -0.27659640568E+02  0.47787270363E+02  0.19999996893E+02 0.  0.
        -12    1    1    2    0    0 -0.18842324158E+02  0.27632126900E+02  0.27659640568E+02  0.43400729637E+02  0.00000000000E+00 0.  1.
         11    1    3    3    0    0  0.22223649684E+01 -0.61490835529E+00 -0.42687346572E+01  0.48517124990E+01  0.51100000000E-03 0. -1.
        -11    1    3    3    0    0  0.92040011957E+01 -0.61612385880E+01 -0.49160921527E+00  0.11086756912E+02  0.51100000000E-03 0.  1.
        -12    1    3    3    0    0  0.74159579941E+01 -0.20855979957E+02 -0.22899296695E+02  0.31848800952E+02  0.00000000000E+00 0.  1.
</event>
<event>
 7    1  0.2497395E-009  0.4778727E+02  0.7816164E-02  0.1312668E+00
        -11   -1    0    0    0    0  0.00000000000E+00  0.00000000000E+00  0.45593999997E+02  0.45594000000E+02  0.51100000000E-03 0.  1.
         11   -1    0    0    0    0 -0.00000000000E+00 -0.00000000000E+00 -0.45593999997E+02  0.45594000000E+02  0.51100000000E-03 0. -1.
    9900012    2    1    2    0    0  0.17245529093E+01 -0.31570160191E+02 -0.29731707245E+02  0.47787268290E+02  0.19999987442E+02 0.  0.
        -12    1    1    2    0    0 -0.17245529093E+01  0.31570160191E+02  0.29731707245E+02  0.43400731710E+02  0.00000000000E+00 0.  1.
         11    1    3    3    0    0 -0.37960513487E+00 -0.17210486526E+02 -0.11368491097E+02  0.20629773062E+02  0.51100000000E-03 0. -1.
        -11    1    3    3    0    0 -0.45338434569E+01 -0.45099141287E+01 -0.12203535328E+02  0.13777566429E+02  0.51100000000E-03 0.  1.
        -12    1    3    3    0    0  0.66380015010E+01 -0.98497595364E+01 -0.61596808200E+01  0.13379928799E+02  0.00000000000E+00 0.  1.
</event>
<event>
 7    1  0.2497395E-009  0.4778727E+02  0.7816164E-02  0.1312668E+00
        -11   -1    0    0    0    0  0.00000000000E+00  0.00000000000E+00  0.45593999997E+02  0.45594000000E+02  0.51100000000E-03 0.  1.
         11   -1    0    0    0    0 -0.00000000000E+00 -0.00000000000E+00 -0.45593999997E+02  0.45594000000E+02  0.51100000000E-03 0. -1.
    9900012    2    1    2    0    0 -0.74352936924E+01 -0.14205680717E+02 -0.40330363446E+02  0.47787272212E+02  0.20000005321E+02 0.  0.
        -12    1    1    2    0    0  0.74352936924E+01  0.14205680717E+02  0.40330363446E+02  0.43400727788E+02  0.00000000000E+00 0.  1.
         11    1    3    3    0    0 -0.29102799669E+01 -0.12635956224E+02 -0.27518197052E+02  0.30420195405E+02  0.51100000000E-03 0. -1.
        -11    1    3    3    0    0  0.80227020056E+00  0.37424483571E+01 -0.65153818749E+01  0.75564382097E+01  0.51100000000E-03 0.  1.
        -12    1    3    3    0    0 -0.53272839261E+01 -0.53121728501E+01 -0.62967845182E+01  0.98106385973E+01  0.00000000000E+00 0.  1.
</event>
<event>
 7    1  0.2497395E-009  0.4778727E+02  0.7816164E-02  0.1312668E+00
        -11   -1    0    0    0    0  0.00000000000E+00  0.00000000000E+00  0.45593999997E+02  0.45594000000E+02  0.51100000000E-03 0.  1.
         11   -1    0    0    0    0 -0.00000000000E+00 -0.00000000000E+00 -0.45593999997E+02  0.45594000000E+02  0.51100000000E-03 0. -1.
    9900012    2    1    2    0    0 -0.38733222719E+02 -0.83808117086E+01 -0.17695273088E+02  0.47787271472E+02  0.20000001950E+02 0.  0.
        -12    1    1    2    0    0  0.38733222719E+02  0.83808117086E+01  0.17695273088E+02  0.43400728528E+02  0.00000000000E+00 0.  1.
         11    1    3    3    0    0 -0.17853319949E+01 -0.12595482947E+01  0.31257776648E+01  0.38137066628E+01  0.51100000000E-03 0. -1.
        -11    1    3    3    0    0 -0.17861944159E+01  0.17107867784E+01 -0.14976064756E+01  0.28913850157E+01  0.51100000000E-03 0.  1.
         12    1    3    3    0    0 -0.35161696308E+02 -0.88320501923E+01 -0.19323444277E+02  0.41082179794E+02  0.00000000000E+00 0. -1.
</event>
<event>
 7    1  0.2497395E-009  0.4778733E+02  0.7816164E-02  0.1312667E+00
        -11   -1    0    0    0    0  0.00000000000E+00  0.00000000000E+00  0.45593999997E+02  0.45594000000E+02  0.51100000000E-03 0.  1.
         11   -1    0    0    0    0 -0.00000000000E+00 -0.00000000000E+00 -0.45593999997E+02  0.45594000000E+02  0.51100000000E-03 0. -1.
    9900012    2    1    2    0    0  0.45129946362E+01 -0.29003848294E+02 -0.31969166135E+02  0.47787332726E+02  0.20000281231E+02 0.  0.
        -12    1    1    2    0    0 -0.45129946362E+01  0.29003848294E+02  0.31969166135E+02  0.43400667274E+02  0.00000000000E+00 0.  1.
         11    1    3    3    0    0 -0.42086277032E+01 -0.19156653308E+02 -0.20012471888E+02  0.28021223107E+02  0.51100000000E-03 0. -1.
        -11    1    3    3    0    0  0.10082382777E+02 -0.95522342452E+01 -0.91469157149E+01  0.16630264246E+02  0.51100000000E-03 0.  1.
         12    1    3    3    0    0 -0.13607604374E+01 -0.29496074085E+00 -0.28097785317E+01  0.31358453731E+01  0.00000000000E+00 0. -1.
</event>
<event>
 7    1  0.2497395E-009  0.4778727E+02  0.7816164E-02  0.1312668E+00
        -11   -1    0    0    0    0  0.00000000000E+00  0.00000000000E+00  0.45593999997E+02  0.45594000000E+02  0.51100000000E-03 0.  1.
         11   -1    0    0    0    0 -0.00000000000E+00 -0.00000000000E+00 -0.45593999997E+02  0.45594000000E+02  0.51100000000E-03 0. -1.
    9900012    2    1    2    0    0  0.64432779930E+01  0.28872520945E+02 -0.31756650917E+02  0.47787272190E+02  0.20000005223E+02 0.  0.
        -12    1    1    2    0    0 -0.64432779930E+01 -0.28872520945E+02  0.31756650917E+02  0.43400727810E+02  0.00000000000E+00 0.  1.
         11    1    3    3    0    0  0.10669468671E+02  0.25151024115E+02 -0.27842736131E+02  0.39008070079E+02  0.51100000000E-03 0. -1.
        -11    1    3    3    0    0 -0.21213213012E+01  0.94686025218E-01 -0.40616692753E+01  0.45832441643E+01  0.51100000000E-03 0.  1.
         12    1    3    3    0    0 -0.21048693770E+01  0.36268108040E+01  0.14775448916E+00  0.41959579468E+01  0.00000000000E+00 0. -1.
</event>
<event>
 7    1  0.2497395E-009  0.4778727E+02  0.7816164E-02  0.1312668E+00
        -11   -1    0    0    0    0  0.00000000000E+00  0.00000000000E+00  0.45593999997E+02  0.45594000000E+02  0.51100000000E-03 0. -1.
         11   -1    0    0    0    0 -0.00000000000E+00 -0.00000000000E+00 -0.45593999997E+02  0.45594000000E+02  0.51100000000E-03 0.  1.
    9900012    2    1    2    0    0 -0.93662448432E+01 -0.36410578585E+02  0.21683319612E+02  0.47787272763E+02  0.20000007834E+02 0.  0.
        -12    1    1    2    0    0  0.93662448432E+01  0.36410578585E+02 -0.21683319612E+02  0.43400727237E+02  0.00000000000E+00 0.  1.
         11    1    3    3    0    0  0.16637799223E+01 -0.13793581325E+01  0.28937905204E+01  0.36117608344E+01  0.51100000000E-03 0.  1.
        -11    1    3    3    0    0 -0.37820086111E+01 -0.13554221389E+02  0.16047125736E+02  0.21343166383E+02  0.51100000000E-03 0. -1.
        -12    1    3    3    0    0 -0.72480161545E+01 -0.21476999063E+02  0.27424033549E+01  0.22832345545E+02  0.00000000000E+00 0.  1.
</event>
<event>
 7    1  0.2497395E-009  0.4778728E+02  0.7816164E-02  0.1312668E+00
        -11   -1    0    0    0    0  0.00000000000E+00  0.00000000000E+00  0.45593999997E+02  0.45594000000E+02  0.51100000000E-03 0.  1.
         11   -1    0    0    0    0 -0.00000000000E+00 -0.00000000000E+00 -0.45593999997E+02  0.45594000000E+02  0.51100000000E-03 0. -1.
    9900012    2    1    2    0    0  0.19024504836E+02 -0.15990833940E+02 -0.35580665793E+02  0.47787281889E+02  0.20000049443E+02 0.  0.
        -12    1    1    2    0    0 -0.19024504836E+02  0.15990833940E+02  0.35580665793E+02  0.43400718111E+02  0.00000000000E+00 0.  1.
         11    1    3    3    0    0  0.80340350634E+00 -0.25978819652E+01  0.23174441907E+01  0.35728134204E+01  0.51100000000E-03 0.  1.
        -11    1    3    3    0    0  0.16760877176E+02 -0.11752676586E+02 -0.35360872589E+02  0.40858826723E+02  0.51100000000E-03 0. -1.
        -12    1    3    3    0    0  0.14602241528E+01 -0.16402753886E+01 -0.25372373940E+01  0.33556417449E+01  0.00000000000E+00 0.  1.
</event>
<event>
 7    1  0.2497395E-009  0.4778727E+02  0.7816164E-02  0.1312668E+00
        -11   -1    0    0    0    0  0.00000000000E+00  0.00000000000E+00  0.45593999997E+02  0.45594000000E+02  0.51100000000E-03 0.  1.
         11   -1    0    0    0    0 -0.00000000000E+00 -0.00000000000E+00 -0.45593999997E+02  0.45594000000E+02  0.51100000000E-03 0. -1.
    9900012    2    1    2    0    0 -0.17725461182E+02 -0.21004319366E+02 -0.33589429446E+02  0.47787272164E+02  0.20000005104E+02 0.  0.
        -12    1    1    2    0    0  0.17725461182E+02  0.21004319366E+02  0.33589429446E+02  0.43400727836E+02  0.00000000000E+00 0.  1.
         11    1    3    3    0    0 -0.74007210493E+01 -0.66517819267E+01 -0.25338597917E+02  0.27222443305E+02  0.51100000000E-03 0. -1.
        -11    1    3    3    0    0 -0.73168678559E+01 -0.48598147340E+01 -0.28376777374E+01  0.92307513059E+01  0.51100000000E-03 0.  1.
         12    1    3    3    0    0 -0.30078722773E+01 -0.94927227054E+01 -0.54131537924E+01  0.11334077553E+02  0.00000000000E+00 0. -1.
</event>
<event>
 7    1  0.2497395E-009  0.4778728E+02  0.7816164E-02  0.1312668E+00
        -11   -1    0    0    0    0  0.00000000000E+00  0.00000000000E+00  0.45593999997E+02  0.45594000000E+02  0.51100000000E-03 0. -1.
         11   -1    0    0    0    0 -0.00000000000E+00 -0.00000000000E+00 -0.45593999997E+02  0.45594000000E+02  0.51100000000E-03 0.  1.
    9900012    2    1    2    0    0  0.38758268138E+02 -0.13847651758E+02  0.13771774631E+02  0.47787278983E+02  0.20000036196E+02 0.  0.
        -12    1    1    2    0    0 -0.38758268138E+02  0.13847651758E+02 -0.13771774631E+02  0.43400721017E+02  0.00000000000E+00 0.  1.
         11    1    3    3    0    0  0.86317903435E+01  0.34795663627E+01  0.59542763166E+01  0.11048465655E+02  0.51100000000E-03 0. -1.
        -11    1    3    3    0    0  0.25501123187E+02 -0.11217841045E+02  0.38948642130E+01  0.28130360982E+02  0.51100000000E-03 0.  1.
         12    1    3    3    0    0  0.46253546079E+01 -0.61093770759E+01  0.39226341016E+01  0.86084523463E+01  0.00000000000E+00 0. -1.
</event>
<event>
 7    1  0.2497395E-009  0.4778727E+02  0.7816164E-02  0.1312668E+00
        -11   -1    0    0    0    0  0.00000000000E+00  0.00000000000E+00  0.45593999997E+02  0.45594000000E+02  0.51100000000E-03 0. -1.
         11   -1    0    0    0    0 -0.00000000000E+00 -0.00000000000E+00 -0.45593999997E+02  0.45594000000E+02  0.51100000000E-03 0.  1.
    9900012    2    1    2    0    0 -0.18788207986E+02  0.38072070037E+02 -0.90079776423E+01  0.47787274920E+02  0.20000017672E+02 0.  0.
        -12    1    1    2    0    0  0.18788207986E+02 -0.38072070037E+02  0.90079776423E+01  0.43400725080E+02  0.00000000000E+00 0.  1.
         11    1    3    3    0    0 -0.39486705030E+01  0.53970806446E+01  0.57820892194E-01  0.66875871390E+01  0.51100000000E-03 0. -1.
        -11    1    3    3    0    0 -0.63762560402E+01  0.65004330745E+00  0.98384767320E+00  0.64843776800E+01  0.51100000000E-03 0.  1.
        -12    1    3    3    0    0 -0.84632814432E+01  0.32024946085E+02 -0.10049646208E+02  0.34615310101E+02  0.00000000000E+00 0.  1.
</event>
<event>
 7    1  0.2497395E-009  0.4778724E+02  0.7816164E-02  0.1312668E+00
        -11   -1    0    0    0    0  0.00000000000E+00  0.00000000000E+00  0.45593999997E+02  0.45594000000E+02  0.51100000000E-03 0. -1.
         11   -1    0    0    0    0 -0.00000000000E+00 -0.00000000000E+00 -0.45593999997E+02  0.45594000000E+02  0.51100000000E-03 0.  1.
    9900012    2    1    2    0    0 -0.26630251746E+02  0.34066949300E+02 -0.37281048168E+01  0.47787238391E+02  0.19999851121E+02 0.  0.
        -12    1    1    2    0    0  0.26630251746E+02 -0.34066949300E+02  0.37281048168E+01  0.43400761609E+02  0.00000000000E+00 0.  1.
         11    1    3    3    0    0 -0.76186481184E+01  0.24093998745E+02 -0.63740585626E+01  0.26061335298E+02  0.51100000000E-03 0. -1.
        -11    1    3    3    0    0 -0.98944404943E+01  0.60231844673E+01  0.72709084509E+00  0.11606350209E+02  0.51100000000E-03 0.  1.
         12    1    3    3    0    0 -0.91171631330E+01  0.39497660876E+01  0.19188629007E+01  0.10119552884E+02  0.00000000000E+00 0. -1.
</event>
<event>
 7    1  0.2497395E-009  0.4778727E+02  0.7816164E-02  0.1312668E+00
        -11   -1    0    0    0    0  0.00000000000E+00  0.00000000000E+00  0.45593999997E+02  0.45594000000E+02  0.51100000000E-03 0. -1.
         11   -1    0    0    0    0 -0.00000000000E+00 -0.00000000000E+00 -0.45593999997E+02  0.45594000000E+02  0.51100000000E-03 0.  1.
    9900012    2    1    2    0    0  0.43236549603E+02 -0.34958467275E+01 -0.14153672855E+01  0.47787269240E+02  0.19999991774E+02 0.  0.
        -12    1    1    2    0    0 -0.43236549603E+02  0.34958467275E+01  0.14153672855E+01  0.43400730760E+02  0.00000000000E+00 0.  1.
         11    1    3    3    0    0  0.56696438357E+00 -0.25014826888E+01  0.29067987726E+01  0.38766407649E+01  0.51100000000E-03 0. -1.
        -11    1    3    3    0    0  0.44518866051E+01 -0.30748098001E+01 -0.18894818383E+00  0.54138204005E+01  0.51100000000E-03 0.  1.
         12    1    3    3    0    0  0.38217698614E+02  0.20804457614E+01 -0.41332178742E+01  0.38496808075E+02  0.00000000000E+00 0. -1.
</event>
<event>
 7    1  0.2497395E-009  0.4778727E+02  0.7816164E-02  0.1312668E+00
        -11   -1    0    0    0    0  0.00000000000E+00  0.00000000000E+00  0.45593999997E+02  0.45594000000E+02  0.51100000000E-03 0.  1.
         11   -1    0    0    0    0 -0.00000000000E+00 -0.00000000000E+00 -0.45593999997E+02  0.45594000000E+02  0.51100000000E-03 0. -1.
    9900012    2    1    2    0    0 -0.57203003783E+01  0.33112023662E+02 -0.27468074456E+02  0.47787273488E+02  0.20000011143E+02 0.  0.
        -12    1    1    2    0    0  0.57203003783E+01 -0.33112023662E+02  0.27468074456E+02  0.43400726512E+02  0.00000000000E+00 0.  1.
         11    1    3    3    0    0 -0.35488426845E+00  0.27564105601E+02 -0.25334175189E+02  0.37439635324E+02  0.51100000000E-03 0. -1.
        -11    1    3    3    0    0 -0.50442840285E+01  0.15371701982E+01 -0.32217436970E+01  0.61795894919E+01  0.51100000000E-03 0.  1.
         12    1    3    3    0    0 -0.32113208136E+00  0.40107478630E+01  0.10878444300E+01  0.41680486727E+01  0.00000000000E+00 0. -1.
</event>
<event>
 7    1  0.2497395E-009  0.4778727E+02  0.7816164E-02  0.1312668E+00
        -11   -1    0    0    0    0  0.00000000000E+00  0.00000000000E+00  0.45593999997E+02  0.45594000000E+02  0.51100000000E-03 0. -1.
         11   -1    0    0    0    0 -0.00000000000E+00 -0.00000000000E+00 -0.45593999997E+02  0.45594000000E+02  0.51100000000E-03 0.  1.
    9900012    2    1    2    0    0 -0.32689479152E+02  0.28389682825E+02  0.30078694594E+01  0.47787269397E+02  0.19999992490E+02 0.  0.
        -12    1    1    2    0    0  0.32689479152E+02 -0.28389682825E+02 -0.30078694594E+01  0.43400730603E+02  0.00000000000E+00 0.  1.
         11    1    3    3    0    0 -0.48823148708E+01  0.55002742186E+01  0.34332704964E+01  0.81164870196E+01  0.51100000000E-03 0. -1.
        -11    1    3    3    0    0  0.14654844768E+01  0.31745790403E+01 -0.25295611194E+01  0.43155853083E+01  0.51100000000E-03 0.  1.
        -12    1    3    3    0    0 -0.29272648758E+02  0.19714829566E+02  0.21041600824E+01  0.35355197069E+02  0.00000000000E+00 0.  1.
</event>
<event>
 7    1  0.2497395E-009  0.4778727E+02  0.7816164E-02  0.1312668E+00
        -11   -1    0    0    0    0  0.00000000000E+00  0.00000000000E+00  0.45593999997E+02  0.45594000000E+02  0.51100000000E-03 0. -1.
         11   -1    0    0    0    0 -0.00000000000E+00 -0.00000000000E+00 -0.45593999997E+02  0.45594000000E+02  0.51100000000E-03 0.  1.
    9900012    2    1    2    0    0  0.94126729811E+01  0.19287660204E+02  0.37722818232E+02  0.47787271156E+02  0.20000000508E+02 0.  0.
        -12    1    1    2    0    0 -0.94126729811E+01 -0.19287660204E+02 -0.37722818232E+02  0.43400728844E+02  0.00000000000E+00 0.  1.
         11    1    3    3    0    0  0.13098097688E+01  0.18573084416E+02  0.17238062250E+02  0.25373723746E+02  0.51100000000E-03 0. -1.
        -11    1    3    3    0    0  0.30959713201E+01  0.13920700960E+01  0.12596864241E+02  0.13046221159E+02  0.51100000000E-03 0.  1.
         12    1    3    3    0    0  0.50068918922E+01 -0.67749430740E+00  0.78878917415E+01  0.93673262505E+01  0.00000000000E+00 0. -1.
</event>
<event>
 7    1  0.2497395E-009  0.4778727E+02  0.7816164E-02  0.1312668E+00
        -11   -1    0    0    0    0  0.00000000000E+00  0.00000000000E+00  0.45593999997E+02  0.45594000000E+02  0.51100000000E-03 0.  1.
         11   -1    0    0    0    0 -0.00000000000E+00 -0.00000000000E+00 -0.45593999997E+02  0.45594000000E+02  0.51100000000E-03 0. -1.
    9900012    2    1    2    0    0 -0.30792168884E+02 -0.22905552960E+02 -0.20268239886E+02  0.47787267644E+02  0.19999984495E+02 0.  0.
        -12    1    1    2    0    0  0.30792168884E+02  0.22905552960E+02  0.20268239886E+02  0.43400732356E+02  0.00000000000E+00 0.  1.
         11    1    3    3    0    0 -0.15554180246E+02 -0.10405847348E+02 -0.12468832976E+02  0.22487462689E+02  0.51100000000E-03 0. -1.
        -11    1    3    3    0    0 -0.78559523018E+01 -0.46857928290E+01  0.34164396576E+01  0.97644611321E+01  0.51100000000E-03 0.  1.
        -12    1    3    3    0    0 -0.73820363357E+01 -0.78139127829E+01 -0.11215846568E+02  0.15535343822E+02  0.00000000000E+00 0.  1.
</event>
<event>
 7    1  0.2497395E-009  0.4778728E+02  0.7816164E-02  0.1312668E+00
        -11   -1    0    0    0    0  0.00000000000E+00  0.00000000000E+00  0.45593999997E+02  0.45594000000E+02  0.51100000000E-03 0.  1.
         11   -1    0    0    0    0 -0.00000000000E+00 -0.00000000000E+00 -0.45593999997E+02  0.45594000000E+02  0.51100000000E-03 0. -1.
    9900012    2    1    2    0    0  0.28224435972E+02 -0.14162484926E+02 -0.29772938098E+02  0.47787278713E+02  0.20000034966E+02 0.  0.
        -12    1    1    2    0    0 -0.28224435972E+02  0.14162484926E+02  0.29772938098E+02  0.43400721287E+02  0.00000000000E+00 0.  1.
         11    1    3    3    0    0  0.62300632647E+01 -0.61763505288E+00 -0.17166340439E+02  0.18272339907E+02  0.51100000000E-03 0. -1.
        -11    1    3    3    0    0  0.84193601216E+01 -0.86002393260E+01 -0.39227408676E+01  0.12658500602E+02  0.51100000000E-03 0.  1.
         12    1    3    3    0    0  0.13575012586E+02 -0.49446105470E+01 -0.86838567916E+01  0.16856438205E+02  0.00000000000E+00 0. -1.
</event>
<event>
 7    1  0.2497395E-009  0.4778727E+02  0.7816164E-02  0.1312668E+00
        -11   -1    0    0    0    0  0.00000000000E+00  0.00000000000E+00  0.45593999997E+02  0.45594000000E+02  0.51100000000E-03 0.  1.
         11   -1    0    0    0    0 -0.00000000000E+00 -0.00000000000E+00 -0.45593999997E+02  0.45594000000E+02  0.51100000000E-03 0. -1.
    9900012    2    1    2    0    0 -0.17543445330E+02 -0.32574159105E+02 -0.22688653027E+02  0.47787270840E+02  0.19999999066E+02 0.  0.
        -12    1    1    2    0    0  0.17543445330E+02  0.32574159105E+02  0.22688653027E+02  0.43400729160E+02  0.00000000000E+00 0.  1.
         11    1    3    3    0    0 -0.33251846620E+00 -0.17473274469E+02 -0.12015788518E+02  0.21208608233E+02  0.51100000000E-03 0.  1.
        -11    1    3    3    0    0 -0.34529402540E+00 -0.24064983779E+00 -0.26933170529E+01  0.27260039099E+01  0.51100000000E-03 0. -1.
         12    1    3    3    0    0 -0.16865632838E+02 -0.14860234799E+02 -0.79795474565E+01  0.23852658697E+02  0.00000000000E+00 0. -1.
</event>
<event>
 7    1  0.2497395E-009  0.4778726E+02  0.7816164E-02  0.1312668E+00
        -11   -1    0    0    0    0  0.00000000000E+00  0.00000000000E+00  0.45593999997E+02  0.45594000000E+02  0.51100000000E-03 0.  1.
         11   -1    0    0    0    0 -0.00000000000E+00 -0.00000000000E+00 -0.45593999997E+02  0.45594000000E+02  0.51100000000E-03 0. -1.
    9900012    2    1    2    0    0  0.55346643351E+01 -0.13294930245E+01 -0.43025851018E+02  0.47787263637E+02  0.19999966226E+02 0.  0.
        -12    1    1    2    0    0 -0.55346643351E+01  0.13294930245E+01  0.43025851018E+02  0.43400736363E+02  0.00000000000E+00 0.  1.
         11    1    3    3    0    0 -0.12906314293E+01  0.44463269816E+01 -0.21228265639E+02  0.21727282743E+02  0.51100000000E-03 0. -1.
        -11    1    3    3    0    0  0.30616240840E+01 -0.40413404545E+01 -0.14198947427E+01  0.52651757846E+01  0.51100000000E-03 0.  1.
        -12    1    3    3    0    0  0.37636716803E+01 -0.17344795516E+01 -0.20377690637E+02  0.20794805109E+02  0.00000000000E+00 0.  1.
</event>
<event>
 7    1  0.2497395E-009  0.4778727E+02  0.7816164E-02  0.1312668E+00
        -11   -1    0    0    0    0  0.00000000000E+00  0.00000000000E+00  0.45593999997E+02  0.45594000000E+02  0.51100000000E-03 0.  1.
         11   -1    0    0    0    0 -0.00000000000E+00 -0.00000000000E+00 -0.45593999997E+02  0.45594000000E+02  0.51100000000E-03 0. -1.
    9900012    2    1    2    0    0  0.37604438993E+02  0.95773470468E+01  0.19437175001E+02  0.47787272121E+02  0.20000004909E+02 0.  0.
        -12    1    1    2    0    0 -0.37604438993E+02 -0.95773470468E+01 -0.19437175001E+02  0.43400727879E+02  0.00000000000E+00 0.  1.
         11    1    3    3    0    0  0.77940624724E+01  0.57944015610E+01  0.12006256658E+02  0.15442561266E+02  0.51100000000E-03 0. -1.
        -11    1    3    3    0    0  0.71978509133E+01  0.47081680033E+01  0.38831136557E+01  0.94368678936E+01  0.51100000000E-03 0.  1.
         12    1    3    3    0    0  0.22612525607E+02 -0.92522251748E+00  0.35478046870E+01  0.22907842961E+02  0.00000000000E+00 0. -1.
</event>
<event>
 7    1  0.2497395E-009  0.4778726E+02  0.7816164E-02  0.1312668E+00
        -11   -1    0    0    0    0  0.00000000000E+00  0.00000000000E+00  0.45593999997E+02  0.45594000000E+02  0.51100000000E-03 0.  1.
         11   -1    0    0    0    0 -0.00000000000E+00 -0.00000000000E+00 -0.45593999997E+02  0.45594000000E+02  0.51100000000E-03 0. -1.
    9900012    2    1    2    0    0 -0.33500715885E+02  0.17881333830E+02  0.21013912597E+02  0.47787255917E+02  0.19999931029E+02 0.  0.
        -12    1    1    2    0    0  0.33500715885E+02 -0.17881333830E+02 -0.21013912597E+02  0.43400744083E+02  0.00000000000E+00 0.  1.
         11    1    3    3    0    0 -0.29780846892E+02  0.20046474764E+02  0.23113096008E+02  0.42696313651E+02  0.51100000000E-03 0. -1.
        -11    1    3    3    0    0 -0.25547221091E+01 -0.18166187402E+01 -0.65420925797E+00  0.32022958508E+01  0.51100000000E-03 0.  1.
         12    1    3    3    0    0 -0.11651468837E+01 -0.34852219359E+00 -0.14449741530E+01  0.18886464155E+01  0.00000000000E+00 0. -1.
</event>
<event>
 7    1  0.2497395E-009  0.4778727E+02  0.7816164E-02  0.1312668E+00
        -11   -1    0    0    0    0  0.00000000000E+00  0.00000000000E+00  0.45593999997E+02  0.45594000000E+02  0.51100000000E-03 0.  1.
         11   -1    0    0    0    0 -0.00000000000E+00 -0.00000000000E+00 -0.45593999997E+02  0.45594000000E+02  0.51100000000E-03 0. -1.
    9900012    2    1    2    0    0 -0.35489963113E+02  0.92876008069E+01 -0.23191085094E+02  0.47787269149E+02  0.19999991359E+02 0.  0.
        -12    1    1    2    0    0  0.35489963113E+02 -0.92876008069E+01  0.23191085094E+02  0.43400730851E+02  0.00000000000E+00 0.  1.
         11    1    3    3    0    0 -0.55395740616E+01  0.78029215282E+01 -0.16920930384E+01  0.97178003823E+01  0.51100000000E-03 0. -1.
        -11    1    3    3    0    0 -0.11615615166E+02 -0.90354683115E+00 -0.32609669890E+01  0.12098463478E+02  0.51100000000E-03 0.  1.
         12    1    3    3    0    0 -0.18334773886E+02  0.23882261099E+01 -0.18238025067E+02  0.25971005289E+02  0.00000000000E+00 0. -1.
</event>
<event>
 7    1  0.2497395E-009  0.4778727E+02  0.7816164E-02  0.1312668E+00
        -11   -1    0    0    0    0  0.00000000000E+00  0.00000000000E+00  0.45593999997E+02  0.45594000000E+02  0.51100000000E-03 0. -1.
         11   -1    0    0    0    0 -0.00000000000E+00 -0.00000000000E+00 -0.45593999997E+02  0.45594000000E+02  0.51100000000E-03 0.  1.
    9900012    2    1    2    0    0  0.27813874306E+02 -0.72765980698E+01  0.32512504230E+02  0.47787269423E+02  0.19999992605E+02 0.  0.
        -12    1    1    2    0    0 -0.27813874306E+02  0.72765980698E+01 -0.32512504230E+02  0.43400730577E+02  0.00000000000E+00 0.  1.
         11    1    3    3    0    0  0.18602816440E+02 -0.52454111574E+01  0.31685781944E+02  0.37115601779E+02  0.51100000000E-03 0. -1.
        -11    1    3    3    0    0  0.92676660035E+01 -0.27740212235E+01  0.13409770307E+01  0.97664244510E+01  0.51100000000E-03 0.  1.
        -12    1    3    3    0    0 -0.56608137211E-01  0.74283431109E+00 -0.51425474548E+00  0.90524319284E+00  0.00000000000E+00 0.  1.
</event>
<event>
 7    1  0.2497395E-009  0.4778726E+02  0.7816164E-02  0.1312668E+00
        -11   -1    0    0    0    0  0.00000000000E+00  0.00000000000E+00  0.45593999997E+02  0.45594000000E+02  0.51100000000E-03 0.  1.
         11   -1    0    0    0    0 -0.00000000000E+00 -0.00000000000E+00 -0.45593999997E+02  0.45594000000E+02  0.51100000000E-03 0. -1.
    9900012    2    1    2    0    0 -0.17852898826E+02  0.32308367130E+02 -0.22826897529E+02  0.47787264593E+02  0.19999970584E+02 0.  0.
        -12    1    1    2    0    0  0.17852898826E+02 -0.32308367130E+02  0.22826897529E+02  0.43400735407E+02  0.00000000000E+00 0.  1.
         11    1    3    3    0    0 -0.11216623473E+02  0.22185791458E+02 -0.21176012105E+02  0.32656476750E+02  0.51100000000E-03 0. -1.
        -11    1    3    3    0    0 -0.65424229242E+00  0.25251073623E+01  0.33488284834E+01  0.42448619107E+01  0.51100000000E-03 0.  1.
        -12    1    3    3    0    0 -0.59820330606E+01  0.75974683096E+01 -0.49997139072E+01  0.10885925932E+02  0.00000000000E+00 0.  1.
</event>
<event>
 7    1  0.2497395E-009  0.4778727E+02  0.7816164E-02  0.1312668E+00
        -11   -1    0    0    0    0  0.00000000000E+00  0.00000000000E+00  0.45593999997E+02  0.45594000000E+02  0.51100000000E-03 0. -1.
         11   -1    0    0    0    0 -0.00000000000E+00 -0.00000000000E+00 -0.45593999997E+02  0.45594000000E+02  0.51100000000E-03 0.  1.
    9900012    2    1    2    0    0 -0.96595155674E+01 -0.41944750821E+02 -0.55637596080E+01  0.47787265175E+02  0.19999973237E+02 0.  0.
        -12    1    1    2    0    0  0.96595155674E+01  0.41944750821E+02  0.55637596080E+01  0.43400734825E+02  0.00000000000E+00 0.  1.
         11    1    3    3    0    0 -0.41248069013E+01 -0.38185080304E+02 -0.21148235700E+01  0.38465398331E+02  0.51100000000E-03 0. -1.
        -11    1    3    3    0    0 -0.21607591625E+01 -0.40563614189E+00 -0.39678607737E+01  0.45362253271E+01  0.51100000000E-03 0.  1.
         12    1    3    3    0    0 -0.33739495036E+01 -0.33540343748E+01  0.51892473575E+00  0.47856415162E+01  0.00000000000E+00 0. -1.
</event>
<event>
 7    1  0.2497395E-009  0.4778727E+02  0.7816164E-02  0.1312668E+00
        -11   -1    0    0    0    0  0.00000000000E+00  0.00000000000E+00  0.45593999997E+02  0.45594000000E+02  0.51100000000E-03 0. -1.
         11   -1    0    0    0    0 -0.00000000000E+00 -0.00000000000E+00 -0.45593999997E+02  0.45594000000E+02  0.51100000000E-03 0.  1.
    9900012    2    1    2    0    0  0.77462453722E+01  0.37282091973E+02  0.20824616715E+02  0.47787270045E+02  0.19999995445E+02 0.  0.
        -12    1    1    2    0    0 -0.77462453722E+01 -0.37282091973E+02 -0.20824616715E+02  0.43400729955E+02  0.00000000000E+00 0.  1.
         11    1    3    3    0    0  0.12440791303E+00  0.73699282652E+01  0.27669539001E+01  0.78732048182E+01  0.51100000000E-03 0. -1.
        -11    1    3    3    0    0  0.20141273883E+01  0.41824205711E+00  0.79871333329E+01  0.82477836231E+01  0.51100000000E-03 0.  1.
        -12    1    3    3    0    0  0.56077100709E+01  0.29493921651E+02  0.10070529482E+02  0.31666281604E+02  0.00000000000E+00 0.  1.
</event>
<event>
 7    1  0.2497395E-009  0.4778727E+02  0.7816164E-02  0.1312668E+00
        -11   -1    0    0    0    0  0.00000000000E+00  0.00000000000E+00  0.45593999997E+02  0.45594000000E+02  0.51100000000E-03 0.  1.
         11   -1    0    0    0    0 -0.00000000000E+00 -0.00000000000E+00 -0.45593999997E+02  0.45594000000E+02  0.51100000000E-03 0. -1.
    9900012    2    1    2    0    0 -0.11701080852E+02 -0.41116270558E+02 -0.74940252383E+01  0.47787269453E+02  0.19999992744E+02 0.  0.
        -12    1    1    2    0    0  0.11701080852E+02  0.41116270558E+02  0.74940252383E+01  0.43400730547E+02  0.00000000000E+00 0.  1.
         11    1    3    3    0    0 -0.39534925323E+01 -0.17038133056E+02 -0.10480926042E+02  0.20390632461E+02  0.51100000000E-03 0. -1.
        -11    1    3    3    0    0 -0.20640349414E+01 -0.19080378143E+02  0.44192037932E+01  0.19693918675E+02  0.51100000000E-03 0.  1.
         12    1    3    3    0    0 -0.56835533782E+01 -0.49977593591E+01 -0.14323029900E+01  0.77027183169E+01  0.00000000000E+00 0. -1.
</event>
<event>
 7    1  0.2497395E-009  0.4778727E+02  0.7816164E-02  0.1312668E+00
        -11   -1    0    0    0    0  0.00000000000E+00  0.00000000000E+00  0.45593999997E+02  0.45594000000E+02  0.51100000000E-03 0.  1.
         11   -1    0    0    0    0 -0.00000000000E+00 -0.00000000000E+00 -0.45593999997E+02  0.45594000000E+02  0.51100000000E-03 0. -1.
    9900012    2    1    2    0    0  0.93095750760E+01 -0.41517560617E+02 -0.85584473374E+01  0.47787273641E+02  0.20000011839E+02 0.  0.
        -12    1    1    2    0    0 -0.93095750760E+01  0.41517560617E+02  0.85584473374E+01  0.43400726359E+02  0.00000000000E+00 0.  1.
         11    1    3    3    0    0  0.48453757894E+01 -0.28153928608E+02 -0.97072502418E+01  0.30172041199E+02  0.51100000000E-03 0. -1.
        -11    1    3    3    0    0  0.72919579229E+01 -0.52499235273E+01  0.55057823884E+00  0.90020822064E+01  0.51100000000E-03 0.  1.
        -12    1    3    3    0    0 -0.28277586363E+01 -0.81137084816E+01  0.59822466550E+00  0.86131502355E+01  0.00000000000E+00 0.  1.
</event>
<event>
 7    1  0.2497395E-009  0.4778727E+02  0.7816164E-02  0.1312668E+00
        -11   -1    0    0    0    0  0.00000000000E+00  0.00000000000E+00  0.45593999997E+02  0.45594000000E+02  0.51100000000E-03 0. -1.
         11   -1    0    0    0    0 -0.00000000000E+00 -0.00000000000E+00 -0.45593999997E+02  0.45594000000E+02  0.51100000000E-03 0.  1.
    9900012    2    1    2    0    0  0.25942832408E+02  0.26019420412E+02  0.23099406410E+02  0.47787269955E+02  0.19999995034E+02 0.  0.
        -12    1    1    2    0    0 -0.25942832408E+02 -0.26019420412E+02 -0.23099406410E+02  0.43400730045E+02  0.00000000000E+00 0.  1.
         11    1    3    3    0    0  0.55677238735E+01  0.21406287382E+01  0.72105199329E+01  0.93580680960E+01  0.51100000000E-03 0. -1.
        -11    1    3    3    0    0  0.13973361893E+02  0.67735559302E+01  0.23747305734E+01  0.15709081708E+02  0.51100000000E-03 0.  1.
        -12    1    3    3    0    0  0.64017466411E+01  0.17105235743E+02  0.13514155904E+02  0.22720120151E+02  0.00000000000E+00 0.  1.
</event>
<event>
 7    1  0.2497395E-009  0.4778727E+02  0.7816164E-02  0.1312668E+00
        -11   -1    0    0    0    0  0.00000000000E+00  0.00000000000E+00  0.45593999997E+02  0.45594000000E+02  0.51100000000E-03 0.  1.
         11   -1    0    0    0    0 -0.00000000000E+00 -0.00000000000E+00 -0.45593999997E+02  0.45594000000E+02  0.51100000000E-03 0. -1.
    9900012    2    1    2    0    0  0.47743118567E+01  0.39274863178E+02  0.17841376347E+02  0.47787266811E+02  0.19999980700E+02 0.  0.
        -12    1    1    2    0    0 -0.47743118567E+01 -0.39274863178E+02 -0.17841376347E+02  0.43400733189E+02  0.00000000000E+00 0.  1.
         11    1    3    3    0    0  0.51624076160E+01  0.18095056967E+02  0.10160274426E+02  0.21384871188E+02  0.51100000000E-03 0. -1.
        -11    1    3    3    0    0 -0.51298959386E+01  0.19246458627E+02  0.46578258495E+01  0.20455741100E+02  0.51100000000E-03 0.  1.
        -12    1    3    3    0    0  0.47418001793E+01  0.19333475830E+01  0.30232760720E+01  0.59466545238E+01  0.00000000000E+00 0.  1.
</event>
<event>
 7    1  0.2497395E-009  0.4778727E+02  0.7816164E-02  0.1312668E+00
        -11   -1    0    0    0    0  0.00000000000E+00  0.00000000000E+00  0.45593999997E+02  0.45594000000E+02  0.51100000000E-03 0. -1.
         11   -1    0    0    0    0 -0.00000000000E+00 -0.00000000000E+00 -0.45593999997E+02  0.45594000000E+02  0.51100000000E-03 0.  1.
    9900012    2    1    2    0    0  0.17841444836E+02 -0.35190937126E+02  0.18080487844E+02  0.47787271316E+02  0.20000001238E+02 0.  0.
        -12    1    1    2    0    0 -0.17841444836E+02  0.35190937126E+02 -0.18080487844E+02  0.43400728684E+02  0.00000000000E+00 0.  1.
         11    1    3    3    0    0 -0.30692410710E+00 -0.18789459543E+02  0.55455728675E+01  0.19593146021E+02  0.51100000000E-03 0. -1.
        -11    1    3    3    0    0  0.80291267666E+01 -0.51536610579E+01  0.78511563511E+01  0.12355879380E+02  0.51100000000E-03 0.  1.
         12    1    3    3    0    0  0.10119242177E+02 -0.11247816525E+02  0.46837586252E+01  0.15838245915E+02  0.00000000000E+00 0. -1.
</event>
<event>
 7    1  0.2497395E-009  0.4778727E+02  0.7816164E-02  0.1312668E+00
        -11   -1    0    0    0    0  0.00000000000E+00  0.00000000000E+00  0.45593999997E+02  0.45594000000E+02  0.51100000000E-03 0. -1.
         11   -1    0    0    0    0 -0.00000000000E+00 -0.00000000000E+00 -0.45593999997E+02  0.45594000000E+02  0.51100000000E-03 0.  1.
    9900012    2    1    2    0    0  0.27028647929E+02 -0.33912774616E+02  0.17318003485E+01  0.47787271626E+02  0.20000002650E+02 0.  0.
        -12    1    1    2    0    0 -0.27028647929E+02  0.33912774616E+02 -0.17318003485E+01  0.43400728374E+02  0.00000000000E+00 0.  1.
         11    1    3    3    0    0  0.46556998682E+01 -0.53142452988E+01  0.65238860200E+01  0.96165395762E+01  0.51100000000E-03 0. -1.
        -11    1    3    3    0    0  0.61717737587E+01 -0.15376944604E+02 -0.48312170308E+01  0.17259254762E+02  0.51100000000E-03 0.  1.
         12    1    3    3    0    0  0.16201174302E+02 -0.13221584713E+02  0.39131359399E-01  0.20911477287E+02  0.00000000000E+00 0. -1.
</event>
<event>
 7    1  0.2497395E-009  0.4778728E+02  0.7816164E-02  0.1312668E+00
        -11   -1    0    0    0    0  0.00000000000E+00  0.00000000000E+00  0.45593999997E+02  0.45594000000E+02  0.51100000000E-03 0.  1.
         11   -1    0    0    0    0 -0.00000000000E+00 -0.00000000000E+00 -0.45593999997E+02  0.45594000000E+02  0.51100000000E-03 0. -1.
    9900012    2    1    2    0    0 -0.38285342268E+02  0.18992028007E+02  0.75603153791E+01  0.47787275017E+02  0.20000018114E+02 0.  0.
        -12    1    1    2    0    0  0.38285342268E+02 -0.18992028007E+02 -0.75603153791E+01  0.43400724983E+02  0.00000000000E+00 0.  1.
         11    1    3    3    0    0 -0.15772520895E+02  0.61634245615E+01 -0.32864127787E+01  0.17249948606E+02  0.51100000000E-03 0. -1.
        -11    1    3    3    0    0 -0.17005350909E+02  0.14822203380E+02  0.97645150369E+01  0.24580997269E+02  0.51100000000E-03 0.  1.
         12    1    3    3    0    0 -0.55074704640E+01 -0.19935999345E+01  0.10822131209E+01  0.59563291421E+01  0.00000000000E+00 0. -1.
</event>
<event>
 7    1  0.2497395E-009  0.4778727E+02  0.7816164E-02  0.1312668E+00
        -11   -1    0    0    0    0  0.00000000000E+00  0.00000000000E+00  0.45593999997E+02  0.45594000000E+02  0.51100000000E-03 0. -1.
         11   -1    0    0    0    0 -0.00000000000E+00 -0.00000000000E+00 -0.45593999997E+02  0.45594000000E+02  0.51100000000E-03 0.  1.
    9900012    2    1    2    0    0 -0.38227710950E+02 -0.39823559536E+01 -0.20159524369E+02  0.47787268829E+02  0.19999989898E+02 0.  0.
        -12    1    1    2    0    0  0.38227710950E+02  0.39823559536E+01  0.20159524369E+02  0.43400731171E+02  0.00000000000E+00 0.  1.
         11    1    3    3    0    0 -0.15179006865E+02 -0.89188171464E+01 -0.11863013958E+02  0.21229193322E+02  0.51100000000E-03 0.  1.
        -11    1    3    3    0    0 -0.16301758195E+02 -0.81785750815E+00 -0.46658489187E+01  0.16976052472E+02  0.51100000000E-03 0. -1.
         12    1    3    3    0    0 -0.67469458901E+01  0.57543187010E+01 -0.36306614927E+01  0.95820230343E+01  0.00000000000E+00 0. -1.
</event>
<event>
 7    1  0.2497395E-009  0.4778727E+02  0.7816164E-02  0.1312668E+00
        -11   -1    0    0    0    0  0.00000000000E+00  0.00000000000E+00  0.45593999997E+02  0.45594000000E+02  0.51100000000E-03 0. -1.
         11   -1    0    0    0    0 -0.00000000000E+00 -0.00000000000E+00 -0.45593999997E+02  0.45594000000E+02  0.51100000000E-03 0.  1.
    9900012    2    1    2    0    0  0.40227199284E+02 -0.14848088903E+02 -0.67029786905E+01  0.47787271554E+02  0.20000002322E+02 0.  0.
        -12    1    1    2    0    0 -0.40227199284E+02  0.14848088903E+02  0.67029786905E+01  0.43400728446E+02  0.00000000000E+00 0.  1.
         11    1    3    3    0    0  0.14142719619E+02 -0.62891249822E+01 -0.55964301310E+01  0.16458725398E+02  0.51100000000E-03 0. -1.
        -11    1    3    3    0    0  0.66539627002E+01 -0.65647269001E+01  0.53333025806E+01  0.10761736643E+02  0.51100000000E-03 0.  1.
        -12    1    3    3    0    0  0.19430516965E+02 -0.19942370210E+01 -0.64398511401E+01  0.20566809513E+02  0.00000000000E+00 0.  1.
</event>
<event>
 7    1  0.2497395E-009  0.4778727E+02  0.7816164E-02  0.1312668E+00
        -11   -1    0    0    0    0  0.00000000000E+00  0.00000000000E+00  0.45593999997E+02  0.45594000000E+02  0.51100000000E-03 0.  1.
         11   -1    0    0    0    0 -0.00000000000E+00 -0.00000000000E+00 -0.45593999997E+02  0.45594000000E+02  0.51100000000E-03 0. -1.
    9900012    2    1    2    0    0  0.12253807528E+02  0.15295255205E+02 -0.38723667454E+02  0.47787273602E+02  0.20000011663E+02 0.  0.
        -12    1    1    2    0    0 -0.12253807528E+02 -0.15295255205E+02  0.38723667454E+02  0.43400726398E+02  0.00000000000E+00 0.  1.
         11    1    3    3    0    0  0.80534454977E+01  0.77534174241E+01 -0.76489936835E+01  0.13545500019E+02  0.51100000000E-03 0. -1.
        -11    1    3    3    0    0 -0.12709915339E+01 -0.22782545185E+01 -0.10248758589E+02  0.10575581119E+02  0.51100000000E-03 0.  1.
         12    1    3    3    0    0  0.54713535645E+01  0.98200922997E+01 -0.20825915182E+02  0.23666192464E+02  0.00000000000E+00 0. -1.
</event>
<event>
 7    1  0.2497395E-009  0.4778727E+02  0.7816164E-02  0.1312668E+00
        -11   -1    0    0    0    0  0.00000000000E+00  0.00000000000E+00  0.45593999997E+02  0.45594000000E+02  0.51100000000E-03 0.  1.
         11   -1    0    0    0    0 -0.00000000000E+00 -0.00000000000E+00 -0.45593999997E+02  0.45594000000E+02  0.51100000000E-03 0. -1.
    9900012    2    1    2    0    0 -0.10619497881E+02 -0.42023586750E+02 -0.22063051942E+01  0.47787270039E+02  0.19999995414E+02 0.  0.
        -12    1    1    2    0    0  0.10619497881E+02  0.42023586750E+02  0.22063051942E+01  0.43400729961E+02  0.00000000000E+00 0.  1.
         11    1    3    3    0    0 -0.99696854340E+01 -0.20650062320E+02 -0.64620257511E+01  0.23823884624E+02  0.51100000000E-03 0. -1.
        -11    1    3    3    0    0 -0.22363200675E+01 -0.44058902918E+01 -0.26132737060E+01  0.55894719277E+01  0.51100000000E-03 0.  1.
         12    1    3    3    0    0  0.15865076201E+01 -0.16967634138E+02  0.68689942629E+01  0.18373913487E+02  0.00000000000E+00 0. -1.
</event>
<event>
 7    1  0.2497395E-009  0.4778727E+02  0.7816164E-02  0.1312668E+00
        -11   -1    0    0    0    0  0.00000000000E+00  0.00000000000E+00  0.45593999997E+02  0.45594000000E+02  0.51100000000E-03 0.  1.
         11   -1    0    0    0    0 -0.00000000000E+00 -0.00000000000E+00 -0.45593999997E+02  0.45594000000E+02  0.51100000000E-03 0. -1.
    9900012    2    1    2    0    0  0.92099746189E+00  0.43303237188E+02 -0.27577543518E+01  0.47787265025E+02  0.19999972556E+02 0.  0.
        -12    1    1    2    0    0 -0.92099746189E+00 -0.43303237188E+02  0.27577543518E+01  0.43400734975E+02  0.00000000000E+00 0.  1.
         11    1    3    3    0    0  0.63680875223E+01  0.28399990982E+02 -0.38101615463E+01  0.29353523771E+02  0.51100000000E-03 0. -1.
        -11    1    3    3    0    0 -0.23042152061E+01  0.13992899520E+02  0.31764287619E+01  0.14532733557E+02  0.51100000000E-03 0.  1.
         12    1    3    3    0    0 -0.31428748543E+01  0.91034668556E+00 -0.21240215674E+01  0.39010076976E+01  0.00000000000E+00 0. -1.
</event>
<event>
 7    1  0.2497395E-009  0.4778727E+02  0.7816164E-02  0.1312668E+00
        -11   -1    0    0    0    0  0.00000000000E+00  0.00000000000E+00  0.45593999997E+02  0.45594000000E+02  0.51100000000E-03 0. -1.
         11   -1    0    0    0    0 -0.00000000000E+00 -0.00000000000E+00 -0.45593999997E+02  0.45594000000E+02  0.51100000000E-03 0.  1.
    9900012    2    1    2    0    0 -0.29960734336E+02 -0.29937959938E+02  0.94708165644E+01  0.47787269435E+02  0.19999992662E+02 0.  0.
        -12    1    1    2    0    0  0.29960734336E+02  0.29937959938E+02 -0.94708165644E+01  0.43400730565E+02  0.00000000000E+00 0.  1.
         11    1    3    3    0    0 -0.24745283255E+02 -0.17604983192E+02  0.73458925022E+01  0.31244625353E+02  0.51100000000E-03 0. -1.
        -11    1    3    3    0    0 -0.33827032010E+01 -0.34392221038E+01 -0.34105232077E+01  0.59078421134E+01  0.51100000000E-03 0.  1.
         12    1    3    3    0    0 -0.18327478798E+01 -0.88937546423E+01  0.55354472699E+01  0.10634801968E+02  0.00000000000E+00 0. -1.
</event>
<event>
 7    1  0.2497395E-009  0.4778726E+02  0.7816164E-02  0.1312668E+00
        -11   -1    0    0    0    0  0.00000000000E+00  0.00000000000E+00  0.45593999997E+02  0.45594000000E+02  0.51100000000E-03 0. -1.
         11   -1    0    0    0    0 -0.00000000000E+00 -0.00000000000E+00 -0.45593999997E+02  0.45594000000E+02  0.51100000000E-03 0.  1.
    9900012    2    1    2    0    0  0.17036019585E+02  0.16891338322E+02  0.36167403673E+02  0.47787258508E+02  0.19999942843E+02 0.  0.
        -12    1    1    2    0    0 -0.17036019585E+02 -0.16891338322E+02 -0.36167403673E+02  0.43400741492E+02  0.00000000000E+00 0.  1.
         11    1    3    3    0    0  0.68859930628E+01  0.70211560405E+01  0.17662516335E+02  0.20215786310E+02  0.51100000000E-03 0. -1.
        -11    1    3    3    0    0  0.52383591378E+01  0.91970648804E+01  0.25819623947E+01  0.10894628903E+02  0.51100000000E-03 0.  1.
        -12    1    3    3    0    0  0.49116673844E+01  0.67311740076E+00  0.15922924943E+02  0.16676843295E+02  0.00000000000E+00 0.  1.
</event>
<event>
 7    1  0.2497395E-009  0.4778727E+02  0.7816164E-02  0.1312668E+00
        -11   -1    0    0    0    0  0.00000000000E+00  0.00000000000E+00  0.45593999997E+02  0.45594000000E+02  0.51100000000E-03 0. -1.
         11   -1    0    0    0    0 -0.00000000000E+00 -0.00000000000E+00 -0.45593999997E+02  0.45594000000E+02  0.51100000000E-03 0.  1.
    9900012    2    1    2    0    0 -0.15173074986E+02  0.39457267221E+02 -0.98247270589E+01  0.47787269559E+02  0.19999993226E+02 0.  0.
        -12    1    1    2    0    0  0.15173074986E+02 -0.39457267221E+02  0.98247270589E+01  0.43400730441E+02  0.00000000000E+00 0.  1.
         11    1    3    3    0    0 -0.12466236497E+02  0.32495529163E+02 -0.10477635194E+02  0.36347590120E+02  0.51100000000E-03 0. -1.
        -11    1    3    3    0    0  0.31957574489E+00 -0.12915066983E+01  0.21442151129E+01  0.25234454462E+01  0.51100000000E-03 0.  1.
        -12    1    3    3    0    0 -0.30264142338E+01  0.82532447558E+01 -0.14913069781E+01  0.89162339929E+01  0.00000000000E+00 0.  1.
</event>
<event>
 7    1  0.2497395E-009  0.4778727E+02  0.7816164E-02  0.1312668E+00
        -11   -1    0    0    0    0  0.00000000000E+00  0.00000000000E+00  0.45593999997E+02  0.45594000000E+02  0.51100000000E-03 0.  1.
         11   -1    0    0    0    0 -0.00000000000E+00 -0.00000000000E+00 -0.45593999997E+02  0.45594000000E+02  0.51100000000E-03 0. -1.
    9900012    2    1    2    0    0  0.42664354121E+01  0.13490222563E+02 -0.41029682778E+02  0.47787269075E+02  0.19999991023E+02 0.  0.
        -12    1    1    2    0    0 -0.42664354121E+01 -0.13490222563E+02  0.41029682778E+02  0.43400730925E+02  0.00000000000E+00 0.  1.
         11    1    3    3    0    0  0.20379795276E+01  0.11286381971E+02 -0.39678628260E+02  0.41302897228E+02  0.51100000000E-03 0. -1.
        -11    1    3    3    0    0 -0.15856532426E+00  0.18587241534E+01  0.17486355825E+01  0.25568975541E+01  0.51100000000E-03 0.  1.
         12    1    3    3    0    0  0.23870212088E+01  0.34511643805E+00 -0.30996901002E+01  0.39274742932E+01  0.00000000000E+00 0. -1.
</event>
<event>
 7    1  0.2497395E-009  0.4778727E+02  0.7816164E-02  0.1312668E+00
        -11   -1    0    0    0    0  0.00000000000E+00  0.00000000000E+00  0.45593999997E+02  0.45594000000E+02  0.51100000000E-03 0.  1.
         11   -1    0    0    0    0 -0.00000000000E+00 -0.00000000000E+00 -0.45593999997E+02  0.45594000000E+02  0.51100000000E-03 0. -1.
    9900012    2    1    2    0    0 -0.33344135446E+02  0.20787691078E+02 -0.18429968508E+02  0.47787271801E+02  0.20000003448E+02 0.  0.
        -12    1    1    2    0    0  0.33344135446E+02 -0.20787691078E+02  0.18429968508E+02  0.43400728199E+02  0.00000000000E+00 0.  1.
         11    1    3    3    0    0  0.13203918925E+01  0.58632492697E+00  0.14765289998E+01  0.20657564760E+01  0.51100000000E-03 0. -1.
        -11    1    3    3    0    0 -0.14780066432E+01  0.12976036257E+01  0.97258386142E+00  0.21941281721E+01  0.51100000000E-03 0.  1.
         12    1    3    3    0    0 -0.33186520696E+02  0.18903762526E+02 -0.20879081369E+02  0.43527387153E+02  0.00000000000E+00 0. -1.
</event>
<event>
 7    1  0.2497395E-009  0.4778727E+02  0.7816164E-02  0.1312668E+00
        -11   -1    0    0    0    0  0.00000000000E+00  0.00000000000E+00  0.45593999997E+02  0.45594000000E+02  0.51100000000E-03 0.  1.
         11   -1    0    0    0    0 -0.00000000000E+00 -0.00000000000E+00 -0.45593999997E+02  0.45594000000E+02  0.51100000000E-03 0. -1.
    9900012    2    1    2    0    0  0.61633367600E+01 -0.37302574946E+02 -0.21310896660E+02  0.47787272655E+02  0.20000007344E+02 0.  0.
        -12    1    1    2    0    0 -0.61633367600E+01  0.37302574946E+02  0.21310896660E+02  0.43400727345E+02  0.00000000000E+00 0.  1.
         11    1    3    3    0    0  0.66641430993E+01 -0.41423663016E+01 -0.13967525935E+01  0.79700012480E+01  0.51100000000E-03 0. -1.
        -11    1    3    3    0    0  0.29371366776E+01 -0.47567648934E+01 -0.14834167993E+01  0.57839527813E+01  0.51100000000E-03 0.  1.
         12    1    3    3    0    0 -0.34379430169E+01 -0.28403443751E+02 -0.18430727267E+02  0.34033318626E+02  0.00000000000E+00 0. -1.
</event>
<event>
 7    1  0.2497395E-009  0.4778727E+02  0.7816164E-02  0.1312668E+00
        -11   -1    0    0    0    0  0.00000000000E+00  0.00000000000E+00  0.45593999997E+02  0.45594000000E+02  0.51100000000E-03 0.  1.
         11   -1    0    0    0    0 -0.00000000000E+00 -0.00000000000E+00 -0.45593999997E+02  0.45594000000E+02  0.51100000000E-03 0. -1.
    9900012    2    1    2    0    0 -0.22983403925E+02 -0.36641361405E+02 -0.35772905063E+01  0.47787271562E+02  0.20000002358E+02 0.  0.
        -12    1    1    2    0    0  0.22983403925E+02  0.36641361405E+02  0.35772905063E+01  0.43400728438E+02  0.00000000000E+00 0.  1.
         11    1    3    3    0    0 -0.10410239901E+01 -0.55502974965E+01 -0.13255709604E+01  0.58005751335E+01  0.51100000000E-03 0.  1.
        -11    1    3    3    0    0 -0.86069959236E+01 -0.25901272722E+02  0.10000983389E+01  0.27312204312E+02  0.51100000000E-03 0. -1.
        -12    1    3    3    0    0 -0.13335384011E+02 -0.51897911866E+01 -0.32518178848E+01  0.14674492116E+02  0.00000000000E+00 0.  1.
</event>
<event>
 7    1  0.2497395E-009  0.4778726E+02  0.7816164E-02  0.1312668E+00
        -11   -1    0    0    0    0  0.00000000000E+00  0.00000000000E+00  0.45593999997E+02  0.45594000000E+02  0.51100000000E-03 0.  1.
         11   -1    0    0    0    0 -0.00000000000E+00 -0.00000000000E+00 -0.45593999997E+02  0.45594000000E+02  0.51100000000E-03 0. -1.
    9900012    2    1    2    0    0 -0.26936387774E+01  0.31998418960E+02 -0.29197082416E+02  0.47787261211E+02  0.19999955166E+02 0.  0.
        -12    1    1    2    0    0  0.26936387774E+01 -0.31998418960E+02  0.29197082416E+02  0.43400738789E+02  0.00000000000E+00 0.  1.
         11    1    3    3    0    0  0.46427085914E+01  0.15189614406E+02 -0.88216291137E+01  0.18168661738E+02  0.51100000000E-03 0. -1.
        -11    1    3    3    0    0 -0.10068238082E+02  0.15332468465E+02 -0.18094784856E+02  0.25765776654E+02  0.51100000000E-03 0.  1.
        -12    1    3    3    0    0  0.27318907133E+01  0.14763360893E+01 -0.22806684465E+01  0.38528228198E+01  0.00000000000E+00 0.  1.
</event>
<event>
 7    1  0.2497395E-009  0.4778727E+02  0.7816164E-02  0.1312668E+00
        -11   -1    0    0    0    0  0.00000000000E+00  0.00000000000E+00  0.45593999997E+02  0.45594000000E+02  0.51100000000E-03 0. -1.
         11   -1    0    0    0    0 -0.00000000000E+00 -0.00000000000E+00 -0.45593999997E+02  0.45594000000E+02  0.51100000000E-03 0.  1.
    9900012    2    1    2    0    0  0.13720555479E+02 -0.39669252229E+02  0.11032675207E+02  0.47787272618E+02  0.20000007174E+02 0.  0.
        -12    1    1    2    0    0 -0.13720555479E+02  0.39669252229E+02 -0.11032675207E+02  0.43400727382E+02  0.00000000000E+00 0.  1.
         11    1    3    3    0    0  0.38281452346E+01 -0.14862726879E+02  0.47050176615E+01  0.16052804667E+02  0.51100000000E-03 0. -1.
        -11    1    3    3    0    0  0.93260286579E+00  0.21226250808E+01 -0.83455826829E+00  0.24640968129E+01  0.51100000000E-03 0.  1.
        -12    1    3    3    0    0  0.89598073790E+01 -0.26929150431E+02  0.71622158138E+01  0.29270371138E+02  0.00000000000E+00 0.  1.
</event>
<event>
 7    1  0.2497395E-009  0.4778725E+02  0.7816164E-02  0.1312668E+00
        -11   -1    0    0    0    0  0.00000000000E+00  0.00000000000E+00  0.45593999997E+02  0.45594000000E+02  0.51100000000E-03 0.  1.
         11   -1    0    0    0    0 -0.00000000000E+00 -0.00000000000E+00 -0.45593999997E+02  0.45594000000E+02  0.51100000000E-03 0. -1.
    9900012    2    1    2    0    0  0.31784634729E+02 -0.23389800985E+02 -0.18063206859E+02  0.47787248428E+02  0.19999896885E+02 0.  0.
        -12    1    1    2    0    0 -0.31784634729E+02  0.23389800985E+02  0.18063206859E+02  0.43400751572E+02  0.00000000000E+00 0.  1.
         11    1    3    3    0    0  0.31405131214E+00 -0.17906086377E+01 -0.76797373539E+01  0.78919752664E+01  0.51100000000E-03 0. -1.
        -11    1    3    3    0    0  0.11525677363E+02 -0.10919328329E+02 -0.49033339248E+01  0.16616728128E+02  0.51100000000E-03 0.  1.
         12    1    3    3    0    0  0.19944906054E+02 -0.10679864018E+02 -0.54801355800E+01  0.23278545034E+02  0.00000000000E+00 0. -1.
</event>
<event>
 7    1  0.2497395E-009  0.4778727E+02  0.7816164E-02  0.1312668E+00
        -11   -1    0    0    0    0  0.00000000000E+00  0.00000000000E+00  0.45593999997E+02  0.45594000000E+02  0.51100000000E-03 0.  1.
         11   -1    0    0    0    0 -0.00000000000E+00 -0.00000000000E+00 -0.45593999997E+02  0.45594000000E+02  0.51100000000E-03 0. -1.
    9900012    2    1    2    0    0 -0.64388576035E+01  0.17123308319E+02 -0.39356790997E+02  0.47787267603E+02  0.19999984311E+02 0.  0.
        -12    1    1    2    0    0  0.64388576035E+01 -0.17123308319E+02  0.39356790997E+02  0.43400732397E+02  0.00000000000E+00 0.  1.
         11    1    3    3    0    0  0.36740850030E+00  0.11365389334E+02 -0.28404617761E+02  0.30596231371E+02  0.51100000000E-03 0. -1.
        -11    1    3    3    0    0  0.79391240995E+00 -0.12397795534E+01  0.69010220539E+00  0.16259125348E+01  0.51100000000E-03 0.  1.
         12    1    3    3    0    0 -0.76001785137E+01  0.69976985382E+01 -0.11642275441E+02  0.15565123698E+02  0.00000000000E+00 0. -1.
</event>
<event>
 7    1  0.2497395E-009  0.4778727E+02  0.7816164E-02  0.1312668E+00
        -11   -1    0    0    0    0  0.00000000000E+00  0.00000000000E+00  0.45593999997E+02  0.45594000000E+02  0.51100000000E-03 0.  1.
         11   -1    0    0    0    0 -0.00000000000E+00 -0.00000000000E+00 -0.45593999997E+02  0.45594000000E+02  0.51100000000E-03 0. -1.
    9900012    2    1    2    0    0 -0.76606915778E+01  0.40967309920E+02  0.12108522106E+02  0.47787274371E+02  0.20000015166E+02 0.  0.
        -12    1    1    2    0    0  0.76606915778E+01 -0.40967309920E+02 -0.12108522106E+02  0.43400725629E+02  0.00000000000E+00 0.  1.
         11    1    3    3    0    0  0.79090770930E+00  0.59244104618E+01 -0.27374538633E+01  0.65740267903E+01  0.51100000000E-03 0. -1.
        -11    1    3    3    0    0 -0.86490945923E+01  0.35966147031E+02  0.15454442373E+02  0.40090028172E+02  0.51100000000E-03 0.  1.
        -12    1    3    3    0    0  0.19749530520E+00 -0.92324757242E+00 -0.60846640339E+00  0.11232194085E+01  0.00000000000E+00 0.  1.
</event>
<event>
 7    1  0.2497395E-009  0.4778727E+02  0.7816164E-02  0.1312668E+00
        -11   -1    0    0    0    0  0.00000000000E+00  0.00000000000E+00  0.45593999997E+02  0.45594000000E+02  0.51100000000E-03 0.  1.
         11   -1    0    0    0    0 -0.00000000000E+00 -0.00000000000E+00 -0.45593999997E+02  0.45594000000E+02  0.51100000000E-03 0. -1.
    9900012    2    1    2    0    0  0.32032761577E+02  0.67085710194E+01 -0.28504748487E+02  0.47787269296E+02  0.19999992026E+02 0.  0.
        -12    1    1    2    0    0 -0.32032761577E+02 -0.67085710194E+01  0.28504748487E+02  0.43400730704E+02  0.00000000000E+00 0.  1.
         11    1    3    3    0    0  0.74605806015E+01  0.12880900698E+01 -0.19976663436E+01  0.78300772679E+01  0.51100000000E-03 0. -1.
        -11    1    3    3    0    0  0.13748822828E+02 -0.44194015535E+01 -0.84995282548E+01  0.16757184133E+02  0.51100000000E-03 0.  1.
        -12    1    3    3    0    0  0.10823358148E+02  0.98398825032E+01 -0.18007553889E+02  0.23200007895E+02  0.00000000000E+00 0.  1.
</event>
<event>
 7    1  0.2497395E-009  0.4778726E+02  0.7816164E-02  0.1312668E+00
        -11   -1    0    0    0    0  0.00000000000E+00  0.00000000000E+00  0.45593999997E+02  0.45594000000E+02  0.51100000000E-03 0.  1.
         11   -1    0    0    0    0 -0.00000000000E+00 -0.00000000000E+00 -0.45593999997E+02  0.45594000000E+02  0.51100000000E-03 0. -1.
    9900012    2    1    2    0    0  0.35721208501E+02  0.10229853635E+02 -0.22426985005E+02  0.47787259240E+02  0.19999946177E+02 0.  0.
        -12    1    1    2    0    0 -0.35721208501E+02 -0.10229853635E+02  0.22426985005E+02  0.43400740760E+02  0.00000000000E+00 0.  1.
         11    1    3    3    0    0  0.23968947123E+02  0.98479152913E+01 -0.21296879969E+02  0.33541749484E+02  0.51100000000E-03 0. -1.
        -11    1    3    3    0    0  0.45424134056E+01  0.18908968367E+01  0.30373551125E+01  0.57822605212E+01  0.51100000000E-03 0.  1.
        -12    1    3    3    0    0  0.72098479719E+01 -0.15089584935E+01 -0.41674601477E+01  0.84632492340E+01  0.00000000000E+00 0.  1.
</event>
<event>
 7    1  0.2497395E-009  0.4778727E+02  0.7816164E-02  0.1312668E+00
        -11   -1    0    0    0    0  0.00000000000E+00  0.00000000000E+00  0.45593999997E+02  0.45594000000E+02  0.51100000000E-03 0.  1.
         11   -1    0    0    0    0 -0.00000000000E+00 -0.00000000000E+00 -0.45593999997E+02  0.45594000000E+02  0.51100000000E-03 0. -1.
    9900012    2    1    2    0    0  0.23948633265E+02 -0.59753095548E+01 -0.35698483038E+02  0.47787273615E+02  0.20000011720E+02 0.  0.
        -12    1    1    2    0    0 -0.23948633265E+02  0.59753095548E+01  0.35698483038E+02  0.43400726385E+02  0.00000000000E+00 0.  1.
         11    1    3    3    0    0  0.73114356896E+00 -0.60759988367E+01 -0.13957681076E+02  0.15240380378E+02  0.51100000000E-03 0. -1.
        -11    1    3    3    0    0  0.13113061803E+02  0.28489570854E+01 -0.95174603529E+01  0.16451474042E+02  0.51100000000E-03 0.  1.
         12    1    3    3    0    0  0.10104427893E+02 -0.27482678036E+01 -0.12223341609E+02  0.16095419195E+02  0.00000000000E+00 0. -1.
</event>
<event>
 7    1  0.2497395E-009  0.4778727E+02  0.7816164E-02  0.1312668E+00
        -11   -1    0    0    0    0  0.00000000000E+00  0.00000000000E+00  0.45593999997E+02  0.45594000000E+02  0.51100000000E-03 0.  1.
         11   -1    0    0    0    0 -0.00000000000E+00 -0.00000000000E+00 -0.45593999997E+02  0.45594000000E+02  0.51100000000E-03 0. -1.
    9900012    2    1    2    0    0  0.28087832038E+02 -0.15869416761E+02 -0.29032030438E+02  0.47787268574E+02  0.19999988738E+02 0.  0.
        -12    1    1    2    0    0 -0.28087832038E+02  0.15869416761E+02  0.29032030438E+02  0.43400731426E+02  0.00000000000E+00 0.  1.
         11    1    3    3    0    0  0.59050144876E+01 -0.33352031428E+01 -0.15873295876E+02  0.17261352738E+02  0.51100000000E-03 0. -1.
        -11    1    3    3    0    0  0.14803026204E+02 -0.13538271631E+02 -0.10282418202E+02  0.22542016500E+02  0.51100000000E-03 0.  1.
        -12    1    3    3    0    0  0.73797913467E+01  0.10040580129E+01 -0.28763163598E+01  0.79838993365E+01  0.00000000000E+00 0.  1.
</event>
<event>
 7    1  0.2497395E-009  0.4778726E+02  0.7816164E-02  0.1312668E+00
        -11   -1    0    0    0    0  0.00000000000E+00  0.00000000000E+00  0.45593999997E+02  0.45594000000E+02  0.51100000000E-03 0.  1.
         11   -1    0    0    0    0 -0.00000000000E+00 -0.00000000000E+00 -0.45593999997E+02  0.45594000000E+02  0.51100000000E-03 0. -1.
    9900012    2    1    2    0    0 -0.17315213048E+02  0.18601800812E+02 -0.35182110356E+02  0.47787257087E+02  0.19999936361E+02 0.  0.
        -12    1    1    2    0    0  0.17315213048E+02 -0.18601800812E+02  0.35182110356E+02  0.43400742913E+02  0.00000000000E+00 0.  1.
         11    1    3    3    0    0 -0.13906355793E+02  0.48342965873E+01 -0.16480929251E+02  0.22099280173E+02  0.51100000000E-03 0. -1.
        -11    1    3    3    0    0  0.28735528645E+01  0.26517765994E+01 -0.13322085205E+01  0.41308600801E+01  0.51100000000E-03 0.  1.
        -12    1    3    3    0    0 -0.62824101195E+01  0.11115727625E+02 -0.17368972584E+02  0.21557116834E+02  0.00000000000E+00 0.  1.
</event>
<event>
 7    1  0.2497395E-009  0.4778726E+02  0.7816164E-02  0.1312668E+00
        -11   -1    0    0    0    0  0.00000000000E+00  0.00000000000E+00  0.45593999997E+02  0.45594000000E+02  0.51100000000E-03 0. -1.
         11   -1    0    0    0    0 -0.00000000000E+00 -0.00000000000E+00 -0.45593999997E+02  0.45594000000E+02  0.51100000000E-03 0.  1.
    9900012    2    1    2    0    0  0.22472444406E+02  0.34901462068E+02 -0.12668911350E+02  0.47787261218E+02  0.19999955196E+02 0.  0.
        -12    1    1    2    0    0 -0.22472444406E+02 -0.34901462068E+02  0.12668911350E+02  0.43400738782E+02  0.00000000000E+00 0.  1.
         11    1    3    3    0    0  0.11986015306E+02  0.16886247269E+02  0.20162493881E+01  0.20805652396E+02  0.51100000000E-03 0. -1.
        -11    1    3    3    0    0  0.49278633841E+01  0.96545633558E+01 -0.12788406896E+02  0.16764181528E+02  0.51100000000E-03 0.  1.
        -12    1    3    3    0    0  0.55585657161E+01  0.83606514427E+01 -0.18967538425E+01  0.10217427294E+02  0.00000000000E+00 0.  1.
</event>
<event>
 7    1  0.2497395E-009  0.4778727E+02  0.7816164E-02  0.1312668E+00
        -11   -1    0    0    0    0  0.00000000000E+00  0.00000000000E+00  0.45593999997E+02  0.45594000000E+02  0.51100000000E-03 0.  1.
         11   -1    0    0    0    0 -0.00000000000E+00 -0.00000000000E+00 -0.45593999997E+02  0.45594000000E+02  0.51100000000E-03 0. -1.
    9900012    2    1    2    0    0  0.29920427757E+02 -0.92654554716E+01 -0.30042345211E+02  0.47787272264E+02  0.20000005561E+02 0.  0.
        -12    1    1    2    0    0 -0.29920427757E+02  0.92654554716E+01  0.30042345211E+02  0.43400727736E+02  0.00000000000E+00 0.  1.
         11    1    3    3    0    0  0.14684663659E+02  0.96984013505E-01 -0.68758383972E+01  0.16214990182E+02  0.51100000000E-03 0. -1.
        -11    1    3    3    0    0  0.43201539729E+00 -0.61680685110E+01 -0.52393329636E+01  0.81044627597E+01  0.51100000000E-03 0.  1.
         12    1    3    3    0    0  0.14803748701E+02 -0.31943709741E+01 -0.17927173850E+02  0.23467819323E+02  0.00000000000E+00 0. -1.
</event>
<event>
 7    1  0.2497395E-009  0.4778727E+02  0.7816164E-02  0.1312668E+00
        -11   -1    0    0    0    0  0.00000000000E+00  0.00000000000E+00  0.45593999997E+02  0.45594000000E+02  0.51100000000E-03 0.  1.
         11   -1    0    0    0    0 -0.00000000000E+00 -0.00000000000E+00 -0.45593999997E+02  0.45594000000E+02  0.51100000000E-03 0. -1.
    9900012    2    1    2    0    0  0.37474192847E+02  0.35872629936E+01 -0.21597215273E+02  0.47787270826E+02  0.19999999004E+02 0.  0.
        -12    1    1    2    0    0 -0.37474192847E+02 -0.35872629936E+01  0.21597215273E+02  0.43400729174E+02  0.00000000000E+00 0.  1.
         11    1    3    3    0    0  0.61725502610E+01 -0.37483125543E+01 -0.82844968100E+01  0.10990137005E+02  0.51100000000E-03 0. -1.
        -11    1    3    3    0    0  0.15557152428E+02  0.95057659377E+01 -0.52309995142E+01  0.18967022273E+02  0.51100000000E-03 0.  1.
         12    1    3    3    0    0  0.15744490158E+02 -0.21701903898E+01 -0.80817189483E+01  0.17830111548E+02  0.00000000000E+00 0. -1.
</event>
<event>
 7    1  0.2497395E-009  0.4778728E+02  0.7816164E-02  0.1312668E+00
        -11   -1    0    0    0    0  0.00000000000E+00  0.00000000000E+00  0.45593999997E+02  0.45594000000E+02  0.51100000000E-03 0.  1.
         11   -1    0    0    0    0 -0.00000000000E+00 -0.00000000000E+00 -0.45593999997E+02  0.45594000000E+02  0.51100000000E-03 0. -1.
    9900012    2    1    2    0    0  0.14133496005E+02 -0.34465749043E+02 -0.22270593463E+02  0.47787275356E+02  0.20000019658E+02 0.  0.
        -12    1    1    2    0    0 -0.14133496005E+02  0.34465749043E+02  0.22270593463E+02  0.43400724644E+02  0.00000000000E+00 0.  1.
         11    1    3    3    0    0  0.10333415899E+02 -0.22334689419E+02 -0.17846531305E+02  0.30399284785E+02  0.51100000000E-03 0. -1.
        -11    1    3    3    0    0 -0.21663759522E+01  0.55510731356E+00 -0.23014156166E+01  0.32090252410E+01  0.51100000000E-03 0.  1.
         12    1    3    3    0    0  0.59664560581E+01 -0.12686166938E+02 -0.21226465411E+01  0.14178965330E+02  0.00000000000E+00 0. -1.
</event>
<event>
 7    1  0.2497395E-009  0.4778727E+02  0.7816164E-02  0.1312668E+00
        -11   -1    0    0    0    0  0.00000000000E+00  0.00000000000E+00  0.45593999997E+02  0.45594000000E+02  0.51100000000E-03 0.  1.
         11   -1    0    0    0    0 -0.00000000000E+00 -0.00000000000E+00 -0.45593999997E+02  0.45594000000E+02  0.51100000000E-03 0. -1.
    9900012    2    1    2    0    0 -0.29879358446E+02 -0.16399279557E+02 -0.26868398804E+02  0.47787270912E+02  0.19999999395E+02 0.  0.
        -12    1    1    2    0    0  0.29879358446E+02  0.16399279557E+02  0.26868398804E+02  0.43400729088E+02  0.00000000000E+00 0.  1.
         11    1    3    3    0    0 -0.11492370009E+02  0.17861827689E+01 -0.10517757204E+02  0.15680823772E+02  0.51100000000E-03 0. -1.
        -11    1    3    3    0    0 -0.44481137051E+01 -0.38136612075E+01  0.57821128403E+00  0.58876188641E+01  0.51100000000E-03 0.  1.
         12    1    3    3    0    0 -0.13938874731E+02 -0.14371801118E+02 -0.16928852884E+02  0.26218828275E+02  0.00000000000E+00 0. -1.
</event>
<event>
 7    1  0.2497395E-009  0.4778727E+02  0.7816164E-02  0.1312668E+00
        -11   -1    0    0    0    0  0.00000000000E+00  0.00000000000E+00  0.45593999997E+02  0.45594000000E+02  0.51100000000E-03 0. -1.
         11   -1    0    0    0    0 -0.00000000000E+00 -0.00000000000E+00 -0.45593999997E+02  0.45594000000E+02  0.51100000000E-03 0.  1.
    9900012    2    1    2    0    0 -0.38664258551E+02  0.99660581820E+01  0.17011053020E+02  0.47787272704E+02  0.20000007564E+02 0.  0.
        -12    1    1    2    0    0  0.38664258551E+02 -0.99660581820E+01 -0.17011053020E+02  0.43400727296E+02  0.00000000000E+00 0.  1.
         11    1    3    3    0    0 -0.20222084317E+01  0.54431296288E+01  0.68810163507E+01  0.90036311218E+01  0.51100000000E-03 0. -1.
        -11    1    3    3    0    0 -0.31429495832E+02  0.16744311231E+01  0.80186290810E+01  0.32479460286E+02  0.51100000000E-03 0.  1.
         12    1    3    3    0    0 -0.52125542877E+01  0.28484974301E+01  0.21114075881E+01  0.63041812962E+01  0.00000000000E+00 0. -1.
</event>
<event>
 7    1  0.2497395E-009  0.4778727E+02  0.7816164E-02  0.1312668E+00
        -11   -1    0    0    0    0  0.00000000000E+00  0.00000000000E+00  0.45593999997E+02  0.45594000000E+02  0.51100000000E-03 0.  1.
         11   -1    0    0    0    0 -0.00000000000E+00 -0.00000000000E+00 -0.45593999997E+02  0.45594000000E+02  0.51100000000E-03 0. -1.
    9900012    2    1    2    0    0  0.83013938382E+01 -0.13830528445E+02 -0.40291768445E+02  0.47787271191E+02  0.20000000666E+02 0.  0.
        -12    1    1    2    0    0 -0.83013938382E+01  0.13830528445E+02  0.40291768445E+02  0.43400728809E+02  0.00000000000E+00 0.  1.
         11    1    3    3    0    0  0.29915938738E+01  0.26649762571E+01 -0.85294804175E+01  0.94235751607E+01  0.51100000000E-03 0. -1.
        -11    1    3    3    0    0 -0.39742110174E+01 -0.76847913615E+01 -0.14290021656E+02  0.16704942103E+02  0.51100000000E-03 0.  1.
        -12    1    3    3    0    0  0.92840109818E+01 -0.88107133407E+01 -0.17472266372E+02  0.21658753927E+02  0.00000000000E+00 0.  1.
</event>
<event>
 7    1  0.2497395E-009  0.4778728E+02  0.7816164E-02  0.1312668E+00
        -11   -1    0    0    0    0  0.00000000000E+00  0.00000000000E+00  0.45593999997E+02  0.45594000000E+02  0.51100000000E-03 0.  1.
         11   -1    0    0    0    0 -0.00000000000E+00 -0.00000000000E+00 -0.45593999997E+02  0.45594000000E+02  0.51100000000E-03 0. -1.
    9900012    2    1    2    0    0  0.52800911638E+00 -0.26824725697E+02 -0.34114181281E+02  0.47787284951E+02  0.20000063404E+02 0.  0.
        -12    1    1    2    0    0 -0.52800911638E+00  0.26824725697E+02  0.34114181281E+02  0.43400715049E+02  0.00000000000E+00 0.  1.
         11    1    3    3    0    0 -0.84800550647E+00 -0.12402483739E+02 -0.97748927205E+01  0.15814210198E+02  0.51100000000E-03 0. -1.
        -11    1    3    3    0    0  0.43458556022E+01 -0.48266351855E+01 -0.20005472373E+02  0.21033349550E+02  0.51100000000E-03 0.  1.
        -12    1    3    3    0    0 -0.29698409793E+01 -0.95956067723E+01 -0.43338161868E+01  0.10939725203E+02  0.00000000000E+00 0.  1.
</event>
<event>
 7    1  0.2497395E-009  0.4778728E+02  0.7816164E-02  0.1312668E+00
        -11   -1    0    0    0    0  0.00000000000E+00  0.00000000000E+00  0.45593999997E+02  0.45594000000E+02  0.51100000000E-03 0.  1.
         11   -1    0    0    0    0 -0.00000000000E+00 -0.00000000000E+00 -0.45593999997E+02  0.45594000000E+02  0.51100000000E-03 0. -1.
    9900012    2    1    2    0    0  0.40007769720E+02  0.16523934899E+02  0.31560454470E+01  0.47787277824E+02  0.20000030910E+02 0.  0.
        -12    1    1    2    0    0 -0.40007769720E+02 -0.16523934899E+02 -0.31560454470E+01  0.43400722176E+02  0.00000000000E+00 0.  1.
         11    1    3    3    0    0  0.71604083809E-01  0.78937832892E+00 -0.98180734252E+00  0.12618205934E+01  0.51100000000E-03 0. -1.
        -11    1    3    3    0    0  0.14929403042E+02  0.70903942237E+01  0.10145841885E+02  0.19393268762E+02  0.51100000000E-03 0.  1.
        -12    1    3    3    0    0  0.25006762595E+02  0.86441623463E+01 -0.60079890958E+01  0.27132188469E+02  0.00000000000E+00 0.  1.
</event>
<event>
 7    1  0.2497395E-009  0.4778727E+02  0.7816164E-02  0.1312668E+00
        -11   -1    0    0    0    0  0.00000000000E+00  0.00000000000E+00  0.45593999997E+02  0.45594000000E+02  0.51100000000E-03 0.  1.
         11   -1    0    0    0    0 -0.00000000000E+00 -0.00000000000E+00 -0.45593999997E+02  0.45594000000E+02  0.51100000000E-03 0. -1.
    9900012    2    1    2    0    0 -0.11616401551E+02 -0.13448991045E+02 -0.39595547547E+02  0.47787268086E+02  0.19999986510E+02 0.  0.
        -12    1    1    2    0    0  0.11616401551E+02  0.13448991045E+02  0.39595547547E+02  0.43400731914E+02  0.00000000000E+00 0.  1.
         11    1    3    3    0    0 -0.14690523531E+02 -0.12910405103E+02 -0.34456078422E+02  0.39619583314E+02  0.51100000000E-03 0. -1.
        -11    1    3    3    0    0  0.30702382833E+01  0.19191595583E+01 -0.18630930034E+01  0.40719347154E+01  0.51100000000E-03 0.  1.
        -12    1    3    3    0    0  0.38836963219E-02 -0.24577455002E+01 -0.32763761223E+01  0.40957500561E+01  0.00000000000E+00 0.  1.
</event>
<event>
 7    1  0.2497395E-009  0.4778727E+02  0.7816164E-02  0.1312668E+00
        -11   -1    0    0    0    0  0.00000000000E+00  0.00000000000E+00  0.45593999997E+02  0.45594000000E+02  0.51100000000E-03 0. -1.
         11   -1    0    0    0    0 -0.00000000000E+00 -0.00000000000E+00 -0.45593999997E+02  0.45594000000E+02  0.51100000000E-03 0.  1.
    9900012    2    1    2    0    0  0.41146940678E+02 -0.11393809789E+02 -0.77931879057E+01  0.47787269518E+02  0.19999993040E+02 0.  0.
        -12    1    1    2    0    0 -0.41146940678E+02  0.11393809789E+02  0.77931879057E+01  0.43400730482E+02  0.00000000000E+00 0.  1.
         11    1    3    3    0    0  0.12913652107E+02  0.39093095066E+00  0.44289516455E+01  0.13657629761E+02  0.51100000000E-03 0. -1.
        -11    1    3    3    0    0  0.17204549114E+02 -0.11680955797E+02 -0.71507204610E+01  0.21990317003E+02  0.51100000000E-03 0.  1.
         12    1    3    3    0    0  0.11028739457E+02 -0.10378494277E+00 -0.50714190903E+01  0.12139322753E+02  0.00000000000E+00 0. -1.
</event>
<event>
 7    1  0.2497395E-009  0.4778727E+02  0.7816164E-02  0.1312668E+00
        -11   -1    0    0    0    0  0.00000000000E+00  0.00000000000E+00  0.45593999997E+02  0.45594000000E+02  0.51100000000E-03 0.  1.
         11   -1    0    0    0    0 -0.00000000000E+00 -0.00000000000E+00 -0.45593999997E+02  0.45594000000E+02  0.51100000000E-03 0. -1.
    9900012    2    1    2    0    0 -0.24769936899E+02 -0.34947103129E+02 -0.69838323686E+01  0.47787266070E+02  0.19999977319E+02 0.  0.
        -12    1    1    2    0    0  0.24769936899E+02  0.34947103129E+02  0.69838323686E+01  0.43400733930E+02  0.00000000000E+00 0.  1.
         11    1    3    3    0    0 -0.69003462106E+01 -0.98016998353E+01 -0.70133457054E+01  0.13887948579E+02  0.51100000000E-03 0. -1.
        -11    1    3    3    0    0 -0.71580087478E+01 -0.91854872263E+01  0.68421054267E+01  0.13506467775E+02  0.51100000000E-03 0.  1.
        -12    1    3    3    0    0 -0.10711581941E+02 -0.15959916068E+02 -0.68125920899E+01  0.20392849716E+02  0.00000000000E+00 0.  1.
</event>
<event>
 7    1  0.2497395E-009  0.4778725E+02  0.7816164E-02  0.1312668E+00
        -11   -1    0    0    0    0  0.00000000000E+00  0.00000000000E+00  0.45593999997E+02  0.45594000000E+02  0.51100000000E-03 0. -1.
         11   -1    0    0    0    0 -0.00000000000E+00 -0.00000000000E+00 -0.45593999997E+02  0.45594000000E+02  0.51100000000E-03 0.  1.
    9900012    2    1    2    0    0  0.36645673352E+01  0.42340226936E+02  0.88034726541E+01  0.47787251141E+02  0.19999909251E+02 0.  0.
        -12    1    1    2    0    0 -0.36645673352E+01 -0.42340226936E+02 -0.88034726541E+01  0.43400748859E+02  0.00000000000E+00 0.  1.
         11    1    3    3    0    0 -0.25311271891E+01  0.10994091808E+02  0.10649526761E+02  0.15514157407E+02  0.51100000000E-03 0. -1.
        -11    1    3    3    0    0  0.37824110907E+01  0.26832928959E+02 -0.13634691999E+01  0.27132485303E+02  0.51100000000E-03 0.  1.
         12    1    3    3    0    0  0.24132834336E+01  0.45132061690E+01 -0.48258490702E+00  0.51406084316E+01  0.00000000000E+00 0. -1.
</event>
<event>
 7    1  0.2497395E-009  0.4778726E+02  0.7816164E-02  0.1312668E+00
        -11   -1    0    0    0    0  0.00000000000E+00  0.00000000000E+00  0.45593999997E+02  0.45594000000E+02  0.51100000000E-03 0. -1.
         11   -1    0    0    0    0 -0.00000000000E+00 -0.00000000000E+00 -0.45593999997E+02  0.45594000000E+02  0.51100000000E-03 0.  1.
    9900012    2    1    2    0    0 -0.11207924316E+02 -0.27922373807E+02  0.31278544630E+02  0.47787264054E+02  0.19999968127E+02 0.  0.
        -12    1    1    2    0    0  0.11207924316E+02  0.27922373807E+02 -0.31278544630E+02  0.43400735946E+02  0.00000000000E+00 0.  1.
         11    1    3    3    0    0  0.30612226135E+01 -0.12778893705E+02  0.86616121572E+01  0.15738320547E+02  0.51100000000E-03 0.  1.
        -11    1    3    3    0    0 -0.11839437485E+02 -0.14678587041E+02  0.22776171177E+02  0.29570038404E+02  0.51100000000E-03 0. -1.
        -12    1    3    3    0    0 -0.24297094445E+01 -0.46489306110E+00 -0.15923870411E+00  0.24789051027E+01  0.00000000000E+00 0.  1.
</event>
<event>
 7    1  0.2497395E-009  0.4778727E+02  0.7816164E-02  0.1312668E+00
        -11   -1    0    0    0    0  0.00000000000E+00  0.00000000000E+00  0.45593999997E+02  0.45594000000E+02  0.51100000000E-03 0. -1.
         11   -1    0    0    0    0 -0.00000000000E+00 -0.00000000000E+00 -0.45593999997E+02  0.45594000000E+02  0.51100000000E-03 0.  1.
    9900012    2    1    2    0    0  0.33204982507E+01  0.10478403204E+02  0.41985722321E+02  0.47787268195E+02  0.19999987010E+02 0.  0.
        -12    1    1    2    0    0 -0.33204982507E+01 -0.10478403204E+02 -0.41985722321E+02  0.43400731805E+02  0.00000000000E+00 0.  1.
         11    1    3    3    0    0  0.65560058488E+01  0.56416304677E+01  0.31724274591E+02  0.32882195875E+02  0.51100000000E-03 0. -1.
        -11    1    3    3    0    0 -0.40011292588E+01  0.13938906591E+01  0.10547315747E+02  0.11366522610E+02  0.51100000000E-03 0.  1.
         12    1    3    3    0    0  0.76562166072E+00  0.34428820773E+01 -0.28586801654E+00  0.35385497097E+01  0.00000000000E+00 0. -1.
</event>
<event>
 7    1  0.2497395E-009  0.4778727E+02  0.7816164E-02  0.1312668E+00
        -11   -1    0    0    0    0  0.00000000000E+00  0.00000000000E+00  0.45593999997E+02  0.45594000000E+02  0.51100000000E-03 0.  1.
         11   -1    0    0    0    0 -0.00000000000E+00 -0.00000000000E+00 -0.45593999997E+02  0.45594000000E+02  0.51100000000E-03 0. -1.
    9900012    2    1    2    0    0 -0.17512669842E+02  0.37787154374E+02 -0.12209038689E+02  0.47787271130E+02  0.20000000391E+02 0.  0.
        -12    1    1    2    0    0  0.17512669842E+02 -0.37787154374E+02  0.12209038689E+02  0.43400728870E+02  0.00000000000E+00 0.  1.
         11    1    3    3    0    0 -0.47578309814E+01  0.20245259038E+02  0.22429034974E+00  0.20798023358E+02  0.51100000000E-03 0. -1.
        -11    1    3    3    0    0 -0.64015252639E+01  0.15910174980E+01 -0.50120940655E+01  0.82844402083E+01  0.51100000000E-03 0.  1.
        -12    1    3    3    0    0 -0.63533135972E+01  0.15950877838E+02 -0.74212349734E+01  0.18704807564E+02  0.00000000000E+00 0.  1.
</event>
<event>
 7    1  0.2497395E-009  0.4778727E+02  0.7816164E-02  0.1312668E+00
        -11   -1    0    0    0    0  0.00000000000E+00  0.00000000000E+00  0.45593999997E+02  0.45594000000E+02  0.51100000000E-03 0. -1.
         11   -1    0    0    0    0 -0.00000000000E+00 -0.00000000000E+00 -0.45593999997E+02  0.45594000000E+02  0.51100000000E-03 0.  1.
    9900012    2    1    2    0    0 -0.38470859875E+02  0.19446513949E+02  0.50447799621E+01  0.47787265339E+02  0.19999973985E+02 0.  0.
        -12    1    1    2    0    0  0.38470859875E+02 -0.19446513949E+02 -0.50447799621E+01  0.43400734661E+02  0.00000000000E+00 0.  1.
         11    1    3    3    0    0 -0.20444451125E+02  0.53902784654E+01  0.98983260844E+01  0.23345396618E+02  0.51100000000E-03 0. -1.
        -11    1    3    3    0    0 -0.51525237876E+01  0.77580930864E+01 -0.38410824304E+01  0.10074245590E+02  0.51100000000E-03 0.  1.
         12    1    3    3    0    0 -0.12873884962E+02  0.62981423976E+01 -0.10124636919E+01  0.14367623130E+02  0.00000000000E+00 0. -1.
</event>
<event>
 7    1  0.2497395E-009  0.4778727E+02  0.7816164E-02  0.1312668E+00
        -11   -1    0    0    0    0  0.00000000000E+00  0.00000000000E+00  0.45593999997E+02  0.45594000000E+02  0.51100000000E-03 0.  1.
         11   -1    0    0    0    0 -0.00000000000E+00 -0.00000000000E+00 -0.45593999997E+02  0.45594000000E+02  0.51100000000E-03 0. -1.
    9900012    2    1    2    0    0 -0.38665105688E+02 -0.19617689750E+02  0.19439378695E+01  0.47787273700E+02  0.20000012106E+02 0.  0.
        -12    1    1    2    0    0  0.38665105688E+02  0.19617689750E+02 -0.19439378695E+01  0.43400726300E+02  0.00000000000E+00 0.  1.
         11    1    3    3    0    0 -0.37701806950E+02 -0.13996761270E+02  0.20350220609E+01  0.40267566209E+02  0.51100000000E-03 0. -1.
        -11    1    3    3    0    0  0.13390226650E+01  0.62765134658E-01 -0.33797613765E+00  0.13824432322E+01  0.51100000000E-03 0.  1.
         12    1    3    3    0    0 -0.23023214029E+01 -0.56836936143E+01  0.24689194628E+00  0.61372642584E+01  0.00000000000E+00 0. -1.
</event>
<event>
 7    1  0.2497395E-009  0.4778727E+02  0.7816164E-02  0.1312668E+00
        -11   -1    0    0    0    0  0.00000000000E+00  0.00000000000E+00  0.45593999997E+02  0.45594000000E+02  0.51100000000E-03 0.  1.
         11   -1    0    0    0    0 -0.00000000000E+00 -0.00000000000E+00 -0.45593999997E+02  0.45594000000E+02  0.51100000000E-03 0. -1.
    9900012    2    1    2    0    0  0.12047219850E+01 -0.13607972353E+02 -0.41194595631E+02  0.47787274478E+02  0.20000015654E+02 0.  0.
        -12    1    1    2    0    0 -0.12047219850E+01  0.13607972353E+02  0.41194595631E+02  0.43400725522E+02  0.00000000000E+00 0.  1.
         11    1    3    3    0    0 -0.20202690684E+01 -0.50616124930E+01 -0.35527044296E+02  0.35942624902E+02  0.51100000000E-03 0. -1.
        -11    1    3    3    0    0  0.19800183314E+01 -0.74091559339E+01 -0.21833802689E+01  0.79739083206E+01  0.51100000000E-03 0.  1.
         12    1    3    3    0    0  0.12449727219E+01 -0.11372039258E+01 -0.34841710665E+01  0.38707412556E+01  0.00000000000E+00 0. -1.
</event>
<event>
 7    1  0.2497395E-009  0.4778726E+02  0.7816164E-02  0.1312668E+00
        -11   -1    0    0    0    0  0.00000000000E+00  0.00000000000E+00  0.45593999997E+02  0.45594000000E+02  0.51100000000E-03 0. -1.
         11   -1    0    0    0    0 -0.00000000000E+00 -0.00000000000E+00 -0.45593999997E+02  0.45594000000E+02  0.51100000000E-03 0.  1.
    9900012    2    1    2    0    0 -0.11312376571E+01  0.41281905251E+02  0.13347239747E+02  0.47787260275E+02  0.19999950899E+02 0.  0.
        -12    1    1    2    0    0  0.11312376571E+01 -0.41281905251E+02 -0.13347239747E+02  0.43400739725E+02  0.00000000000E+00 0.  1.
         11    1    3    3    0    0 -0.45996412833E+01  0.22485122295E+01  0.28342360862E+01  0.58519570773E+01  0.51100000000E-03 0.  1.
        -11    1    3    3    0    0  0.16363044785E+01  0.35026378902E+02  0.12330143933E+02  0.37169304015E+02  0.51100000000E-03 0. -1.
        -12    1    3    3    0    0  0.18320991477E+01  0.40070141197E+01 -0.18171402718E+01  0.47659991827E+01  0.00000000000E+00 0.  1.
</event>
<event>
 7    1  0.2497395E-009  0.4778727E+02  0.7816164E-02  0.1312668E+00
        -11   -1    0    0    0    0  0.00000000000E+00  0.00000000000E+00  0.45593999997E+02  0.45594000000E+02  0.51100000000E-03 0. -1.
         11   -1    0    0    0    0 -0.00000000000E+00 -0.00000000000E+00 -0.45593999997E+02  0.45594000000E+02  0.51100000000E-03 0.  1.
    9900012    2    1    2    0    0  0.79812478273E+01  0.41689413387E+02  0.90507377242E+01  0.47787270066E+02  0.19999995539E+02 0.  0.
        -12    1    1    2    0    0 -0.79812478273E+01 -0.41689413387E+02 -0.90507377242E+01  0.43400729934E+02  0.00000000000E+00 0.  1.
         11    1    3    3    0    0  0.73857604539E+01  0.24053450397E+02  0.52691101492E+01  0.25707614737E+02  0.51100000000E-03 0. -1.
        -11    1    3    3    0    0 -0.51993596070E+01  0.13411812712E+02  0.39141401097E+01  0.14907399291E+02  0.51100000000E-03 0.  1.
         12    1    3    3    0    0  0.57948469804E+01  0.42241502783E+01 -0.13251253481E+00  0.71722560378E+01  0.00000000000E+00 0. -1.
</event>
<event>
 7    1  0.2497395E-009  0.4778727E+02  0.7816164E-02  0.1312668E+00
        -11   -1    0    0    0    0  0.00000000000E+00  0.00000000000E+00  0.45593999997E+02  0.45594000000E+02  0.51100000000E-03 0.  1.
         11   -1    0    0    0    0 -0.00000000000E+00 -0.00000000000E+00 -0.45593999997E+02  0.45594000000E+02  0.51100000000E-03 0. -1.
    9900012    2    1    2    0    0  0.29445174245E+02 -0.28951878027E+02 -0.13356406978E+02  0.47787272645E+02  0.20000007295E+02 0.  0.
        -12    1    1    2    0    0 -0.29445174245E+02  0.28951878027E+02  0.13356406978E+02  0.43400727355E+02  0.00000000000E+00 0.  1.
         11    1    3    3    0    0  0.15290191420E+01 -0.11012336750E+02 -0.37111204816E+01  0.11721001481E+02  0.51100000000E-03 0. -1.
        -11    1    3    3    0    0 -0.17429560425E+00  0.90790051994E+00 -0.29201137432E+00  0.96950152945E+00  0.51100000000E-03 0.  1.
         12    1    3    3    0    0  0.28090450707E+02 -0.18847441797E+02 -0.93532751223E+01  0.35096769634E+02  0.00000000000E+00 0. -1.
</event>
<event>
 7    1  0.2497395E-009  0.4778727E+02  0.7816164E-02  0.1312668E+00
        -11   -1    0    0    0    0  0.00000000000E+00  0.00000000000E+00  0.45593999997E+02  0.45594000000E+02  0.51100000000E-03 0.  1.
         11   -1    0    0    0    0 -0.00000000000E+00 -0.00000000000E+00 -0.45593999997E+02  0.45594000000E+02  0.51100000000E-03 0. -1.
    9900012    2    1    2    0    0 -0.10434963196E+02  0.56227470290E+01 -0.41750684115E+02  0.47787269993E+02  0.19999995206E+02 0.  0.
        -12    1    1    2    0    0  0.10434963196E+02 -0.56227470290E+01  0.41750684115E+02  0.43400730007E+02  0.00000000000E+00 0.  1.
         11    1    3    3    0    0 -0.11684455303E+02 -0.85218249424E+00 -0.19896385832E+02  0.23089367253E+02  0.51100000000E-03 0. -1.
        -11    1    3    3    0    0  0.11879430279E+01  0.46043501291E+01 -0.22277268231E+02  0.22779111678E+02  0.51100000000E-03 0.  1.
        -12    1    3    3    0    0  0.61549078684E-01  0.18705793941E+01  0.42296994802E+00  0.19187910610E+01  0.00000000000E+00 0.  1.
</event>
<event>
 7    1  0.2497395E-009  0.4778727E+02  0.7816164E-02  0.1312668E+00
        -11   -1    0    0    0    0  0.00000000000E+00  0.00000000000E+00  0.45593999997E+02  0.45594000000E+02  0.51100000000E-03 0.  1.
         11   -1    0    0    0    0 -0.00000000000E+00 -0.00000000000E+00 -0.45593999997E+02  0.45594000000E+02  0.51100000000E-03 0. -1.
    9900012    2    1    2    0    0 -0.22027280892E+02  0.34917144151E+02 -0.13387134800E+02  0.47787269162E+02  0.19999991418E+02 0.  0.
        -12    1    1    2    0    0  0.22027280892E+02 -0.34917144151E+02  0.13387134800E+02  0.43400730838E+02  0.00000000000E+00 0.  1.
         11    1    3    3    0    0 -0.13175056779E+02  0.25859393303E+02 -0.13907821074E+02  0.32182570289E+02  0.51100000000E-03 0. -1.
        -11    1    3    3    0    0  0.43994077492E+00  0.56914076962E+01  0.10566524189E-01  0.57083956908E+01  0.51100000000E-03 0.  1.
         12    1    3    3    0    0 -0.92921648875E+01  0.33663431517E+01  0.51011975063E+00  0.98963031821E+01  0.00000000000E+00 0. -1.
</event>
<event>
 7    1  0.2497395E-009  0.4778727E+02  0.7816164E-02  0.1312668E+00
        -11   -1    0    0    0    0  0.00000000000E+00  0.00000000000E+00  0.45593999997E+02  0.45594000000E+02  0.51100000000E-03 0. -1.
         11   -1    0    0    0    0 -0.00000000000E+00 -0.00000000000E+00 -0.45593999997E+02  0.45594000000E+02  0.51100000000E-03 0.  1.
    9900012    2    1    2    0    0 -0.35377026970E+02  0.22507154643E+02  0.11203439515E+02  0.47787272998E+02  0.20000008907E+02 0.  0.
        -12    1    1    2    0    0  0.35377026970E+02 -0.22507154643E+02 -0.11203439515E+02  0.43400727002E+02  0.00000000000E+00 0.  1.
         11    1    3    3    0    0 -0.35426426210E+02  0.21056750228E+02  0.10408116059E+02  0.42505850002E+02  0.51100000000E-03 0. -1.
        -11    1    3    3    0    0 -0.25339395177E+00  0.22017410732E+01 -0.16126178732E+01  0.27408773986E+01  0.51100000000E-03 0.  1.
         12    1    3    3    0    0  0.30279319200E+00 -0.75133665863E+00  0.24079413286E+01  0.25405455977E+01  0.00000000000E+00 0. -1.
</event>
<event>
 7    1  0.2497395E-009  0.4778726E+02  0.7816164E-02  0.1312668E+00
        -11   -1    0    0    0    0  0.00000000000E+00  0.00000000000E+00  0.45593999997E+02  0.45594000000E+02  0.51100000000E-03 0.  1.
         11   -1    0    0    0    0 -0.00000000000E+00 -0.00000000000E+00 -0.45593999997E+02  0.45594000000E+02  0.51100000000E-03 0. -1.
    9900012    2    1    2    0    0  0.62049429857E+01  0.33575624821E+02 -0.26791798814E+02  0.47787258264E+02  0.19999941727E+02 0.  0.
        -12    1    1    2    0    0 -0.62049429857E+01 -0.33575624821E+02  0.26791798814E+02  0.43400741736E+02  0.00000000000E+00 0.  1.
         11    1    3    3    0    0  0.94840643542E+01  0.66648830390E+01 -0.90278101186E+01  0.14692498031E+02  0.51100000000E-03 0. -1.
        -11    1    3    3    0    0 -0.26940825884E+01  0.19304817668E+02 -0.89808176055E+01  0.21461340856E+02  0.51100000000E-03 0.  1.
         12    1    3    3    0    0 -0.58503878016E+00  0.76059241140E+01 -0.87831710899E+01  0.11633419377E+02  0.00000000000E+00 0. -1.
</event>
<event>
 7    1  0.2497395E-009  0.4778727E+02  0.7816164E-02  0.1312668E+00
        -11   -1    0    0    0    0  0.00000000000E+00  0.00000000000E+00  0.45593999997E+02  0.45594000000E+02  0.51100000000E-03 0. -1.
         11   -1    0    0    0    0 -0.00000000000E+00 -0.00000000000E+00 -0.45593999997E+02  0.45594000000E+02  0.51100000000E-03 0.  1.
    9900012    2    1    2    0    0 -0.97902568996E+01 -0.22875427317E+02  0.35559652921E+02  0.47787271654E+02  0.20000002779E+02 0.  0.
        -12    1    1    2    0    0  0.97902568996E+01  0.22875427317E+02 -0.35559652921E+02  0.43400728346E+02  0.00000000000E+00 0.  1.
         11    1    3    3    0    0 -0.12486283833E+02 -0.20709390028E+02  0.22913600637E+02  0.33313949236E+02  0.51100000000E-03 0. -1.
        -11    1    3    3    0    0  0.16633866777E+00  0.57651589115E+00  0.97021674879E+01  0.97207043649E+01  0.51100000000E-03 0.  1.
        -12    1    3    3    0    0  0.25296882652E+01 -0.27425531801E+01  0.29438847967E+01  0.47526180534E+01  0.00000000000E+00 0.  1.
</event>
<event>
 7    1  0.2497395E-009  0.4778727E+02  0.7816164E-02  0.1312668E+00
        -11   -1    0    0    0    0  0.00000000000E+00  0.00000000000E+00  0.45593999997E+02  0.45594000000E+02  0.51100000000E-03 0. -1.
         11   -1    0    0    0    0 -0.00000000000E+00 -0.00000000000E+00 -0.45593999997E+02  0.45594000000E+02  0.51100000000E-03 0.  1.
    9900012    2    1    2    0    0 -0.37068759841E+02  0.20140912290E+02 -0.10191846102E+02  0.47787273843E+02  0.20000012759E+02 0.  0.
        -12    1    1    2    0    0  0.37068759841E+02 -0.20140912290E+02  0.10191846102E+02  0.43400726157E+02  0.00000000000E+00 0.  1.
         11    1    3    3    0    0 -0.13385080627E+02  0.16029384483E+01 -0.10953808324E+01  0.13525148964E+02  0.51100000000E-03 0. -1.
        -11    1    3    3    0    0 -0.16809516920E+02  0.76940798567E+01  0.69515860199E-01  0.18486848207E+02  0.51100000000E-03 0.  1.
        -12    1    3    3    0    0 -0.68741622938E+01  0.10843893985E+02 -0.91659811295E+01  0.15775276672E+02  0.00000000000E+00 0.  1.
</event>
<event>
 7    1  0.2497395E-009  0.4778727E+02  0.7816164E-02  0.1312668E+00
        -11   -1    0    0    0    0  0.00000000000E+00  0.00000000000E+00  0.45593999997E+02  0.45594000000E+02  0.51100000000E-03 0. -1.
         11   -1    0    0    0    0 -0.00000000000E+00 -0.00000000000E+00 -0.45593999997E+02  0.45594000000E+02  0.51100000000E-03 0.  1.
    9900012    2    1    2    0    0 -0.32518287383E+02 -0.10811413312E+02  0.26632640917E+02  0.47787271500E+02  0.20000002077E+02 0.  0.
        -12    1    1    2    0    0  0.32518287383E+02  0.10811413312E+02 -0.26632640917E+02  0.43400728500E+02  0.00000000000E+00 0.  1.
         11    1    3    3    0    0 -0.15793194898E+02 -0.88113448551E+00  0.10663873090E+02  0.19076676666E+02  0.51100000000E-03 0. -1.
        -11    1    3    3    0    0 -0.94683932909E+01 -0.12180962683E+02  0.14067234696E+02  0.20878539595E+02  0.51100000000E-03 0.  1.
        -12    1    3    3    0    0 -0.72566991935E+01  0.22506838567E+01  0.19015331313E+01  0.78320552384E+01  0.00000000000E+00 0.  1.
</event>
<event>
 7    1  0.2497395E-009  0.4778727E+02  0.7816164E-02  0.1312668E+00
        -11   -1    0    0    0    0  0.00000000000E+00  0.00000000000E+00  0.45593999997E+02  0.45594000000E+02  0.51100000000E-03 0.  1.
         11   -1    0    0    0    0 -0.00000000000E+00 -0.00000000000E+00 -0.45593999997E+02  0.45594000000E+02  0.51100000000E-03 0. -1.
    9900012    2    1    2    0    0  0.18037159507E+02 -0.21170797601E+02 -0.33317885742E+02  0.47787270692E+02  0.19999998394E+02 0.  0.
        -12    1    1    2    0    0 -0.18037159507E+02  0.21170797601E+02  0.33317885742E+02  0.43400729308E+02  0.00000000000E+00 0.  1.
         11    1    3    3    0    0  0.81241778296E+01 -0.99881014125E+01 -0.17891139615E+02  0.22042171223E+02  0.51100000000E-03 0. -1.
        -11    1    3    3    0    0 -0.26530896009E+00 -0.80839670195E+00  0.25152753898E+01  0.26552786331E+01  0.51100000000E-03 0.  1.
        -12    1    3    3    0    0  0.10178290637E+02 -0.10374299487E+02 -0.17942021516E+02  0.23089820836E+02  0.00000000000E+00 0.  1.
</event>
<event>
 7    1  0.2497395E-009  0.4778728E+02  0.7816164E-02  0.1312668E+00
        -11   -1    0    0    0    0  0.00000000000E+00  0.00000000000E+00  0.45593999997E+02  0.45594000000E+02  0.51100000000E-03 0.  1.
         11   -1    0    0    0    0 -0.00000000000E+00 -0.00000000000E+00 -0.45593999997E+02  0.45594000000E+02  0.51100000000E-03 0. -1.
    9900012    2    1    2    0    0 -0.79982150987E+00 -0.42875931338E+01 -0.43181011572E+02  0.47787275009E+02  0.20000018078E+02 0.  0.
        -12    1    1    2    0    0  0.79982150987E+00  0.42875931338E+01  0.43181011572E+02  0.43400724991E+02  0.00000000000E+00 0.  1.
         11    1    3    3    0    0 -0.24496697540E+01 -0.64795785259E+01 -0.68760245025E+01  0.97604063951E+01  0.51100000000E-03 0. -1.
        -11    1    3    3    0    0  0.21045734774E+01  0.60947383773E+00 -0.36314256098E+02  0.36380295272E+02  0.51100000000E-03 0.  1.
        -12    1    3    3    0    0 -0.45472523329E+00  0.15825115544E+01  0.92690282678E-02  0.16465733426E+01  0.00000000000E+00 0.  1.
</event>
<event>
 7    1  0.2497395E-009  0.4778724E+02  0.7816164E-02  0.1312668E+00
        -11   -1    0    0    0    0  0.00000000000E+00  0.00000000000E+00  0.45593999997E+02  0.45594000000E+02  0.51100000000E-03 0.  1.
         11   -1    0    0    0    0 -0.00000000000E+00 -0.00000000000E+00 -0.45593999997E+02  0.45594000000E+02  0.51100000000E-03 0. -1.
    9900012    2    1    2    0    0 -0.17912953219E+02  0.53009910044E+01 -0.39174629045E+02  0.47787240105E+02  0.19999858936E+02 0.  0.
        -12    1    1    2    0    0  0.17912953219E+02 -0.53009910044E+01  0.39174629045E+02  0.43400759895E+02  0.00000000000E+00 0.  1.
         11    1    3    3    0    0 -0.83607751984E+01 -0.49178294429E+01 -0.28490783813E+02  0.30096716946E+02  0.51100000000E-03 0. -1.
        -11    1    3    3    0    0 -0.86705213375E+01  0.85854639873E+01 -0.97129223240E+01  0.15595800476E+02  0.51100000000E-03 0.  1.
         12    1    3    3    0    0 -0.88165668290E+00  0.16333564600E+01 -0.97092290715E+00  0.20947226842E+01  0.00000000000E+00 0. -1.
</event>
<event>
 7    1  0.2497395E-009  0.4778727E+02  0.7816164E-02  0.1312668E+00
        -11   -1    0    0    0    0  0.00000000000E+00  0.00000000000E+00  0.45593999997E+02  0.45594000000E+02  0.51100000000E-03 0.  1.
         11   -1    0    0    0    0 -0.00000000000E+00 -0.00000000000E+00 -0.45593999997E+02  0.45594000000E+02  0.51100000000E-03 0. -1.
    9900012    2    1    2    0    0 -0.22527619222E+02 -0.29378834794E+01 -0.36979701971E+02  0.47787272529E+02  0.20000006769E+02 0.  0.
        -12    1    1    2    0    0  0.22527619222E+02  0.29378834794E+01  0.36979701971E+02  0.43400727471E+02  0.00000000000E+00 0.  1.
         11    1    3    3    0    0 -0.14449821874E+02 -0.92779326556E+01 -0.27921350057E+02  0.32779249165E+02  0.51100000000E-03 0. -1.
        -11    1    3    3    0    0 -0.77352646576E+01  0.46008918495E+01 -0.95955147101E+01  0.13155851472E+02  0.51100000000E-03 0.  1.
        -12    1    3    3    0    0 -0.34253269088E+00  0.17391573267E+01  0.53716279597E+00  0.18521718929E+01  0.00000000000E+00 0.  1.
</event>
<event>
 7    1  0.2497395E-009  0.4778727E+02  0.7816164E-02  0.1312668E+00
        -11   -1    0    0    0    0  0.00000000000E+00  0.00000000000E+00  0.45593999997E+02  0.45594000000E+02  0.51100000000E-03 0. -1.
         11   -1    0    0    0    0 -0.00000000000E+00 -0.00000000000E+00 -0.45593999997E+02  0.45594000000E+02  0.51100000000E-03 0.  1.
    9900012    2    1    2    0    0  0.27999998939E+02  0.21752485974E+02  0.25029039923E+02  0.47787269291E+02  0.19999992005E+02 0.  0.
        -12    1    1    2    0    0 -0.27999998939E+02 -0.21752485974E+02 -0.25029039923E+02  0.43400730709E+02  0.00000000000E+00 0.  1.
         11    1    3    3    0    0  0.87297395720E+01  0.66968298818E+01  0.12148111197E+02  0.16390011878E+02  0.51100000000E-03 0. -1.
        -11    1    3    3    0    0  0.21257190309E+02  0.14495142724E+02  0.94821108748E+01  0.27420571280E+02  0.51100000000E-03 0.  1.
        -12    1    3    3    0    0 -0.19869309425E+01  0.56051336753E+00  0.33988178522E+01  0.39766861327E+01  0.00000000000E+00 0.  1.
</event>
<event>
 7    1  0.2497395E-009  0.4778727E+02  0.7816164E-02  0.1312668E+00
        -11   -1    0    0    0    0  0.00000000000E+00  0.00000000000E+00  0.45593999997E+02  0.45594000000E+02  0.51100000000E-03 0.  1.
         11   -1    0    0    0    0 -0.00000000000E+00 -0.00000000000E+00 -0.45593999997E+02  0.45594000000E+02  0.51100000000E-03 0. -1.
    9900012    2    1    2    0    0 -0.20708563385E+02  0.19960669757E+02 -0.32501542265E+02  0.47787272077E+02  0.20000004708E+02 0.  0.
        -12    1    1    2    0    0  0.20708563385E+02 -0.19960669757E+02  0.32501542265E+02  0.43400727923E+02  0.00000000000E+00 0.  1.
         11    1    3    3    0    0 -0.16210779636E+02  0.14547445231E+02 -0.32924008678E+02  0.39476675225E+02  0.51100000000E-03 0. -1.
        -11    1    3    3    0    0 -0.25414517977E+01  0.28280668598E+00  0.10893211360E+01  0.27794923386E+01  0.51100000000E-03 0.  1.
         12    1    3    3    0    0 -0.19563319511E+01  0.51304178397E+01 -0.66685472360E+00  0.55311045131E+01  0.00000000000E+00 0. -1.
</event>
<event>
 7    1  0.2497395E-009  0.4778727E+02  0.7816164E-02  0.1312668E+00
        -11   -1    0    0    0    0  0.00000000000E+00  0.00000000000E+00  0.45593999997E+02  0.45594000000E+02  0.51100000000E-03 0.  1.
         11   -1    0    0    0    0 -0.00000000000E+00 -0.00000000000E+00 -0.45593999997E+02  0.45594000000E+02  0.51100000000E-03 0. -1.
    9900012    2    1    2    0    0  0.39529383695E+02  0.84017988821E+01 -0.15825951721E+02  0.47787272499E+02  0.20000006631E+02 0.  0.
        -12    1    1    2    0    0 -0.39529383695E+02 -0.84017988821E+01  0.15825951721E+02  0.43400727501E+02  0.00000000000E+00 0.  1.
         11    1    3    3    0    0  0.18753769122E+02  0.19970006859E+01 -0.15569798539E+02  0.24456297652E+02  0.51100000000E-03 0. -1.
        -11    1    3    3    0    0  0.16181078960E+02  0.59869440266E+01  0.32243593131E+01  0.17551846294E+02  0.51100000000E-03 0.  1.
        -12    1    3    3    0    0  0.45945356128E+01  0.41785416961E+00 -0.34805124951E+01  0.57791285531E+01  0.00000000000E+00 0.  1.
</event>
<event>
 7    1  0.2497395E-009  0.4778728E+02  0.7816164E-02  0.1312668E+00
        -11   -1    0    0    0    0  0.00000000000E+00  0.00000000000E+00  0.45593999997E+02  0.45594000000E+02  0.51100000000E-03 0.  1.
         11   -1    0    0    0    0 -0.00000000000E+00 -0.00000000000E+00 -0.45593999997E+02  0.45594000000E+02  0.51100000000E-03 0. -1.
    9900012    2    1    2    0    0  0.28712465063E+02 -0.13400135795E+02 -0.29658948152E+02  0.47787280020E+02  0.20000040921E+02 0.  0.
        -12    1    1    2    0    0 -0.28712465063E+02  0.13400135795E+02  0.29658948152E+02  0.43400719980E+02  0.00000000000E+00 0.  1.
         11    1    3    3    0    0  0.66564245934E+01  0.56496945261E+00 -0.71993546537E+01  0.98212975997E+01  0.51100000000E-03 0. -1.
        -11    1    3    3    0    0  0.21468400479E+02 -0.10965462804E+02 -0.24436274629E+02  0.34325866509E+02  0.51100000000E-03 0.  1.
        -12    1    3    3    0    0  0.58763999109E+00 -0.29996424438E+01  0.19766811307E+01  0.36401159106E+01  0.00000000000E+00 0.  1.
</event>
<event>
 7    1  0.2497395E-009  0.4778727E+02  0.7816164E-02  0.1312668E+00
        -11   -1    0    0    0    0  0.00000000000E+00  0.00000000000E+00  0.45593999997E+02  0.45594000000E+02  0.51100000000E-03 0. -1.
         11   -1    0    0    0    0 -0.00000000000E+00 -0.00000000000E+00 -0.45593999997E+02  0.45594000000E+02  0.51100000000E-03 0.  1.
    9900012    2    1    2    0    0  0.34671999159E+02 -0.24999578978E+02  0.75164532755E+01  0.47787267926E+02  0.19999985780E+02 0.  0.
        -12    1    1    2    0    0 -0.34671999159E+02  0.24999578978E+02 -0.75164532755E+01  0.43400732074E+02  0.00000000000E+00 0.  1.
         11    1    3    3    0    0  0.12521994103E+02 -0.11043718005E+02  0.51763764531E+01  0.17480243624E+02  0.51100000000E-03 0. -1.
        -11    1    3    3    0    0  0.16043103931E+02 -0.17003559031E+02  0.14246759167E+01  0.23420757997E+02  0.51100000000E-03 0.  1.
        -12    1    3    3    0    0  0.61069011250E+01  0.30476980575E+01  0.91540090567E+00  0.68862663047E+01  0.00000000000E+00 0.  1.
</event>
<event>
 7    1  0.2497395E-009  0.4778727E+02  0.7816164E-02  0.1312668E+00
        -11   -1    0    0    0    0  0.00000000000E+00  0.00000000000E+00  0.45593999997E+02  0.45594000000E+02  0.51100000000E-03 0.  1.
         11   -1    0    0    0    0 -0.00000000000E+00 -0.00000000000E+00 -0.45593999997E+02  0.45594000000E+02  0.51100000000E-03 0. -1.
    9900012    2    1    2    0    0  0.12333732304E+02 -0.31318076361E+02 -0.27398541451E+02  0.47787274969E+02  0.20000017896E+02 0.  0.
        -12    1    1    2    0    0 -0.12333732304E+02  0.31318076361E+02  0.27398541451E+02  0.43400725031E+02  0.00000000000E+00 0.  1.
         11    1    3    3    0    0  0.86141964944E+01 -0.23356660692E+02 -0.12264211706E+02  0.27751556154E+02  0.51100000000E-03 0.  1.
        -11    1    3    3    0    0  0.40137111865E+01 -0.90483435759E+01 -0.15860434249E+02  0.18695875849E+02  0.51100000000E-03 0. -1.
        -12    1    3    3    0    0 -0.29417537708E+00  0.10869279064E+01  0.72610450296E+00  0.13398429667E+01  0.00000000000E+00 0.  1.
</event>
<event>
 7    1  0.2497395E-009  0.4778727E+02  0.7816164E-02  0.1312668E+00
        -11   -1    0    0    0    0  0.00000000000E+00  0.00000000000E+00  0.45593999997E+02  0.45594000000E+02  0.51100000000E-03 0.  1.
         11   -1    0    0    0    0 -0.00000000000E+00 -0.00000000000E+00 -0.45593999997E+02  0.45594000000E+02  0.51100000000E-03 0. -1.
    9900012    2    1    2    0    0 -0.23709388410E+02  0.13183471758E+01 -0.36328364245E+02  0.47787272048E+02  0.20000004576E+02 0.  0.
        -12    1    1    2    0    0  0.23709388410E+02 -0.13183471758E+01  0.36328364245E+02  0.43400727952E+02  0.00000000000E+00 0.  1.
         11    1    3    3    0    0 -0.17981719057E+02  0.45358427597E+01 -0.32549894805E+02  0.37462137444E+02  0.51100000000E-03 0. -1.
        -11    1    3    3    0    0  0.11852497649E+00 -0.26225387948E+01  0.94041024941E+00  0.27885712468E+01  0.51100000000E-03 0.  1.
        -12    1    3    3    0    0 -0.58461943291E+01 -0.59495678911E+00 -0.47188796890E+01  0.75365633570E+01  0.00000000000E+00 0.  1.
</event>
<event>
 7    1  0.2497395E-009  0.4778727E+02  0.7816164E-02  0.1312668E+00
        -11   -1    0    0    0    0  0.00000000000E+00  0.00000000000E+00  0.45593999997E+02  0.45594000000E+02  0.51100000000E-03 0.  1.
         11   -1    0    0    0    0 -0.00000000000E+00 -0.00000000000E+00 -0.45593999997E+02  0.45594000000E+02  0.51100000000E-03 0. -1.
    9900012    2    1    2    0    0  0.26537040959E+02 -0.30959208708E+02  0.14863924789E+02  0.47787269513E+02  0.19999993015E+02 0.  0.
        -12    1    1    2    0    0 -0.26537040959E+02  0.30959208708E+02 -0.14863924789E+02  0.43400730487E+02  0.00000000000E+00 0.  1.
         11    1    3    3    0    0 -0.19536022272E+01 -0.87635093375E+01  0.42201463060E+01  0.99209522061E+01  0.51100000000E-03 0. -1.
        -11    1    3    3    0    0  0.14984438106E+02 -0.12041489141E+02  0.35895397250E+01  0.19555450437E+02  0.51100000000E-03 0.  1.
        -12    1    3    3    0    0  0.13506205081E+02 -0.10154210230E+02  0.70542387579E+01  0.18310866870E+02  0.00000000000E+00 0.  1.
</event>
<event>
 7    1  0.2497395E-009  0.4778727E+02  0.7816164E-02  0.1312668E+00
        -11   -1    0    0    0    0  0.00000000000E+00  0.00000000000E+00  0.45593999997E+02  0.45594000000E+02  0.51100000000E-03 0.  1.
         11   -1    0    0    0    0 -0.00000000000E+00 -0.00000000000E+00 -0.45593999997E+02  0.45594000000E+02  0.51100000000E-03 0. -1.
    9900012    2    1    2    0    0 -0.78789122803E+01  0.10094369930E+02 -0.41468661305E+02  0.47787269206E+02  0.19999991619E+02 0.  0.
        -12    1    1    2    0    0  0.78789122803E+01 -0.10094369930E+02  0.41468661305E+02  0.43400730794E+02  0.00000000000E+00 0.  1.
         11    1    3    3    0    0  0.46126037693E+00 -0.29642553933E+01 -0.17644318998E+02  0.17897529559E+02  0.51100000000E-03 0. -1.
        -11    1    3    3    0    0 -0.44087630433E+01  0.12028032778E+02 -0.21948394934E+02  0.25413437479E+02  0.51100000000E-03 0.  1.
        -12    1    3    3    0    0 -0.39314096139E+01  0.10305925457E+01 -0.18759473732E+01  0.44763021675E+01  0.00000000000E+00 0.  1.
</event>
<event>
 7    1  0.2497395E-009  0.4778726E+02  0.7816164E-02  0.1312668E+00
        -11   -1    0    0    0    0  0.00000000000E+00  0.00000000000E+00  0.45593999997E+02  0.45594000000E+02  0.51100000000E-03 0.  1.
         11   -1    0    0    0    0 -0.00000000000E+00 -0.00000000000E+00 -0.45593999997E+02  0.45594000000E+02  0.51100000000E-03 0. -1.
    9900012    2    1    2    0    0 -0.32482623857E+02  0.49026750024E+01 -0.28363137814E+02  0.47787255058E+02  0.19999927112E+02 0.  0.
        -12    1    1    2    0    0  0.32482623857E+02 -0.49026750024E+01  0.28363137814E+02  0.43400744942E+02  0.00000000000E+00 0.  1.
         11    1    3    3    0    0 -0.75456150539E+01 -0.29901637533E+01  0.81091429812E-01  0.81168936112E+01  0.51100000000E-03 0. -1.
        -11    1    3    3    0    0 -0.52613176565E+01  0.54176465146E+01 -0.54919665860E+01  0.93377756711E+01  0.51100000000E-03 0.  1.
         12    1    3    3    0    0 -0.19675691147E+02  0.24751922411E+01 -0.22952262658E+02  0.30332585776E+02  0.00000000000E+00 0. -1.
</event>
<event>
 7    1  0.2497395E-009  0.4778727E+02  0.7816164E-02  0.1312668E+00
        -11   -1    0    0    0    0  0.00000000000E+00  0.00000000000E+00  0.45593999997E+02  0.45594000000E+02  0.51100000000E-03 0.  1.
         11   -1    0    0    0    0 -0.00000000000E+00 -0.00000000000E+00 -0.45593999997E+02  0.45594000000E+02  0.51100000000E-03 0. -1.
    9900012    2    1    2    0    0 -0.20578707821E+02 -0.64953307289E+01 -0.37655686120E+02  0.47787271504E+02  0.20000002094E+02 0.  0.
        -12    1    1    2    0    0  0.20578707821E+02  0.64953307289E+01  0.37655686120E+02  0.43400728496E+02  0.00000000000E+00 0.  1.
         11    1    3    3    0    0 -0.58651378803E+01 -0.98466439493E+01 -0.11605790436E+02  0.16311057946E+02  0.51100000000E-03 0. -1.
        -11    1    3    3    0    0 -0.10635241919E+02  0.53822640846E+01 -0.23253355339E+02  0.26130359204E+02  0.51100000000E-03 0.  1.
        -12    1    3    3    0    0 -0.40783280221E+01 -0.20309508642E+01 -0.27965403451E+01  0.53458543537E+01  0.00000000000E+00 0.  1.
</event>
<event>
 7    1  0.2497395E-009  0.4778729E+02  0.7816164E-02  0.1312668E+00
        -11   -1    0    0    0    0  0.00000000000E+00  0.00000000000E+00  0.45593999997E+02  0.45594000000E+02  0.51100000000E-03 0.  1.
         11   -1    0    0    0    0 -0.00000000000E+00 -0.00000000000E+00 -0.45593999997E+02  0.45594000000E+02  0.51100000000E-03 0. -1.
    9900012    2    1    2    0    0 -0.18990485752E+02  0.12686602342E+02 -0.36905739035E+02  0.47787285700E+02  0.20000066820E+02 0.  0.
        -12    1    1    2    0    0  0.18990485752E+02 -0.12686602342E+02  0.36905739035E+02  0.43400714300E+02  0.00000000000E+00 0.  1.
         11    1    3    3    0    0 -0.13835512998E+02  0.81913995514E+01 -0.32543804701E+02  0.36299031270E+02  0.51100000000E-03 0. -1.
        -11    1    3    3    0    0 -0.14884239130E+01 -0.78604527970E+00  0.18827570606E+01  0.25254796251E+01  0.51100000000E-03 0.  1.
         12    1    3    3    0    0 -0.36665488411E+01  0.52812480700E+01 -0.62446913946E+01  0.89627748044E+01  0.00000000000E+00 0. -1.
</event>
<event>
 7    1  0.2497395E-009  0.4778727E+02  0.7816164E-02  0.1312668E+00
        -11   -1    0    0    0    0  0.00000000000E+00  0.00000000000E+00  0.45593999997E+02  0.45594000000E+02  0.51100000000E-03 0. -1.
         11   -1    0    0    0    0 -0.00000000000E+00 -0.00000000000E+00 -0.45593999997E+02  0.45594000000E+02  0.51100000000E-03 0.  1.
    9900012    2    1    2    0    0  0.42433905600E+02 -0.32489963712E+01  0.85106378159E+01  0.47787270998E+02  0.19999999787E+02 0.  0.
        -12    1    1    2    0    0 -0.42433905600E+02  0.32489963712E+01 -0.85106378159E+01  0.43400729002E+02  0.00000000000E+00 0.  1.
         11    1    3    3    0    0  0.31879511388E+02  0.12155446577E+01  0.11893636758E+02  0.34047604772E+02  0.51100000000E-03 0. -1.
        -11    1    3    3    0    0  0.28489269112E+01 -0.33669301504E+01 -0.39702900272E+01  0.59342907195E+01  0.51100000000E-03 0.  1.
        -12    1    3    3    0    0  0.77054673012E+01 -0.10976108785E+01  0.58729108484E+00  0.78053755059E+01  0.00000000000E+00 0.  1.
</event>
<event>
 7    1  0.2497395E-009  0.4778728E+02  0.7816164E-02  0.1312668E+00
        -11   -1    0    0    0    0  0.00000000000E+00  0.00000000000E+00  0.45593999997E+02  0.45594000000E+02  0.51100000000E-03 0.  1.
         11   -1    0    0    0    0 -0.00000000000E+00 -0.00000000000E+00 -0.45593999997E+02  0.45594000000E+02  0.51100000000E-03 0. -1.
    9900012    2    1    2    0    0 -0.31830602553E+02 -0.14490734291E+02 -0.25699298330E+02  0.47787279109E+02  0.20000036771E+02 0.  0.
        -12    1    1    2    0    0  0.31830602553E+02  0.14490734291E+02  0.25699298330E+02  0.43400720891E+02  0.00000000000E+00 0.  1.
         11    1    3    3    0    0 -0.23970969367E+02 -0.52212119951E+01 -0.21599450579E+02  0.32686460388E+02  0.51100000000E-03 0. -1.
        -11    1    3    3    0    0 -0.19040025657E+01 -0.29884882899E+01  0.23970755748E+01  0.42781140239E+01  0.51100000000E-03 0.  1.
        -12    1    3    3    0    0 -0.59556306198E+01 -0.62810340060E+01 -0.64969233257E+01  0.10822704697E+02  0.00000000000E+00 0.  1.
</event>
<event>
 7    1  0.2497395E-009  0.4778727E+02  0.7816164E-02  0.1312668E+00
        -11   -1    0    0    0    0  0.00000000000E+00  0.00000000000E+00  0.45593999997E+02  0.45594000000E+02  0.51100000000E-03 0. -1.
         11   -1    0    0    0    0 -0.00000000000E+00 -0.00000000000E+00 -0.45593999997E+02  0.45594000000E+02  0.51100000000E-03 0.  1.
    9900012    2    1    2    0    0 -0.42488599638E+02 -0.78649357894E+01  0.40601811811E+01  0.47787269759E+02  0.19999994141E+02 0.  0.
        -12    1    1    2    0    0  0.42488599638E+02  0.78649357894E+01 -0.40601811811E+01  0.43400730241E+02  0.00000000000E+00 0.  1.
         11    1    3    3    0    0 -0.24039649871E+02 -0.74574043801E+01 -0.38485679582E+01  0.25462307861E+02  0.51100000000E-03 0.  1.
        -11    1    3    3    0    0 -0.12372747744E+02 -0.20048407139E+01  0.96350723445E+01  0.15809455790E+02  0.51100000000E-03 0. -1.
        -12    1    3    3    0    0 -0.60762020233E+01  0.15973093046E+01 -0.17263232052E+01  0.65155061086E+01  0.00000000000E+00 0.  1.
</event>
<event>
 7    1  0.2497395E-009  0.4778727E+02  0.7816164E-02  0.1312668E+00
        -11   -1    0    0    0    0  0.00000000000E+00  0.00000000000E+00  0.45593999997E+02  0.45594000000E+02  0.51100000000E-03 0. -1.
         11   -1    0    0    0    0 -0.00000000000E+00 -0.00000000000E+00 -0.45593999997E+02  0.45594000000E+02  0.51100000000E-03 0.  1.
    9900012    2    1    2    0    0  0.40068026221E+02  0.13831245065E+02 -0.93205808266E+01  0.47787270833E+02  0.19999999037E+02 0.  0.
        -12    1    1    2    0    0 -0.40068026221E+02 -0.13831245065E+02  0.93205808266E+01  0.43400729167E+02  0.00000000000E+00 0.  1.
         11    1    3    3    0    0  0.16344261126E+02  0.22485720361E+01 -0.20670199011E+01  0.16627192171E+02  0.51100000000E-03 0. -1.
        -11    1    3    3    0    0  0.22042194506E+02  0.40661297366E+01 -0.38632218652E+01  0.22744586897E+02  0.51100000000E-03 0.  1.
        -12    1    3    3    0    0  0.16815705888E+01  0.75165432921E+01 -0.33903390603E+01  0.84154917653E+01  0.00000000000E+00 0.  1.
</event>
<event>
 7    1  0.2497395E-009  0.4778727E+02  0.7816164E-02  0.1312668E+00
        -11   -1    0    0    0    0  0.00000000000E+00  0.00000000000E+00  0.45593999997E+02  0.45594000000E+02  0.51100000000E-03 0.  1.
         11   -1    0    0    0    0 -0.00000000000E+00 -0.00000000000E+00 -0.45593999997E+02  0.45594000000E+02  0.51100000000E-03 0. -1.
    9900012    2    1    2    0    0 -0.31272861448E+02 -0.16734032277E+02 -0.25012065429E+02  0.47787272859E+02  0.20000008273E+02 0.  0.
        -12    1    1    2    0    0  0.31272861448E+02  0.16734032277E+02  0.25012065429E+02  0.43400727141E+02  0.00000000000E+00 0.  1.
         11    1    3    3    0    0 -0.15317457870E+02 -0.22885975524E+01 -0.13904026635E+02  0.20813076449E+02  0.51100000000E-03 0. -1.
        -11    1    3    3    0    0 -0.16028311012E+02 -0.16112458337E+02 -0.11128692837E+02  0.25305451430E+02  0.51100000000E-03 0.  1.
         12    1    3    3    0    0  0.72907434785E-01  0.16670236121E+01  0.20654042876E-01  0.16687449795E+01  0.00000000000E+00 0. -1.
</event>
<event>
 7    1  0.2497395E-009  0.4778729E+02  0.7816164E-02  0.1312668E+00
        -11   -1    0    0    0    0  0.00000000000E+00  0.00000000000E+00  0.45593999997E+02  0.45594000000E+02  0.51100000000E-03 0.  1.
         11   -1    0    0    0    0 -0.00000000000E+00 -0.00000000000E+00 -0.45593999997E+02  0.45594000000E+02  0.51100000000E-03 0. -1.
    9900012    2    1    2    0    0 -0.25290026816E+02 -0.15892666197E+02 -0.31487447278E+02  0.47787289968E+02  0.20000086278E+02 0.  0.
        -12    1    1    2    0    0  0.25290026816E+02  0.15892666197E+02  0.31487447278E+02  0.43400710032E+02  0.00000000000E+00 0.  1.
         11    1    3    3    0    0 -0.12677582345E+02 -0.14263297224E+02 -0.85250517923E+01  0.20900699752E+02  0.51100000000E-03 0.  1.
        -11    1    3    3    0    0 -0.49669580808E+01  0.16628165272E+01 -0.12229465887E+02  0.13303964354E+02  0.51100000000E-03 0. -1.
         12    1    3    3    0    0 -0.76454863909E+01 -0.32921855001E+01 -0.10732929598E+02  0.13582625861E+02  0.00000000000E+00 0. -1.
</event>
<event>
 7    1  0.2497395E-009  0.4778728E+02  0.7816164E-02  0.1312668E+00
        -11   -1    0    0    0    0  0.00000000000E+00  0.00000000000E+00  0.45593999997E+02  0.45594000000E+02  0.51100000000E-03 0.  1.
         11   -1    0    0    0    0 -0.00000000000E+00 -0.00000000000E+00 -0.45593999997E+02  0.45594000000E+02  0.51100000000E-03 0. -1.
    9900012    2    1    2    0    0  0.24415988266E+02  0.29626831025E+02 -0.20241864597E+02  0.47787277864E+02  0.20000031093E+02 0.  0.
        -12    1    1    2    0    0 -0.24415988266E+02 -0.29626831025E+02  0.20241864597E+02  0.43400722136E+02  0.00000000000E+00 0.  1.
         11    1    3    3    0    0  0.62134543642E+01 -0.14919073006E+01 -0.39350513614E+01  0.75044941207E+01  0.51100000000E-03 0. -1.
        -11    1    3    3    0    0 -0.77418534098E-01  0.43274389089E+01 -0.27639843374E+01  0.51353997720E+01  0.51100000000E-03 0.  1.
         12    1    3    3    0    0  0.18279952435E+02  0.26791299416E+02 -0.13542828899E+02  0.35147383971E+02  0.00000000000E+00 0. -1.
</event>
<event>
 7    1  0.2497395E-009  0.4778727E+02  0.7816164E-02  0.1312668E+00
        -11   -1    0    0    0    0  0.00000000000E+00  0.00000000000E+00  0.45593999997E+02  0.45594000000E+02  0.51100000000E-03 0. -1.
         11   -1    0    0    0    0 -0.00000000000E+00 -0.00000000000E+00 -0.45593999997E+02  0.45594000000E+02  0.51100000000E-03 0.  1.
    9900012    2    1    2    0    0 -0.35060105128E+02 -0.25436752957E+02  0.27172832348E+01  0.47787274191E+02  0.20000014348E+02 0.  0.
        -12    1    1    2    0    0  0.35060105128E+02  0.25436752957E+02 -0.27172832348E+01  0.43400725809E+02  0.00000000000E+00 0.  1.
         11    1    3    3    0    0 -0.49860597440E+01 -0.25535776198E+01  0.22845653605E+01  0.60498586412E+01  0.51100000000E-03 0. -1.
        -11    1    3    3    0    0 -0.21142642032E+02 -0.24809668692E+02  0.50147630199E+00  0.32600344346E+02  0.51100000000E-03 0.  1.
        -12    1    3    3    0    0 -0.89314033514E+01  0.19264933552E+01 -0.68758427728E-01  0.91370712044E+01  0.00000000000E+00 0.  1.
</event>
<event>
 7    1  0.2497395E-009  0.4778727E+02  0.7816164E-02  0.1312668E+00
        -11   -1    0    0    0    0  0.00000000000E+00  0.00000000000E+00  0.45593999997E+02  0.45594000000E+02  0.51100000000E-03 0. -1.
         11   -1    0    0    0    0 -0.00000000000E+00 -0.00000000000E+00 -0.45593999997E+02  0.45594000000E+02  0.51100000000E-03 0.  1.
    9900012    2    1    2    0    0  0.28408388487E+02  0.17514172428E+02  0.27746005042E+02  0.47787267656E+02  0.19999984550E+02 0.  0.
        -12    1    1    2    0    0 -0.28408388487E+02 -0.17514172428E+02 -0.27746005042E+02  0.43400732344E+02  0.00000000000E+00 0.  1.
         11    1    3    3    0    0  0.29920397047E+01  0.22133148934E+01  0.41687965391E+01  0.55883744736E+01  0.51100000000E-03 0. -1.
        -11    1    3    3    0    0  0.13119310840E+02  0.94768825952E+00  0.18370996702E+02  0.22594422985E+02  0.51100000000E-03 0.  1.
        -12    1    3    3    0    0  0.12297037943E+02  0.14353169275E+02  0.52062118004E+01  0.19604470197E+02  0.00000000000E+00 0.  1.
</event>
<event>
 7    1  0.2497395E-009  0.4778727E+02  0.7816164E-02  0.1312668E+00
        -11   -1    0    0    0    0  0.00000000000E+00  0.00000000000E+00  0.45593999997E+02  0.45594000000E+02  0.51100000000E-03 0.  1.
         11   -1    0    0    0    0 -0.00000000000E+00 -0.00000000000E+00 -0.45593999997E+02  0.45594000000E+02  0.51100000000E-03 0. -1.
    9900012    2    1    2    0    0 -0.12601937916E+02 -0.32877616532E+02 -0.25374736856E+02  0.47787265230E+02  0.19999973491E+02 0.  0.
        -12    1    1    2    0    0  0.12601937916E+02  0.32877616532E+02  0.25374736856E+02  0.43400734770E+02  0.00000000000E+00 0.  1.
         11    1    3    3    0    0 -0.11651200741E+02 -0.31154334846E+02 -0.18335601561E+02  0.37980749641E+02  0.51100000000E-03 0. -1.
        -11    1    3    3    0    0 -0.46848627776E-02  0.19102874646E+01 -0.53660026197E+01  0.56958936543E+01  0.51100000000E-03 0.  1.
        -12    1    3    3    0    0 -0.94605231190E+00 -0.36335691500E+01 -0.16731326753E+01  0.41106219352E+01  0.00000000000E+00 0.  1.
</event>
<event>
 7    1  0.2497395E-009  0.4778727E+02  0.7816164E-02  0.1312668E+00
        -11   -1    0    0    0    0  0.00000000000E+00  0.00000000000E+00  0.45593999997E+02  0.45594000000E+02  0.51100000000E-03 0.  1.
         11   -1    0    0    0    0 -0.00000000000E+00 -0.00000000000E+00 -0.45593999997E+02  0.45594000000E+02  0.51100000000E-03 0. -1.
    9900012    2    1    2    0    0 -0.14839637050E+02 -0.15712838012E+02 -0.37636618588E+02  0.47787272300E+02  0.20000005724E+02 0.  0.
        -12    1    1    2    0    0  0.14839637050E+02  0.15712838012E+02  0.37636618588E+02  0.43400727700E+02  0.00000000000E+00 0.  1.
         11    1    3    3    0    0 -0.75978775135E+01 -0.93834730200E+01 -0.68171241848E+01  0.13865442331E+02  0.51100000000E-03 0. -1.
        -11    1    3    3    0    0  0.14354945611E+01 -0.48203693112E+01 -0.14932722224E+02  0.15756992042E+02  0.51100000000E-03 0.  1.
         12    1    3    3    0    0 -0.86772540973E+01 -0.15089956810E+01 -0.15886772179E+02  0.18164837927E+02  0.00000000000E+00 0. -1.
</event>
<event>
 7    1  0.2497395E-009  0.4778727E+02  0.7816164E-02  0.1312668E+00
        -11   -1    0    0    0    0  0.00000000000E+00  0.00000000000E+00  0.45593999997E+02  0.45594000000E+02  0.51100000000E-03 0.  1.
         11   -1    0    0    0    0 -0.00000000000E+00 -0.00000000000E+00 -0.45593999997E+02  0.45594000000E+02  0.51100000000E-03 0. -1.
    9900012    2    1    2    0    0 -0.13806203413E+00  0.82444964390E+01 -0.42610243583E+02  0.47787266817E+02  0.19999980726E+02 0.  0.
        -12    1    1    2    0    0  0.13806203413E+00 -0.82444964390E+01  0.42610243583E+02  0.43400733183E+02  0.00000000000E+00 0.  1.
         11    1    3    3    0    0  0.19756301739E+01  0.76913566864E+01 -0.13856479587E+02  0.15970664015E+02  0.51100000000E-03 0. -1.
        -11    1    3    3    0    0 -0.75350491452E+00 -0.52381031206E+01 -0.22777807048E+02  0.23384481781E+02  0.51100000000E-03 0.  1.
        -12    1    3    3    0    0 -0.13601872935E+01  0.57912428732E+01 -0.59759569470E+01  0.84321210215E+01  0.00000000000E+00 0.  1.
</event>
<event>
 7    1  0.2497395E-009  0.4778727E+02  0.7816164E-02  0.1312668E+00
        -11   -1    0    0    0    0  0.00000000000E+00  0.00000000000E+00  0.45593999997E+02  0.45594000000E+02  0.51100000000E-03 0. -1.
         11   -1    0    0    0    0 -0.00000000000E+00 -0.00000000000E+00 -0.45593999997E+02  0.45594000000E+02  0.51100000000E-03 0.  1.
    9900012    2    1    2    0    0  0.43165113428E+02 -0.45122737950E+01  0.18843767887E+00  0.47787272578E+02  0.20000006991E+02 0.  0.
        -12    1    1    2    0    0 -0.43165113428E+02  0.45122737950E+01 -0.18843767887E+00  0.43400727422E+02  0.00000000000E+00 0.  1.
         11    1    3    3    0    0  0.34437754714E+02 -0.63402811899E+01  0.75000459456E+01  0.35810735887E+02  0.51100000000E-03 0. -1.
        -11    1    3    3    0    0  0.26259864626E+01  0.21190975886E+01 -0.27462018915E+01  0.43506326645E+01  0.51100000000E-03 0.  1.
         12    1    3    3    0    0  0.61013722511E+01 -0.29109019373E+00 -0.45654063753E+01  0.76259040263E+01  0.00000000000E+00 0. -1.
</event>
<event>
 7    1  0.2497395E-009  0.4778727E+02  0.7816164E-02  0.1312668E+00
        -11   -1    0    0    0    0  0.00000000000E+00  0.00000000000E+00  0.45593999997E+02  0.45594000000E+02  0.51100000000E-03 0. -1.
         11   -1    0    0    0    0 -0.00000000000E+00 -0.00000000000E+00 -0.45593999997E+02  0.45594000000E+02  0.51100000000E-03 0.  1.
    9900012    2    1    2    0    0  0.12253642040E+02  0.35119583624E+02  0.22362607978E+02  0.47787272670E+02  0.20000007412E+02 0.  0.
        -12    1    1    2    0    0 -0.12253642040E+02 -0.35119583624E+02 -0.22362607978E+02  0.43400727330E+02  0.00000000000E+00 0.  1.
         11    1    3    3    0    0 -0.37128548706E+01  0.47670249429E+01  0.64993329716E+01  0.88741843249E+01  0.51100000000E-03 0. -1.
        -11    1    3    3    0    0  0.50519240112E+01  0.50578060362E+01  0.69183506500E+01  0.99482116027E+01  0.51100000000E-03 0.  1.
         12    1    3    3    0    0  0.10914572900E+02  0.25294752645E+02  0.89449243567E+01  0.28964876742E+02  0.00000000000E+00 0. -1.
</event>
<event>
 7    1  0.2497395E-009  0.4778727E+02  0.7816164E-02  0.1312668E+00
        -11   -1    0    0    0    0  0.00000000000E+00  0.00000000000E+00  0.45593999997E+02  0.45594000000E+02  0.51100000000E-03 0.  1.
         11   -1    0    0    0    0 -0.00000000000E+00 -0.00000000000E+00 -0.45593999997E+02  0.45594000000E+02  0.51100000000E-03 0. -1.
    9900012    2    1    2    0    0 -0.91560286311E+01 -0.41210170023E+02 -0.10075333243E+02  0.47787270587E+02  0.19999997913E+02 0.  0.
        -12    1    1    2    0    0  0.91560286311E+01  0.41210170023E+02  0.10075333243E+02  0.43400729413E+02  0.00000000000E+00 0.  1.
         11    1    3    3    0    0 -0.12322998882E+02 -0.21709433489E+02 -0.12118744640E+02  0.27749230184E+02  0.51100000000E-03 0. -1.
        -11    1    3    3    0    0  0.26482138603E+01 -0.19039800747E+02  0.18201845125E+01  0.19309068363E+02  0.51100000000E-03 0.  1.
         12    1    3    3    0    0  0.51875639099E+00 -0.46093578735E+00  0.22322688421E+00  0.72897203999E+00  0.00000000000E+00 0. -1.
</event>
<event>
 7    1  0.2497395E-009  0.4778727E+02  0.7816164E-02  0.1312668E+00
        -11   -1    0    0    0    0  0.00000000000E+00  0.00000000000E+00  0.45593999997E+02  0.45594000000E+02  0.51100000000E-03 0.  1.
         11   -1    0    0    0    0 -0.00000000000E+00 -0.00000000000E+00 -0.45593999997E+02  0.45594000000E+02  0.51100000000E-03 0. -1.
    9900012    2    1    2    0    0  0.43001849690E+02 -0.57116125172E+01  0.13571100493E+01  0.47787270260E+02  0.19999996423E+02 0.  0.
        -12    1    1    2    0    0 -0.43001849690E+02  0.57116125172E+01 -0.13571100493E+01  0.43400729740E+02  0.00000000000E+00 0.  1.
         11    1    3    3    0    0  0.86045785959E+00  0.38556724459E+01  0.72152616404E+00  0.40158682753E+01  0.51100000000E-03 0. -1.
        -11    1    3    3    0    0  0.24834721165E+02 -0.84677318200E+01  0.23587209419E+01  0.26344438165E+02  0.51100000000E-03 0.  1.
         12    1    3    3    0    0  0.17306670666E+02 -0.10995531431E+01 -0.17231370566E+01  0.17426963819E+02  0.00000000000E+00 0. -1.
</event>
<event>
 7    1  0.2497395E-009  0.4778727E+02  0.7816164E-02  0.1312668E+00
        -11   -1    0    0    0    0  0.00000000000E+00  0.00000000000E+00  0.45593999997E+02  0.45594000000E+02  0.51100000000E-03 0.  1.
         11   -1    0    0    0    0 -0.00000000000E+00 -0.00000000000E+00 -0.45593999997E+02  0.45594000000E+02  0.51100000000E-03 0. -1.
    9900012    2    1    2    0    0  0.30891448618E+02 -0.21422616061E+02 -0.21689011082E+02  0.47787270993E+02  0.19999999765E+02 0.  0.
        -12    1    1    2    0    0 -0.30891448618E+02  0.21422616061E+02  0.21689011082E+02  0.43400729007E+02  0.00000000000E+00 0.  1.
         11    1    3    3    0    0 -0.58690927604E+00 -0.87304221538E-01  0.76010251557E-01  0.59821596841E+00  0.51100000000E-03 0. -1.
        -11    1    3    3    0    0  0.15716269272E+02 -0.11521631766E+01 -0.11896426144E+02  0.19744709546E+02  0.51100000000E-03 0.  1.
        -12    1    3    3    0    0  0.15762088623E+02 -0.20183148663E+02 -0.98685951892E+01  0.27444345478E+02  0.00000000000E+00 0.  1.
</event>
<event>
 7    1  0.2497395E-009  0.4778727E+02  0.7816164E-02  0.1312668E+00
        -11   -1    0    0    0    0  0.00000000000E+00  0.00000000000E+00  0.45593999997E+02  0.45594000000E+02  0.51100000000E-03 0.  1.
         11   -1    0    0    0    0 -0.00000000000E+00 -0.00000000000E+00 -0.45593999997E+02  0.45594000000E+02  0.51100000000E-03 0. -1.
    9900012    2    1    2    0    0  0.32839545248E+02 -0.26028878705E+02  0.11299780204E+02  0.47787270843E+02  0.19999999081E+02 0.  0.
        -12    1    1    2    0    0 -0.32839545248E+02  0.26028878705E+02 -0.11299780204E+02  0.43400729157E+02  0.00000000000E+00 0.  1.
         11    1    3    3    0    0  0.65998818468E+01 -0.53912597188E+01 -0.56498755680E+00  0.85406869131E+01  0.51100000000E-03 0. -1.
        -11    1    3    3    0    0  0.27571318351E+02 -0.15995293065E+02  0.75197991493E+01  0.32750181302E+02  0.51100000000E-03 0.  1.
        -12    1    3    3    0    0 -0.13316549496E+01 -0.46423259211E+01  0.43449686116E+01  0.64964026275E+01  0.00000000000E+00 0.  1.
</event>
<event>
 7    1  0.2497395E-009  0.4778727E+02  0.7816164E-02  0.1312668E+00
        -11   -1    0    0    0    0  0.00000000000E+00  0.00000000000E+00  0.45593999997E+02  0.45594000000E+02  0.51100000000E-03 0. -1.
         11   -1    0    0    0    0 -0.00000000000E+00 -0.00000000000E+00 -0.45593999997E+02  0.45594000000E+02  0.51100000000E-03 0.  1.
    9900012    2    1    2    0    0  0.26248623721E+01  0.29158763811E+02  0.32039034081E+02  0.47787272883E+02  0.20000008382E+02 0.  0.
        -12    1    1    2    0    0 -0.26248623721E+01 -0.29158763811E+02 -0.32039034081E+02  0.43400727117E+02  0.00000000000E+00 0.  1.
         11    1    3    3    0    0  0.50314980622E+01  0.20578797575E+02  0.10500698259E+02  0.23644609249E+02  0.51100000000E-03 0. -1.
        -11    1    3    3    0    0 -0.28341404869E+01  0.46049677489E+01  0.59070044002E+01  0.80081696731E+01  0.51100000000E-03 0.  1.
         12    1    3    3    0    0  0.42750479672E+00  0.39749984874E+01  0.15631331422E+02  0.16134493960E+02  0.00000000000E+00 0. -1.
</event>
<event>
 7    1  0.2497395E-009  0.4778727E+02  0.7816164E-02  0.1312668E+00
        -11   -1    0    0    0    0  0.00000000000E+00  0.00000000000E+00  0.45593999997E+02  0.45594000000E+02  0.51100000000E-03 0.  1.
         11   -1    0    0    0    0 -0.00000000000E+00 -0.00000000000E+00 -0.45593999997E+02  0.45594000000E+02  0.51100000000E-03 0. -1.
    9900012    2    1    2    0    0  0.21548442766E+02  0.15420008990E+02 -0.34373120493E+02  0.47787268724E+02  0.19999989418E+02 0.  0.
        -12    1    1    2    0    0 -0.21548442766E+02 -0.15420008990E+02  0.34373120493E+02  0.43400731276E+02  0.00000000000E+00 0.  1.
         11    1    3    3    0    0  0.12267694760E+02  0.17807844202E+02 -0.26283777133E+02  0.34036048397E+02  0.51100000000E-03 0. -1.
        -11    1    3    3    0    0  0.86897030723E+00 -0.24895959974E+01 -0.12949409066E+01  0.29376980508E+01  0.51100000000E-03 0.  1.
         12    1    3    3    0    0  0.84117776987E+01  0.10176078574E+00 -0.67944024539E+01  0.10813522276E+02  0.00000000000E+00 0. -1.
</event>
<event>
 7    1  0.2497395E-009  0.4778727E+02  0.7816164E-02  0.1312668E+00
        -11   -1    0    0    0    0  0.00000000000E+00  0.00000000000E+00  0.45593999997E+02  0.45594000000E+02  0.51100000000E-03 0.  1.
         11   -1    0    0    0    0 -0.00000000000E+00 -0.00000000000E+00 -0.45593999997E+02  0.45594000000E+02  0.51100000000E-03 0. -1.
    9900012    2    1    2    0    0 -0.12197091849E+02  0.14109135878E+02 -0.39189116533E+02  0.47787267063E+02  0.19999981847E+02 0.  0.
        -12    1    1    2    0    0  0.12197091849E+02 -0.14109135878E+02  0.39189116533E+02  0.43400732937E+02  0.00000000000E+00 0.  1.
         11    1    3    3    0    0 -0.91566311155E+01  0.84780207371E+01 -0.16561116975E+02  0.20736232173E+02  0.51100000000E-03 0. -1.
        -11    1    3    3    0    0  0.31807825926E+01 -0.23292663238E+01 -0.29258407029E+01  0.49095217270E+01  0.51100000000E-03 0.  1.
        -12    1    3    3    0    0 -0.62212433262E+01  0.79603814652E+01 -0.19702158855E+02  0.22141513163E+02  0.00000000000E+00 0.  1.
</event>
<event>
 7    1  0.2497395E-009  0.4778727E+02  0.7816164E-02  0.1312668E+00
        -11   -1    0    0    0    0  0.00000000000E+00  0.00000000000E+00  0.45593999997E+02  0.45594000000E+02  0.51100000000E-03 0.  1.
         11   -1    0    0    0    0 -0.00000000000E+00 -0.00000000000E+00 -0.45593999997E+02  0.45594000000E+02  0.51100000000E-03 0. -1.
    9900012    2    1    2    0    0  0.88553462436E+01  0.27072816583E+02 -0.32745515888E+02  0.47787269988E+02  0.19999995182E+02 0.  0.
        -12    1    1    2    0    0 -0.88553462436E+01 -0.27072816583E+02  0.32745515888E+02  0.43400730012E+02  0.00000000000E+00 0.  1.
         11    1    3    3    0    0  0.46860583409E+01  0.10698178165E+02 -0.23684202112E+02  0.26407415413E+02  0.51100000000E-03 0. -1.
        -11    1    3    3    0    0  0.26965780643E+01  0.36942801866E+01  0.14982272500E+01  0.48128914914E+01  0.51100000000E-03 0.  1.
        -12    1    3    3    0    0  0.14727098384E+01  0.12680358231E+02 -0.10559541025E+02  0.16566963084E+02  0.00000000000E+00 0.  1.
</event>
<event>
 7    1  0.2497395E-009  0.4778727E+02  0.7816164E-02  0.1312668E+00
        -11   -1    0    0    0    0  0.00000000000E+00  0.00000000000E+00  0.45593999997E+02  0.45594000000E+02  0.51100000000E-03 0. -1.
         11   -1    0    0    0    0 -0.00000000000E+00 -0.00000000000E+00 -0.45593999997E+02  0.45594000000E+02  0.51100000000E-03 0.  1.
    9900012    2    1    2    0    0 -0.29619241794E+02  0.23169698720E+02  0.21667689973E+02  0.47787271757E+02  0.20000003251E+02 0.  0.
        -12    1    1    2    0    0  0.29619241794E+02 -0.23169698720E+02 -0.21667689973E+02  0.43400728243E+02  0.00000000000E+00 0.  1.
         11    1    3    3    0    0 -0.12428778281E+02  0.17560064960E+02  0.15171673877E+02  0.26325084985E+02  0.51100000000E-03 0. -1.
        -11    1    3    3    0    0 -0.77376995572E+01 -0.19253057378E+00 -0.13755840943E+01  0.78613799248E+01  0.51100000000E-03 0.  1.
         12    1    3    3    0    0 -0.94527639556E+01  0.58021643337E+01  0.78716001903E+01  0.13600806848E+02  0.00000000000E+00 0. -1.
</event>
<event>
 7    1  0.2497395E-009  0.4778727E+02  0.7816164E-02  0.1312668E+00
        -11   -1    0    0    0    0  0.00000000000E+00  0.00000000000E+00  0.45593999997E+02  0.45594000000E+02  0.51100000000E-03 0.  1.
         11   -1    0    0    0    0 -0.00000000000E+00 -0.00000000000E+00 -0.45593999997E+02  0.45594000000E+02  0.51100000000E-03 0. -1.
    9900012    2    1    2    0    0 -0.39418564055E+02  0.97109300930E+01 -0.15345938335E+02  0.47787272139E+02  0.20000004991E+02 0.  0.
        -12    1    1    2    0    0  0.39418564055E+02 -0.97109300930E+01  0.15345938335E+02  0.43400727861E+02  0.00000000000E+00 0.  1.
         11    1    3    3    0    0 -0.18533047824E+02 -0.35134800825E+00 -0.31936799242E+01  0.18809489594E+02  0.51100000000E-03 0. -1.
        -11    1    3    3    0    0 -0.85292180054E+01  0.10598700216E+02 -0.40584647949E+01  0.14196870880E+02  0.51100000000E-03 0.  1.
        -12    1    3    3    0    0 -0.12356298226E+02 -0.53642211441E+00 -0.80937936162E+01  0.14780911665E+02  0.00000000000E+00 0.  1.
</event>
<event>
 7    1  0.2497395E-009  0.4778729E+02  0.7816164E-02  0.1312668E+00
        -11   -1    0    0    0    0  0.00000000000E+00  0.00000000000E+00  0.45593999997E+02  0.45594000000E+02  0.51100000000E-03 0.  1.
         11   -1    0    0    0    0 -0.00000000000E+00 -0.00000000000E+00 -0.45593999997E+02  0.45594000000E+02  0.51100000000E-03 0. -1.
    9900012    2    1    2    0    0  0.37020346303E+02  0.18541731677E+02 -0.13012300763E+02  0.47787287735E+02  0.20000076097E+02 0.  0.
        -12    1    1    2    0    0 -0.37020346303E+02 -0.18541731677E+02  0.13012300763E+02  0.43400712265E+02  0.00000000000E+00 0.  1.
         11    1    3    3    0    0  0.15475706810E+02  0.18228345148E+02 -0.63835807416E+01  0.24749144863E+02  0.51100000000E-03 0. -1.
        -11    1    3    3    0    0  0.16417132185E+02 -0.94151428300E+00 -0.32257415768E+01  0.16757508386E+02  0.51100000000E-03 0.  1.
         12    1    3    3    0    0  0.51275073092E+01  0.12549008121E+01 -0.34029784444E+01  0.62806344861E+01  0.00000000000E+00 0. -1.
</event>
<event>
 7    1  0.2497395E-009  0.4778727E+02  0.7816164E-02  0.1312668E+00
        -11   -1    0    0    0    0  0.00000000000E+00  0.00000000000E+00  0.45593999997E+02  0.45594000000E+02  0.51100000000E-03 0.  1.
         11   -1    0    0    0    0 -0.00000000000E+00 -0.00000000000E+00 -0.45593999997E+02  0.45594000000E+02  0.51100000000E-03 0. -1.
    9900012    2    1    2    0    0  0.84541821389E+01 -0.36099655903E+02 -0.22560244493E+02  0.47787274389E+02  0.20000015249E+02 0.  0.
        -12    1    1    2    0    0 -0.84541821389E+01  0.36099655903E+02  0.22560244493E+02  0.43400725611E+02  0.00000000000E+00 0.  1.
         11    1    3    3    0    0 -0.37815421386E+01 -0.18166867997E+02 -0.93538512043E+01  0.20780512178E+02  0.51100000000E-03 0. -1.
        -11    1    3    3    0    0  0.78353503735E+01 -0.13120675094E+02 -0.13623088424E+02  0.20472746979E+02  0.51100000000E-03 0.  1.
         12    1    3    3    0    0  0.44003739040E+01 -0.48121128122E+01  0.41669513515E+00  0.65340152316E+01  0.00000000000E+00 0. -1.
</event>
<event>
 7    1  0.2497395E-009  0.4778727E+02  0.7816164E-02  0.1312668E+00
        -11   -1    0    0    0    0  0.00000000000E+00  0.00000000000E+00  0.45593999997E+02  0.45594000000E+02  0.51100000000E-03 0. -1.
         11   -1    0    0    0    0 -0.00000000000E+00 -0.00000000000E+00 -0.45593999997E+02  0.45594000000E+02  0.51100000000E-03 0.  1.
    9900012    2    1    2    0    0 -0.18109688480E+02 -0.30915417967E+02  0.24492850045E+02  0.47787267423E+02  0.19999983489E+02 0.  0.
        -12    1    1    2    0    0  0.18109688480E+02  0.30915417967E+02 -0.24492850045E+02  0.43400732577E+02  0.00000000000E+00 0.  1.
         11    1    3    3    0    0 -0.16946480872E+02 -0.13907864427E+02  0.95922968169E+01  0.23929564671E+02  0.51100000000E-03 0. -1.
        -11    1    3    3    0    0 -0.15669192913E+01 -0.71673119507E+01  0.19565544757E+01  0.75930035125E+01  0.51100000000E-03 0.  1.
         12    1    3    3    0    0  0.40371168377E+00 -0.98402415892E+01  0.12943998752E+02  0.16264699239E+02  0.00000000000E+00 0. -1.
</event>
<event>
 7    1  0.2497395E-009  0.4778728E+02  0.7816164E-02  0.1312668E+00
        -11   -1    0    0    0    0  0.00000000000E+00  0.00000000000E+00  0.45593999997E+02  0.45594000000E+02  0.51100000000E-03 0.  1.
         11   -1    0    0    0    0 -0.00000000000E+00 -0.00000000000E+00 -0.45593999997E+02  0.45594000000E+02  0.51100000000E-03 0. -1.
    9900012    2    1    2    0    0 -0.37888268287E+02  0.49670219883E+01 -0.20577413155E+02  0.47787284415E+02  0.20000060960E+02 0.  0.
        -12    1    1    2    0    0  0.37888268287E+02 -0.49670219883E+01  0.20577413155E+02  0.43400715585E+02  0.00000000000E+00 0.  1.
         11    1    3    3    0    0 -0.45612449864E+01 -0.32161596043E+01 -0.39423337128E+01  0.68330544993E+01  0.51100000000E-03 0.  1.
        -11    1    3    3    0    0 -0.27400791589E+02  0.12473756517E+02 -0.13279798590E+02  0.32905182452E+02  0.51100000000E-03 0. -1.
         12    1    3    3    0    0 -0.59262317108E+01 -0.42905749240E+01 -0.33552808516E+01  0.80490474629E+01  0.00000000000E+00 0. -1.
</event>
<event>
 7    1  0.2497395E-009  0.4778727E+02  0.7816164E-02  0.1312668E+00
        -11   -1    0    0    0    0  0.00000000000E+00  0.00000000000E+00  0.45593999997E+02  0.45594000000E+02  0.51100000000E-03 0.  1.
         11   -1    0    0    0    0 -0.00000000000E+00 -0.00000000000E+00 -0.45593999997E+02  0.45594000000E+02  0.51100000000E-03 0. -1.
    9900012    2    1    2    0    0  0.34217175066E+02 -0.26009943992E+02 -0.60242087760E+01  0.47787270198E+02  0.19999996142E+02 0.  0.
        -12    1    1    2    0    0 -0.34217175066E+02  0.26009943992E+02  0.60242087760E+01  0.43400729802E+02  0.00000000000E+00 0.  1.
         11    1    3    3    0    0  0.13379495244E+02 -0.20538469705E+02 -0.36793960352E+01  0.24786641286E+02  0.51100000000E-03 0. -1.
        -11    1    3    3    0    0  0.18341974682E+02 -0.28515352850E+01  0.22309823777E+00  0.18563648936E+02  0.51100000000E-03 0.  1.
         12    1    3    3    0    0  0.24957051397E+01 -0.26199390022E+01 -0.25679109785E+01  0.44369799766E+01  0.00000000000E+00 0. -1.
</event>
<event>
 7    1  0.2497395E-009  0.4778727E+02  0.7816164E-02  0.1312668E+00
        -11   -1    0    0    0    0  0.00000000000E+00  0.00000000000E+00  0.45593999997E+02  0.45594000000E+02  0.51100000000E-03 0. -1.
         11   -1    0    0    0    0 -0.00000000000E+00 -0.00000000000E+00 -0.45593999997E+02  0.45594000000E+02  0.51100000000E-03 0.  1.
    9900012    2    1    2    0    0 -0.49883690994E+01  0.39565040690E+02  0.17127370659E+02  0.47787273085E+02  0.20000009302E+02 0.  0.
        -12    1    1    2    0    0  0.49883690994E+01 -0.39565040690E+02 -0.17127370659E+02  0.43400726915E+02  0.00000000000E+00 0.  1.
         11    1    3    3    0    0  0.21202316346E+01  0.74949997679E+01  0.23861018749E+01  0.81464032630E+01  0.51100000000E-03 0. -1.
        -11    1    3    3    0    0  0.48241146823E+01  0.14673975616E+02  0.39404986452E+01  0.15941303983E+02  0.51100000000E-03 0.  1.
        -12    1    3    3    0    0 -0.11932715416E+02  0.17396065306E+02  0.10800770139E+02  0.23699565838E+02  0.00000000000E+00 0.  1.
</event>
<event>
 7    1  0.2497395E-009  0.4778727E+02  0.7816164E-02  0.1312668E+00
        -11   -1    0    0    0    0  0.00000000000E+00  0.00000000000E+00  0.45593999997E+02  0.45594000000E+02  0.51100000000E-03 0. -1.
         11   -1    0    0    0    0 -0.00000000000E+00 -0.00000000000E+00 -0.45593999997E+02  0.45594000000E+02  0.51100000000E-03 0.  1.
    9900012    2    1    2    0    0 -0.32359771334E+02 -0.26858906833E+02  0.10726946564E+02  0.47787273513E+02  0.20000011254E+02 0.  0.
        -12    1    1    2    0    0  0.32359771334E+02  0.26858906833E+02 -0.10726946564E+02  0.43400726487E+02  0.00000000000E+00 0.  1.
         11    1    3    3    0    0 -0.49056875073E+01 -0.62059673700E+01  0.35956782361E+01  0.86895743944E+01  0.51100000000E-03 0. -1.
        -11    1    3    3    0    0 -0.24848162651E+02 -0.15870244146E+02  0.11961538491E+02  0.31817828960E+02  0.51100000000E-03 0.  1.
        -12    1    3    3    0    0 -0.26059211754E+01 -0.47826953171E+01 -0.48302701637E+01  0.72798701584E+01  0.00000000000E+00 0.  1.
</event>
<event>
 7    1  0.2497395E-009  0.4778727E+02  0.7816164E-02  0.1312668E+00
        -11   -1    0    0    0    0  0.00000000000E+00  0.00000000000E+00  0.45593999997E+02  0.45594000000E+02  0.51100000000E-03 0.  1.
         11   -1    0    0    0    0 -0.00000000000E+00 -0.00000000000E+00 -0.45593999997E+02  0.45594000000E+02  0.51100000000E-03 0. -1.
    9900012    2    1    2    0    0 -0.16932872195E+02 -0.28059143168E+02 -0.28453225374E+02  0.47787266017E+02  0.19999977076E+02 0.  0.
        -12    1    1    2    0    0  0.16932872195E+02  0.28059143168E+02  0.28453225374E+02  0.43400733983E+02  0.00000000000E+00 0.  1.
         11    1    3    3    0    0 -0.10319099905E+02 -0.11209633072E+02 -0.40591642734E+01  0.15767577852E+02  0.51100000000E-03 0. -1.
        -11    1    3    3    0    0  0.22565587006E+01 -0.67018858113E+01 -0.10528382986E+02  0.12682830093E+02  0.51100000000E-03 0.  1.
         12    1    3    3    0    0 -0.88703309906E+01 -0.10147624285E+02 -0.13865678115E+02  0.19336858072E+02  0.00000000000E+00 0. -1.
</event>
<event>
 7    1  0.2497395E-009  0.4778726E+02  0.7816164E-02  0.1312668E+00
        -11   -1    0    0    0    0  0.00000000000E+00  0.00000000000E+00  0.45593999997E+02  0.45594000000E+02  0.51100000000E-03 0. -1.
         11   -1    0    0    0    0 -0.00000000000E+00 -0.00000000000E+00 -0.45593999997E+02  0.45594000000E+02  0.51100000000E-03 0.  1.
    9900012    2    1    2    0    0 -0.14894934743E+02 -0.14738735452E+02  0.38007035987E+02  0.47787260510E+02  0.19999951969E+02 0.  0.
        -12    1    1    2    0    0  0.14894934743E+02  0.14738735452E+02 -0.38007035987E+02  0.43400739490E+02  0.00000000000E+00 0.  1.
         11    1    3    3    0    0  0.36715728488E+01 -0.61284541785E+01  0.86526490171E+01  0.11220816952E+02  0.51100000000E-03 0. -1.
        -11    1    3    3    0    0 -0.37914204554E+01 -0.51065845633E+01  0.62373316420E+01  0.89082198696E+01  0.51100000000E-03 0.  1.
         12    1    3    3    0    0 -0.14775087137E+02 -0.35036967101E+01  0.23117055328E+02  0.27658223688E+02  0.00000000000E+00 0. -1.
</event>
<event>
 7    1  0.2497395E-009  0.4778727E+02  0.7816164E-02  0.1312668E+00
        -11   -1    0    0    0    0  0.00000000000E+00  0.00000000000E+00  0.45593999997E+02  0.45594000000E+02  0.51100000000E-03 0. -1.
         11   -1    0    0    0    0 -0.00000000000E+00 -0.00000000000E+00 -0.45593999997E+02  0.45594000000E+02  0.51100000000E-03 0.  1.
    9900012    2    1    2    0    0  0.79468601361E+00 -0.80932834962E+01  0.42632037987E+02  0.47787269285E+02  0.19999991979E+02 0.  0.
        -12    1    1    2    0    0 -0.79468601361E+00  0.80932834962E+01 -0.42632037987E+02  0.43400730715E+02  0.00000000000E+00 0.  1.
         11    1    3    3    0    0 -0.19882348266E+01 -0.24133827832E+01  0.27138731635E+02  0.27318276834E+02  0.51100000000E-03 0. -1.
        -11    1    3    3    0    0  0.23384278932E+01  0.22783489658E+01  0.25846115860E+00  0.32750452598E+01  0.51100000000E-03 0.  1.
         12    1    3    3    0    0  0.44449294704E+00 -0.79582496789E+01  0.15234845194E+02  0.17193947191E+02  0.00000000000E+00 0. -1.
</event>
<event>
 7    1  0.2497395E-009  0.4778727E+02  0.7816164E-02  0.1312668E+00
        -11   -1    0    0    0    0  0.00000000000E+00  0.00000000000E+00  0.45593999997E+02  0.45594000000E+02  0.51100000000E-03 0. -1.
         11   -1    0    0    0    0 -0.00000000000E+00 -0.00000000000E+00 -0.45593999997E+02  0.45594000000E+02  0.51100000000E-03 0.  1.
    9900012    2    1    2    0    0  0.41197302059E+02  0.13445678793E+02 -0.23704963976E+01  0.47787271569E+02  0.20000002394E+02 0.  0.
        -12    1    1    2    0    0 -0.41197302059E+02 -0.13445678793E+02  0.23704963976E+01  0.43400728431E+02  0.00000000000E+00 0.  1.
         11    1    3    3    0    0  0.29426084820E+02  0.10517875855E+02  0.28177024771E+01  0.31376099627E+02  0.51100000000E-03 0. -1.
        -11    1    3    3    0    0  0.54102087861E+00 -0.22578056300E+00 -0.46999585488E+01  0.47363795324E+01  0.51100000000E-03 0.  1.
        -12    1    3    3    0    0  0.11230196361E+02  0.31535835012E+01 -0.48824032589E+00  0.11674792410E+02  0.00000000000E+00 0.  1.
</event>
<event>
 7    1  0.2497395E-009  0.4778727E+02  0.7816164E-02  0.1312668E+00
        -11   -1    0    0    0    0  0.00000000000E+00  0.00000000000E+00  0.45593999997E+02  0.45594000000E+02  0.51100000000E-03 0.  1.
         11   -1    0    0    0    0 -0.00000000000E+00 -0.00000000000E+00 -0.45593999997E+02  0.45594000000E+02  0.51100000000E-03 0. -1.
    9900012    2    1    2    0    0 -0.10338921560E+01  0.74246600824E+01 -0.42748433798E+02  0.47787273019E+02  0.20000009001E+02 0.  0.
        -12    1    1    2    0    0  0.10338921560E+01 -0.74246600824E+01  0.42748433798E+02  0.43400726981E+02  0.00000000000E+00 0.  1.
         11    1    3    3    0    0 -0.98905794000E+01  0.67519918024E+01 -0.26432601218E+02  0.29018879399E+02  0.51100000000E-03 0. -1.
        -11    1    3    3    0    0  0.55056795613E+01  0.66099491061E+00 -0.74260328259E+01  0.92679763431E+01  0.51100000000E-03 0.  1.
         12    1    3    3    0    0  0.33510076826E+01  0.11673369430E-01 -0.88897997539E+01  0.95004172762E+01  0.00000000000E+00 0. -1.
</event>
<event>
 7    1  0.2497395E-009  0.4778727E+02  0.7816164E-02  0.1312668E+00
        -11   -1    0    0    0    0  0.00000000000E+00  0.00000000000E+00  0.45593999997E+02  0.45594000000E+02  0.51100000000E-03 0.  1.
         11   -1    0    0    0    0 -0.00000000000E+00 -0.00000000000E+00 -0.45593999997E+02  0.45594000000E+02  0.51100000000E-03 0. -1.
    9900012    2    1    2    0    0 -0.15913453780E+02 -0.39110823852E+02 -0.10036370802E+02  0.47787270830E+02  0.19999999022E+02 0.  0.
        -12    1    1    2    0    0  0.15913453780E+02  0.39110823852E+02  0.10036370802E+02  0.43400729170E+02  0.00000000000E+00 0.  1.
         11    1    3    3    0    0 -0.64903369086E+01 -0.21474834837E+02 -0.29140069897E+01  0.22622653281E+02  0.51100000000E-03 0. -1.
        -11    1    3    3    0    0 -0.56504567022E+01 -0.45657354472E+01  0.33470992068E+01  0.79985420221E+01  0.51100000000E-03 0.  1.
        -12    1    3    3    0    0 -0.37726601687E+01 -0.13070253568E+02 -0.10469463020E+02  0.17166075527E+02  0.00000000000E+00 0.  1.
</event>
<event>
 7    1  0.2497395E-009  0.4778727E+02  0.7816164E-02  0.1312668E+00
        -11   -1    0    0    0    0  0.00000000000E+00  0.00000000000E+00  0.45593999997E+02  0.45594000000E+02  0.51100000000E-03 0. -1.
         11   -1    0    0    0    0 -0.00000000000E+00 -0.00000000000E+00 -0.45593999997E+02  0.45594000000E+02  0.51100000000E-03 0.  1.
    9900012    2    1    2    0    0  0.62117725265E+01 -0.17306659300E+02  0.39313059422E+02  0.47787271721E+02  0.20000003085E+02 0.  0.
        -12    1    1    2    0    0 -0.62117725265E+01  0.17306659300E+02 -0.39313059422E+02  0.43400728279E+02  0.00000000000E+00 0.  1.
         11    1    3    3    0    0 -0.30561813862E+01 -0.58088640465E+01  0.14155823321E+02  0.15603540634E+02  0.51100000000E-03 0. -1.
        -11    1    3    3    0    0  0.87482900471E+01 -0.71236200143E+01  0.65142836402E+01  0.13027449192E+02  0.51100000000E-03 0.  1.
        -12    1    3    3    0    0  0.51966386561E+00 -0.43741752390E+01  0.18642952461E+02  0.19156281894E+02  0.00000000000E+00 0.  1.
</event>
<event>
 7    1  0.2497395E-009  0.4778727E+02  0.7816164E-02  0.1312668E+00
        -11   -1    0    0    0    0  0.00000000000E+00  0.00000000000E+00  0.45593999997E+02  0.45594000000E+02  0.51100000000E-03 0.  1.
         11   -1    0    0    0    0 -0.00000000000E+00 -0.00000000000E+00 -0.45593999997E+02  0.45594000000E+02  0.51100000000E-03 0. -1.
    9900012    2    1    2    0    0 -0.22516529009E+01  0.26692010686E+02 -0.34148061026E+02  0.47787269049E+02  0.19999990901E+02 0.  0.
        -12    1    1    2    0    0  0.22516529009E+01 -0.26692010686E+02  0.34148061026E+02  0.43400730951E+02  0.00000000000E+00 0.  1.
         11    1    3    3    0    0  0.63423964150E+00  0.55655264955E+01 -0.45728488501E+01  0.72310643727E+01  0.51100000000E-03 0. -1.
        -11    1    3    3    0    0 -0.49560864463E+01  0.22986160672E+02 -0.29561792970E+02  0.37773350118E+02  0.51100000000E-03 0.  1.
        -12    1    3    3    0    0  0.20701939039E+01 -0.18596764810E+01 -0.13419205906E-01  0.27828545577E+01  0.00000000000E+00 0.  1.
</event>
<event>
 7    1  0.2497395E-009  0.4778727E+02  0.7816164E-02  0.1312668E+00
        -11   -1    0    0    0    0  0.00000000000E+00  0.00000000000E+00  0.45593999997E+02  0.45594000000E+02  0.51100000000E-03 0.  1.
         11   -1    0    0    0    0 -0.00000000000E+00 -0.00000000000E+00 -0.45593999997E+02  0.45594000000E+02  0.51100000000E-03 0. -1.
    9900012    2    1    2    0    0  0.65210982716E+01 -0.15636243417E+02 -0.39957559005E+02  0.47787270139E+02  0.19999995871E+02 0.  0.
        -12    1    1    2    0    0 -0.65210982716E+01  0.15636243417E+02  0.39957559005E+02  0.43400729861E+02  0.00000000000E+00 0.  1.
         11    1    3    3    0    0  0.11079951782E+01 -0.10541800801E+02 -0.36514743136E+02  0.38022147283E+02  0.51100000000E-03 0. -1.
        -11    1    3    3    0    0  0.56509861035E+01 -0.30923769655E+01 -0.41102462041E+01  0.76413718243E+01  0.51100000000E-03 0.  1.
         12    1    3    3    0    0 -0.23788301008E+00 -0.20020656499E+01  0.66743033511E+00  0.21237510318E+01  0.00000000000E+00 0. -1.
</event>
<event>
 7    1  0.2497395E-009  0.4778727E+02  0.7816164E-02  0.1312668E+00
        -11   -1    0    0    0    0  0.00000000000E+00  0.00000000000E+00  0.45593999997E+02  0.45594000000E+02  0.51100000000E-03 0. -1.
         11   -1    0    0    0    0 -0.00000000000E+00 -0.00000000000E+00 -0.45593999997E+02  0.45594000000E+02  0.51100000000E-03 0.  1.
    9900012    2    1    2    0    0  0.37008988140E+02  0.83770496533E+01  0.21066158693E+02  0.47787271825E+02  0.20000003559E+02 0.  0.
        -12    1    1    2    0    0 -0.37008988140E+02 -0.83770496533E+01 -0.21066158693E+02  0.43400728175E+02  0.00000000000E+00 0.  1.
         11    1    3    3    0    0  0.15501911092E+02  0.12225904632E+02  0.11200820256E+02  0.22698906719E+02  0.51100000000E-03 0. -1.
        -11    1    3    3    0    0  0.53067136223E+01 -0.43152844869E+01  0.24488992237E+01  0.72649843318E+01  0.51100000000E-03 0.  1.
         12    1    3    3    0    0  0.16200363425E+02  0.46642950788E+00  0.74164392136E+01  0.17823380774E+02  0.00000000000E+00 0. -1.
</event>
<event>
 7    1  0.2497395E-009  0.4778727E+02  0.7816164E-02  0.1312668E+00
        -11   -1    0    0    0    0  0.00000000000E+00  0.00000000000E+00  0.45593999997E+02  0.45594000000E+02  0.51100000000E-03 0.  1.
         11   -1    0    0    0    0 -0.00000000000E+00 -0.00000000000E+00 -0.45593999997E+02  0.45594000000E+02  0.51100000000E-03 0. -1.
    9900012    2    1    2    0    0 -0.12396260448E+02  0.33555159872E+02 -0.24576560590E+02  0.47787270081E+02  0.19999995606E+02 0.  0.
        -12    1    1    2    0    0  0.12396260448E+02 -0.33555159872E+02  0.24576560590E+02  0.43400729919E+02  0.00000000000E+00 0.  1.
         11    1    3    3    0    0  0.91983500506E-01  0.17465625420E+02 -0.49358875212E+01  0.18149917855E+02  0.51100000000E-03 0. -1.
        -11    1    3    3    0    0 -0.39979257466E+01  0.42450337695E+01 -0.11624132168E+02  0.13004774927E+02  0.51100000000E-03 0.  1.
         12    1    3    3    0    0 -0.84903182020E+01  0.11844500682E+02 -0.80165409010E+01  0.16632577299E+02  0.00000000000E+00 0. -1.
</event>
<event>
 7    1  0.2497395E-009  0.4778729E+02  0.7816164E-02  0.1312668E+00
        -11   -1    0    0    0    0  0.00000000000E+00  0.00000000000E+00  0.45593999997E+02  0.45594000000E+02  0.51100000000E-03 0. -1.
         11   -1    0    0    0    0 -0.00000000000E+00 -0.00000000000E+00 -0.45593999997E+02  0.45594000000E+02  0.51100000000E-03 0.  1.
    9900012    2    1    2    0    0  0.32262187153E+02 -0.16812282418E+02  0.23666859735E+02  0.47787287913E+02  0.20000076908E+02 0.  0.
        -12    1    1    2    0    0 -0.32262187153E+02  0.16812282418E+02 -0.23666859735E+02  0.43400712087E+02  0.00000000000E+00 0.  1.
         11    1    3    3    0    0  0.57035130229E+01  0.11501616427E+01 -0.11350055668E+01  0.59279988617E+01  0.51100000000E-03 0.  1.
        -11    1    3    3    0    0  0.19141898318E+02 -0.18031355601E+02  0.19011792979E+02  0.32449812458E+02  0.51100000000E-03 0. -1.
         12    1    3    3    0    0  0.74167758119E+01  0.68911540257E-01  0.57900723226E+01  0.94094765925E+01  0.00000000000E+00 0. -1.
</event>
<event>
 7    1  0.2497395E-009  0.4778727E+02  0.7816164E-02  0.1312668E+00
        -11   -1    0    0    0    0  0.00000000000E+00  0.00000000000E+00  0.45593999997E+02  0.45594000000E+02  0.51100000000E-03 0. -1.
         11   -1    0    0    0    0 -0.00000000000E+00 -0.00000000000E+00 -0.45593999997E+02  0.45594000000E+02  0.51100000000E-03 0.  1.
    9900012    2    1    2    0    0  0.37466458727E+02 -0.21881193053E+02  0.10494458519E+01  0.47787268721E+02  0.19999989406E+02 0.  0.
        -12    1    1    2    0    0 -0.37466458727E+02  0.21881193053E+02 -0.10494458519E+01  0.43400731279E+02  0.00000000000E+00 0.  1.
         11    1    3    3    0    0  0.27877434673E+02 -0.10117933991E+02  0.11105134300E+01  0.29677553682E+02  0.51100000000E-03 0. -1.
        -11    1    3    3    0    0 -0.48871092903E+00 -0.67142275144E+01  0.92331766281E+00  0.67950132638E+01  0.51100000000E-03 0.  1.
         12    1    3    3    0    0  0.10077734983E+02 -0.50490315473E+01 -0.98438524096E+00  0.11314701775E+02  0.00000000000E+00 0. -1.
</event>
<event>
 7    1  0.2497395E-009  0.4778727E+02  0.7816164E-02  0.1312668E+00
        -11   -1    0    0    0    0  0.00000000000E+00  0.00000000000E+00  0.45593999997E+02  0.45594000000E+02  0.51100000000E-03 0. -1.
         11   -1    0    0    0    0 -0.00000000000E+00 -0.00000000000E+00 -0.45593999997E+02  0.45594000000E+02  0.51100000000E-03 0.  1.
    9900012    2    1    2    0    0 -0.32970756985E+02  0.62762080804E+00  0.28216280472E+02  0.47787271806E+02  0.20000003475E+02 0.  0.
        -12    1    1    2    0    0  0.32970756985E+02 -0.62762080804E+00 -0.28216280472E+02  0.43400728194E+02  0.00000000000E+00 0.  1.
         11    1    3    3    0    0 -0.19219592852E+02  0.91128686174E+01  0.17569712115E+02  0.27588619174E+02  0.51100000000E-03 0. -1.
        -11    1    3    3    0    0 -0.68853874758E+01 -0.55874143817E+01  0.26205936648E+01  0.92463653174E+01  0.51100000000E-03 0.  1.
         12    1    3    3    0    0 -0.68657766570E+01 -0.28978334277E+01  0.80259746923E+01  0.10952287315E+02  0.00000000000E+00 0. -1.
</event>
<event>
 7    1  0.2497395E-009  0.4778727E+02  0.7816164E-02  0.1312668E+00
        -11   -1    0    0    0    0  0.00000000000E+00  0.00000000000E+00  0.45593999997E+02  0.45594000000E+02  0.51100000000E-03 0. -1.
         11   -1    0    0    0    0 -0.00000000000E+00 -0.00000000000E+00 -0.45593999997E+02  0.45594000000E+02  0.51100000000E-03 0.  1.
    9900012    2    1    2    0    0  0.90609725584E+01  0.13050089107E+02  0.40388333514E+02  0.47787268054E+02  0.19999986366E+02 0.  0.
        -12    1    1    2    0    0 -0.90609725584E+01 -0.13050089107E+02 -0.40388333514E+02  0.43400731946E+02  0.00000000000E+00 0.  1.
         11    1    3    3    0    0 -0.21977696667E+01 -0.65389389022E+00 -0.38948996127E+00  0.23258270397E+01  0.51100000000E-03 0. -1.
        -11    1    3    3    0    0  0.43717857865E+01  0.32646046304E+01  0.44489518399E+01  0.70401226616E+01  0.51100000000E-03 0.  1.
         12    1    3    3    0    0  0.68869564385E+01  0.10439378367E+02  0.36328871635E+02  0.38421318353E+02  0.00000000000E+00 0. -1.
</event>
<event>
 7    1  0.2497395E-009  0.4778727E+02  0.7816164E-02  0.1312668E+00
        -11   -1    0    0    0    0  0.00000000000E+00  0.00000000000E+00  0.45593999997E+02  0.45594000000E+02  0.51100000000E-03 0. -1.
         11   -1    0    0    0    0 -0.00000000000E+00 -0.00000000000E+00 -0.45593999997E+02  0.45594000000E+02  0.51100000000E-03 0.  1.
    9900012    2    1    2    0    0  0.38951561653E+02  0.10152104359E+02  0.16227579888E+02  0.47787265822E+02  0.19999976191E+02 0.  0.
        -12    1    1    2    0    0 -0.38951561653E+02 -0.10152104359E+02 -0.16227579888E+02  0.43400734178E+02  0.00000000000E+00 0.  1.
         11    1    3    3    0    0  0.88884835103E+01  0.10941465275E+02  0.80218052301E+01  0.16219437749E+02  0.51100000000E-03 0. -1.
        -11    1    3    3    0    0  0.16242787146E+02 -0.11980220572E+01  0.19881575052E+01  0.16407807947E+02  0.51100000000E-03 0.  1.
         12    1    3    3    0    0  0.13820290997E+02  0.40866114123E+00  0.62176171525E+01  0.15160020126E+02  0.00000000000E+00 0. -1.
</event>
<event>
 7    1  0.2497395E-009  0.4778727E+02  0.7816164E-02  0.1312668E+00
        -11   -1    0    0    0    0  0.00000000000E+00  0.00000000000E+00  0.45593999997E+02  0.45594000000E+02  0.51100000000E-03 0.  1.
         11   -1    0    0    0    0 -0.00000000000E+00 -0.00000000000E+00 -0.45593999997E+02  0.45594000000E+02  0.51100000000E-03 0. -1.
    9900012    2    1    2    0    0  0.32375026956E+02  0.21062160180E+02 -0.19795618362E+02  0.47787268806E+02  0.19999989795E+02 0.  0.
        -12    1    1    2    0    0 -0.32375026956E+02 -0.21062160180E+02  0.19795618362E+02  0.43400731194E+02  0.00000000000E+00 0.  1.
         11    1    3    3    0    0  0.33499865314E+01  0.73928975872E-01 -0.82040540618E+01  0.88619624556E+01  0.51100000000E-03 0. -1.
        -11    1    3    3    0    0  0.30278268833E+01  0.49866985020E+01  0.97130826358E+00  0.59142486919E+01  0.51100000000E-03 0.  1.
         12    1    3    3    0    0  0.25997213541E+02  0.16001532702E+02 -0.12562872564E+02  0.33011057659E+02  0.00000000000E+00 0. -1.
</event>
<event>
 7    1  0.2497395E-009  0.4778727E+02  0.7816164E-02  0.1312668E+00
        -11   -1    0    0    0    0  0.00000000000E+00  0.00000000000E+00  0.45593999997E+02  0.45594000000E+02  0.51100000000E-03 0.  1.
         11   -1    0    0    0    0 -0.00000000000E+00 -0.00000000000E+00 -0.45593999997E+02  0.45594000000E+02  0.51100000000E-03 0. -1.
    9900012    2    1    2    0    0 -0.31490622732E+02 -0.10519217191E+02 -0.27951920772E+02  0.47787272757E+02  0.20000007810E+02 0.  0.
        -12    1    1    2    0    0  0.31490622732E+02  0.10519217191E+02  0.27951920772E+02  0.43400727243E+02  0.00000000000E+00 0.  1.
         11    1    3    3    0    0 -0.11929906588E+02 -0.11187065029E+02 -0.13227197728E+02  0.21034064162E+02  0.51100000000E-03 0.  1.
        -11    1    3    3    0    0 -0.20408719458E+02  0.34917876259E+00 -0.15444397646E+02  0.25596233603E+02  0.51100000000E-03 0. -1.
        -12    1    3    3    0    0  0.84800331429E+00  0.31866907532E+00  0.71967460248E+00  0.11569749928E+01  0.00000000000E+00 0.  1.
</event>
<event>
 7    1  0.2497395E-009  0.4778728E+02  0.7816164E-02  0.1312668E+00
        -11   -1    0    0    0    0  0.00000000000E+00  0.00000000000E+00  0.45593999997E+02  0.45594000000E+02  0.51100000000E-03 0. -1.
         11   -1    0    0    0    0 -0.00000000000E+00 -0.00000000000E+00 -0.45593999997E+02  0.45594000000E+02  0.51100000000E-03 0.  1.
    9900012    2    1    2    0    0 -0.13455207114E+02  0.38836390275E+02  0.13939686243E+02  0.47787278109E+02  0.20000032212E+02 0.  0.
        -12    1    1    2    0    0  0.13455207114E+02 -0.38836390275E+02 -0.13939686243E+02  0.43400721891E+02  0.00000000000E+00 0.  1.
         11    1    3    3    0    0 -0.54789963356E+01  0.27676172813E+02  0.70408320163E+01  0.29078570428E+02  0.51100000000E-03 0. -1.
        -11    1    3    3    0    0  0.70627035200E+00 -0.16710281426E+01  0.18440386404E+00  0.18235015519E+01  0.51100000000E-03 0.  1.
        -12    1    3    3    0    0 -0.86824811302E+01  0.12831245605E+02  0.67144503627E+01  0.16885206129E+02  0.00000000000E+00 0.  1.
</event>
<event>
 7    1  0.2497395E-009  0.4778727E+02  0.7816164E-02  0.1312668E+00
        -11   -1    0    0    0    0  0.00000000000E+00  0.00000000000E+00  0.45593999997E+02  0.45594000000E+02  0.51100000000E-03 0.  1.
         11   -1    0    0    0    0 -0.00000000000E+00 -0.00000000000E+00 -0.45593999997E+02  0.45594000000E+02  0.51100000000E-03 0. -1.
    9900012    2    1    2    0    0 -0.11685377420E+02 -0.26486832967E+02 -0.32334550562E+02  0.47787268139E+02  0.19999986751E+02 0.  0.
        -12    1    1    2    0    0  0.11685377420E+02  0.26486832967E+02  0.32334550562E+02  0.43400731861E+02  0.00000000000E+00 0.  1.
         11    1    3    3    0    0 -0.84845460778E+01 -0.14928955250E+02 -0.23726910588E+02  0.29288692585E+02  0.51100000000E-03 0. -1.
        -11    1    3    3    0    0 -0.29587400212E+01 -0.11894607625E+02 -0.26675030744E+01  0.12543978873E+02  0.51100000000E-03 0.  1.
         12    1    3    3    0    0 -0.24209132117E+00  0.33672990849E+00 -0.59401368999E+01  0.59545966806E+01  0.00000000000E+00 0. -1.
</event>
<event>
 7    1  0.2497395E-009  0.4778727E+02  0.7816164E-02  0.1312668E+00
        -11   -1    0    0    0    0  0.00000000000E+00  0.00000000000E+00  0.45593999997E+02  0.45594000000E+02  0.51100000000E-03 0. -1.
         11   -1    0    0    0    0 -0.00000000000E+00 -0.00000000000E+00 -0.45593999997E+02  0.45594000000E+02  0.51100000000E-03 0.  1.
    9900012    2    1    2    0    0 -0.30755224944E+02 -0.26827564036E+02  0.14765543187E+02  0.47787270524E+02  0.19999997627E+02 0.  0.
        -12    1    1    2    0    0  0.30755224944E+02  0.26827564036E+02 -0.14765543187E+02  0.43400729476E+02  0.00000000000E+00 0.  1.
         11    1    3    3    0    0 -0.17616077003E+02 -0.51065646083E+01  0.57873945590E+01  0.19232709303E+02  0.51100000000E-03 0. -1.
        -11    1    3    3    0    0 -0.99649522458E+01 -0.19996881980E+02  0.10435823951E+02  0.24659318400E+02  0.51100000000E-03 0.  1.
        -12    1    3    3    0    0 -0.31741956950E+01 -0.17241174479E+01 -0.14576753234E+01  0.38952428208E+01  0.00000000000E+00 0.  1.
</event>
<event>
 7    1  0.2497395E-009  0.4778727E+02  0.7816164E-02  0.1312668E+00
        -11   -1    0    0    0    0  0.00000000000E+00  0.00000000000E+00  0.45593999997E+02  0.45594000000E+02  0.51100000000E-03 0. -1.
         11   -1    0    0    0    0 -0.00000000000E+00 -0.00000000000E+00 -0.45593999997E+02  0.45594000000E+02  0.51100000000E-03 0.  1.
    9900012    2    1    2    0    0 -0.16884059637E+02  0.36074818361E+02  0.17238307245E+02  0.47787271592E+02  0.20000002499E+02 0.  0.
        -12    1    1    2    0    0  0.16884059637E+02 -0.36074818361E+02 -0.17238307245E+02  0.43400728408E+02  0.00000000000E+00 0.  1.
         11    1    3    3    0    0 -0.37022798438E+01  0.19526192213E+02  0.10628395676E+02  0.22537565381E+02  0.51100000000E-03 0. -1.
        -11    1    3    3    0    0 -0.12052753042E+02  0.57417123038E+01  0.22349976086E+01  0.13536296784E+02  0.51100000000E-03 0.  1.
        -12    1    3    3    0    0 -0.11290267511E+01  0.10806913845E+02  0.43749139602E+01  0.11713409427E+02  0.00000000000E+00 0.  1.
</event>
<event>
 7    1  0.2497395E-009  0.4778727E+02  0.7816164E-02  0.1312668E+00
        -11   -1    0    0    0    0  0.00000000000E+00  0.00000000000E+00  0.45593999997E+02  0.45594000000E+02  0.51100000000E-03 0. -1.
         11   -1    0    0    0    0 -0.00000000000E+00 -0.00000000000E+00 -0.45593999997E+02  0.45594000000E+02  0.51100000000E-03 0.  1.
    9900012    2    1    2    0    0  0.13562601723E+02  0.41189484363E+02  0.17622064452E+01  0.47787272366E+02  0.20000006027E+02 0.  0.
        -12    1    1    2    0    0 -0.13562601723E+02 -0.41189484363E+02 -0.17622064452E+01  0.43400727634E+02  0.00000000000E+00 0.  1.
         11    1    3    3    0    0  0.10396492924E+02  0.18471172277E+02  0.67346573179E+01  0.22240208629E+02  0.51100000000E-03 0. -1.
        -11    1    3    3    0    0  0.51663457726E+01  0.22316569881E+02 -0.52138452153E+01  0.23492649959E+02  0.51100000000E-03 0.  1.
         12    1    3    3    0    0 -0.20002369730E+01  0.40174220526E+00  0.24139434262E+00  0.20544137792E+01  0.00000000000E+00 0. -1.
</event>
<event>
 7    1  0.2497395E-009  0.4778727E+02  0.7816164E-02  0.1312668E+00
        -11   -1    0    0    0    0  0.00000000000E+00  0.00000000000E+00  0.45593999997E+02  0.45594000000E+02  0.51100000000E-03 0. -1.
         11   -1    0    0    0    0 -0.00000000000E+00 -0.00000000000E+00 -0.45593999997E+02  0.45594000000E+02  0.51100000000E-03 0.  1.
    9900012    2    1    2    0    0 -0.35410341361E+02 -0.18865475760E+02  0.16547648699E+02  0.47787272720E+02  0.20000007641E+02 0.  0.
        -12    1    1    2    0    0  0.35410341361E+02  0.18865475760E+02 -0.16547648699E+02  0.43400727280E+02  0.00000000000E+00 0.  1.
         11    1    3    3    0    0 -0.15397535576E+02 -0.16400135430E+02  0.15896706622E+02  0.27545486484E+02  0.51100000000E-03 0. -1.
        -11    1    3    3    0    0 -0.91707196109E+01 -0.10642884499E+01  0.11171473095E+01  0.92996143178E+01  0.51100000000E-03 0.  1.
         12    1    3    3    0    0 -0.10842086174E+02 -0.14010518803E+01 -0.46620523310E+00  0.10942171919E+02  0.00000000000E+00 0. -1.
</event>
<event>
 7    1  0.2497395E-009  0.4778727E+02  0.7816164E-02  0.1312668E+00
        -11   -1    0    0    0    0  0.00000000000E+00  0.00000000000E+00  0.45593999997E+02  0.45594000000E+02  0.51100000000E-03 0.  1.
         11   -1    0    0    0    0 -0.00000000000E+00 -0.00000000000E+00 -0.45593999997E+02  0.45594000000E+02  0.51100000000E-03 0. -1.
    9900012    2    1    2    0    0 -0.78169445596E+01  0.21140286092E+02 -0.37089174134E+02  0.47787272400E+02  0.20000006179E+02 0.  0.
        -12    1    1    2    0    0  0.78169445596E+01 -0.21140286092E+02  0.37089174134E+02  0.43400727600E+02  0.00000000000E+00 0.  1.
         11    1    3    3    0    0 -0.48252277113E+01  0.15609691090E+02 -0.21234480112E+02  0.26792693486E+02  0.51100000000E-03 0. -1.
        -11    1    3    3    0    0  0.41858246992E+01 -0.63101725033E+00 -0.59079051328E+01  0.72679195442E+01  0.51100000000E-03 0.  1.
         12    1    3    3    0    0 -0.71775415474E+01  0.61616122521E+01 -0.99467888898E+01  0.13726659369E+02  0.00000000000E+00 0. -1.
</event>
<event>
 7    1  0.2497395E-009  0.4778727E+02  0.7816164E-02  0.1312668E+00
        -11   -1    0    0    0    0  0.00000000000E+00  0.00000000000E+00  0.45593999997E+02  0.45594000000E+02  0.51100000000E-03 0. -1.
         11   -1    0    0    0    0 -0.00000000000E+00 -0.00000000000E+00 -0.45593999997E+02  0.45594000000E+02  0.51100000000E-03 0.  1.
    9900012    2    1    2    0    0  0.18014734427E+02  0.30543426769E+02  0.25023820749E+02  0.47787272124E+02  0.20000004922E+02 0.  0.
        -12    1    1    2    0    0 -0.18014734427E+02 -0.30543426769E+02 -0.25023820749E+02  0.43400727876E+02  0.00000000000E+00 0.  1.
         11    1    3    3    0    0  0.17199928485E+02  0.19109461290E+02  0.18696782586E+02  0.31789600973E+02  0.51100000000E-03 0. -1.
        -11    1    3    3    0    0 -0.33538939827E+01  0.95371278165E+01  0.45201476811E+01  0.11074165754E+02  0.51100000000E-03 0.  1.
         12    1    3    3    0    0  0.41686999241E+01  0.18968376630E+01  0.18068904819E+01  0.49235053966E+01  0.00000000000E+00 0. -1.
</event>
<event>
 7    1  0.2497395E-009  0.4778727E+02  0.7816164E-02  0.1312668E+00
        -11   -1    0    0    0    0  0.00000000000E+00  0.00000000000E+00  0.45593999997E+02  0.45594000000E+02  0.51100000000E-03 0. -1.
         11   -1    0    0    0    0 -0.00000000000E+00 -0.00000000000E+00 -0.45593999997E+02  0.45594000000E+02  0.51100000000E-03 0.  1.
    9900012    2    1    2    0    0  0.35184431362E+02  0.24588548665E+02 -0.64095295904E+01  0.47787274138E+02  0.20000014107E+02 0.  0.
        -12    1    1    2    0    0 -0.35184431362E+02 -0.24588548665E+02  0.64095295904E+01  0.43400725862E+02  0.00000000000E+00 0.  1.
         11    1    3    3    0    0  0.86216960738E+01  0.53650714889E+01  0.58074146269E+01  0.11698021208E+02  0.51100000000E-03 0. -1.
        -11    1    3    3    0    0  0.16148947796E+01 -0.20195573231E+00  0.89768121783E+00  0.18586293597E+01  0.51100000000E-03 0.  1.
         12    1    3    3    0    0  0.24947840509E+02  0.19425432908E+02 -0.13114625435E+02  0.34230623571E+02  0.00000000000E+00 0. -1.
</event>
<event>
 7    1  0.2497395E-009  0.4778727E+02  0.7816164E-02  0.1312668E+00
        -11   -1    0    0    0    0  0.00000000000E+00  0.00000000000E+00  0.45593999997E+02  0.45594000000E+02  0.51100000000E-03 0. -1.
         11   -1    0    0    0    0 -0.00000000000E+00 -0.00000000000E+00 -0.45593999997E+02  0.45594000000E+02  0.51100000000E-03 0.  1.
    9900012    2    1    2    0    0  0.34893114541E+02 -0.18397827391E+02  0.18100104504E+02  0.47787270995E+02  0.19999999776E+02 0.  0.
        -12    1    1    2    0    0 -0.34893114541E+02  0.18397827391E+02 -0.18100104504E+02  0.43400729005E+02  0.00000000000E+00 0.  1.
         11    1    3    3    0    0  0.21959059168E+02 -0.89650966069E+01  0.16173251837E+02  0.28707966002E+02  0.51100000000E-03 0. -1.
        -11    1    3    3    0    0  0.11697009527E+01 -0.68067523809E+01  0.26695519341E+00  0.69116816788E+01  0.51100000000E-03 0.  1.
        -12    1    3    3    0    0  0.11764354421E+02 -0.26259784029E+01  0.16598974730E+01  0.12167623315E+02  0.00000000000E+00 0.  1.
</event>
<event>
 7    1  0.2497395E-009  0.4778727E+02  0.7816164E-02  0.1312668E+00
        -11   -1    0    0    0    0  0.00000000000E+00  0.00000000000E+00  0.45593999997E+02  0.45594000000E+02  0.51100000000E-03 0.  1.
         11   -1    0    0    0    0 -0.00000000000E+00 -0.00000000000E+00 -0.45593999997E+02  0.45594000000E+02  0.51100000000E-03 0. -1.
    9900012    2    1    2    0    0 -0.27081026198E+01  0.79840008962E+00 -0.43308802170E+02  0.47787267196E+02  0.19999982455E+02 0.  0.
        -12    1    1    2    0    0  0.27081026198E+01 -0.79840008962E+00  0.43308802170E+02  0.43400732804E+02  0.00000000000E+00 0.  1.
         11    1    3    3    0    0 -0.37098549088E+00  0.56304246291E+01 -0.34608224482E+02  0.35065203747E+02  0.51100000000E-03 0. -1.
        -11    1    3    3    0    0 -0.49031497423E+01 -0.36219156287E+01 -0.42026577092E+01  0.74041530439E+01  0.51100000000E-03 0.  1.
         12    1    3    3    0    0  0.25660326134E+01 -0.12101089108E+01 -0.44979199788E+01  0.53179104059E+01  0.00000000000E+00 0. -1.
</event>
<event>
 7    1  0.2497395E-009  0.4778727E+02  0.7816164E-02  0.1312668E+00
        -11   -1    0    0    0    0  0.00000000000E+00  0.00000000000E+00  0.45593999997E+02  0.45594000000E+02  0.51100000000E-03 0.  1.
         11   -1    0    0    0    0 -0.00000000000E+00 -0.00000000000E+00 -0.45593999997E+02  0.45594000000E+02  0.51100000000E-03 0. -1.
    9900012    2    1    2    0    0  0.12868467856E+02  0.22691302278E+01 -0.41386915265E+02  0.47787272217E+02  0.20000005348E+02 0.  0.
        -12    1    1    2    0    0 -0.12868467856E+02 -0.22691302278E+01  0.41386915265E+02  0.43400727783E+02  0.00000000000E+00 0.  1.
         11    1    3    3    0    0  0.57455599198E+01  0.40945999566E+01 -0.22776174462E+02  0.23843895046E+02  0.51100000000E-03 0. -1.
        -11    1    3    3    0    0 -0.16786135758E+01 -0.19773029425E+00  0.12874525652E+01  0.21247059032E+01  0.51100000000E-03 0.  1.
        -12    1    3    3    0    0  0.88015215117E+01 -0.16277394346E+01 -0.19898193368E+02  0.21818671268E+02  0.00000000000E+00 0.  1.
</event>
<event>
 7    1  0.2497395E-009  0.4778727E+02  0.7816164E-02  0.1312668E+00
        -11   -1    0    0    0    0  0.00000000000E+00  0.00000000000E+00  0.45593999997E+02  0.45594000000E+02  0.51100000000E-03 0.  1.
         11   -1    0    0    0    0 -0.00000000000E+00 -0.00000000000E+00 -0.45593999997E+02  0.45594000000E+02  0.51100000000E-03 0. -1.
    9900012    2    1    2    0    0  0.47018605661E+01 -0.27621886958E+02 -0.33144338854E+02  0.47787270398E+02  0.19999997052E+02 0.  0.
        -12    1    1    2    0    0 -0.47018605661E+01  0.27621886958E+02  0.33144338854E+02  0.43400729602E+02  0.00000000000E+00 0.  1.
         11    1    3    3    0    0 -0.59757344240E+00 -0.52914332825E+01 -0.13298099029E+02  0.14324657003E+02  0.51100000000E-03 0. -1.
        -11    1    3    3    0    0  0.64802101034E+01 -0.56050023819E+01 -0.12505443892E+02  0.15159000689E+02  0.51100000000E-03 0.  1.
        -12    1    3    3    0    0 -0.11807760950E+01 -0.16725451294E+02 -0.73407959331E+01  0.18303612706E+02  0.00000000000E+00 0.  1.
</event>
<event>
 7    1  0.2497395E-009  0.4778727E+02  0.7816164E-02  0.1312668E+00
        -11   -1    0    0    0    0  0.00000000000E+00  0.00000000000E+00  0.45593999997E+02  0.45594000000E+02  0.51100000000E-03 0. -1.
         11   -1    0    0    0    0 -0.00000000000E+00 -0.00000000000E+00 -0.45593999997E+02  0.45594000000E+02  0.51100000000E-03 0.  1.
    9900012    2    1    2    0    0 -0.37809793838E+02  0.21308200062E+02 -0.62363568457E-01  0.47787265108E+02  0.19999972932E+02 0.  0.
        -12    1    1    2    0    0  0.37809793838E+02 -0.21308200062E+02  0.62363568457E-01  0.43400734892E+02  0.00000000000E+00 0.  1.
         11    1    3    3    0    0 -0.90533014482E+01  0.38835710060E+01 -0.35571617861E+00  0.98575313913E+01  0.51100000000E-03 0. -1.
        -11    1    3    3    0    0 -0.16139661321E+02  0.18347026162E+02 -0.35868711862E+01  0.24697523797E+02  0.51100000000E-03 0.  1.
        -12    1    3    3    0    0 -0.12616831069E+02 -0.92239710561E+00  0.38802237963E+01  0.13232209919E+02  0.00000000000E+00 0.  1.
</event>
<event>
 7    1  0.2497395E-009  0.4778728E+02  0.7816164E-02  0.1312668E+00
        -11   -1    0    0    0    0  0.00000000000E+00  0.00000000000E+00  0.45593999997E+02  0.45594000000E+02  0.51100000000E-03 0. -1.
         11   -1    0    0    0    0 -0.00000000000E+00 -0.00000000000E+00 -0.45593999997E+02  0.45594000000E+02  0.51100000000E-03 0.  1.
    9900012    2    1    2    0    0  0.16969551580E+01 -0.36513933380E+02  0.23398194271E+02  0.47787280158E+02  0.20000041551E+02 0.  0.
        -12    1    1    2    0    0 -0.16969551580E+01  0.36513933380E+02 -0.23398194271E+02  0.43400719842E+02  0.00000000000E+00 0.  1.
         11    1    3    3    0    0  0.61553197632E+01 -0.26625942166E+02  0.18535956372E+02  0.33021363335E+02  0.51100000000E-03 0. -1.
        -11    1    3    3    0    0 -0.68466525875E+01 -0.70347219478E+01  0.50519131501E+01  0.11040189821E+02  0.51100000000E-03 0.  1.
        -12    1    3    3    0    0  0.23882879823E+01 -0.28532692661E+01 -0.18967525141E+00  0.37257270018E+01  0.00000000000E+00 0.  1.
</event>
<event>
 7    1  0.2497395E-009  0.4778727E+02  0.7816164E-02  0.1312668E+00
        -11   -1    0    0    0    0  0.00000000000E+00  0.00000000000E+00  0.45593999997E+02  0.45594000000E+02  0.51100000000E-03 0. -1.
         11   -1    0    0    0    0 -0.00000000000E+00 -0.00000000000E+00 -0.45593999997E+02  0.45594000000E+02  0.51100000000E-03 0.  1.
    9900012    2    1    2    0    0 -0.10301287335E+02 -0.10089178377E+02  0.40935499925E+02  0.47787271952E+02  0.20000004136E+02 0.  0.
        -12    1    1    2    0    0  0.10301287335E+02  0.10089178377E+02 -0.40935499925E+02  0.43400728048E+02  0.00000000000E+00 0.  1.
         11    1    3    3    0    0 -0.11523374343E+01  0.51719063270E+01  0.99807264324E+01  0.11300061814E+02  0.51100000000E-03 0. -1.
        -11    1    3    3    0    0 -0.15107230915E+00 -0.13104706468E+01 -0.47653950586E-01  0.13200103480E+01  0.51100000000E-03 0.  1.
         12    1    3    3    0    0 -0.89978775912E+01 -0.13950614057E+02  0.31002427443E+02  0.35167199790E+02  0.00000000000E+00 0. -1.
</event>
<event>
 7    1  0.2497395E-009  0.4778728E+02  0.7816164E-02  0.1312668E+00
        -11   -1    0    0    0    0  0.00000000000E+00  0.00000000000E+00  0.45593999997E+02  0.45594000000E+02  0.51100000000E-03 0.  1.
         11   -1    0    0    0    0 -0.00000000000E+00 -0.00000000000E+00 -0.45593999997E+02  0.45594000000E+02  0.51100000000E-03 0. -1.
    9900012    2    1    2    0    0 -0.32422361714E+02  0.14831356257E+00 -0.28851193364E+02  0.47787275414E+02  0.20000019922E+02 0.  0.
        -12    1    1    2    0    0  0.32422361714E+02 -0.14831356257E+00  0.28851193364E+02  0.43400724586E+02  0.00000000000E+00 0.  1.
         11    1    3    3    0    0 -0.89396779572E+01 -0.17321809421E+01 -0.19407036876E+01  0.93104577685E+01  0.51100000000E-03 0. -1.
        -11    1    3    3    0    0 -0.21006650744E+01  0.91303744192E+00 -0.12419349712E+02  0.12628803532E+02  0.51100000000E-03 0.  1.
        -12    1    3    3    0    0 -0.21382018683E+02  0.96745706278E+00 -0.14491139965E+02  0.25848014113E+02  0.00000000000E+00 0.  1.
</event>
<event>
 7    1  0.2497395E-009  0.4778727E+02  0.7816164E-02  0.1312668E+00
        -11   -1    0    0    0    0  0.00000000000E+00  0.00000000000E+00  0.45593999997E+02  0.45594000000E+02  0.51100000000E-03 0. -1.
         11   -1    0    0    0    0 -0.00000000000E+00 -0.00000000000E+00 -0.45593999997E+02  0.45594000000E+02  0.51100000000E-03 0.  1.
    9900012    2    1    2    0    0 -0.29847175911E+01  0.36517499025E+02  0.23263428195E+02  0.47787269988E+02  0.19999995185E+02 0.  0.
        -12    1    1    2    0    0  0.29847175911E+01 -0.36517499025E+02 -0.23263428195E+02  0.43400730012E+02  0.00000000000E+00 0.  1.
         11    1    3    3    0    0 -0.13811659003E+01  0.81709489630E+01  0.24514759117E+01  0.86418609458E+01  0.51100000000E-03 0. -1.
        -11    1    3    3    0    0 -0.75916304043E+01  0.23738265206E+02  0.19095019895E+02  0.31396781240E+02  0.51100000000E-03 0.  1.
        -12    1    3    3    0    0  0.59880787135E+01  0.46082848563E+01  0.17169323882E+01  0.77486278025E+01  0.00000000000E+00 0.  1.
</event>
<event>
 7    1  0.2497395E-009  0.4778726E+02  0.7816164E-02  0.1312668E+00
        -11   -1    0    0    0    0  0.00000000000E+00  0.00000000000E+00  0.45593999997E+02  0.45594000000E+02  0.51100000000E-03 0. -1.
         11   -1    0    0    0    0 -0.00000000000E+00 -0.00000000000E+00 -0.45593999997E+02  0.45594000000E+02  0.51100000000E-03 0.  1.
    9900012    2    1    2    0    0 -0.12867617693E+02 -0.39201997654E+02  0.13462998987E+02  0.47787256379E+02  0.19999933133E+02 0.  0.
        -12    1    1    2    0    0  0.12867617693E+02  0.39201997654E+02 -0.13462998987E+02  0.43400743621E+02  0.00000000000E+00 0.  1.
         11    1    3    3    0    0  0.24990571649E+01 -0.10754133720E+02  0.62384540472E+01  0.12681284948E+02  0.51100000000E-03 0. -1.
        -11    1    3    3    0    0 -0.92042441679E+01 -0.62175209367E+01  0.40359358967E+01  0.11817971743E+02  0.51100000000E-03 0.  1.
        -12    1    3    3    0    0 -0.61624306897E+01 -0.22230342998E+02  0.31886090427E+01  0.23287999687E+02  0.00000000000E+00 0.  1.
</event>
<event>
 7    1  0.2497395E-009  0.4778727E+02  0.7816164E-02  0.1312668E+00
        -11   -1    0    0    0    0  0.00000000000E+00  0.00000000000E+00  0.45593999997E+02  0.45594000000E+02  0.51100000000E-03 0.  1.
         11   -1    0    0    0    0 -0.00000000000E+00 -0.00000000000E+00 -0.45593999997E+02  0.45594000000E+02  0.51100000000E-03 0. -1.
    9900012    2    1    2    0    0 -0.32019223978E+02  0.19037928652E+02  0.22269928934E+02  0.47787272284E+02  0.20000005654E+02 0.  0.
        -12    1    1    2    0    0  0.32019223978E+02 -0.19037928652E+02 -0.22269928934E+02  0.43400727716E+02  0.00000000000E+00 0.  1.
         11    1    3    3    0    0 -0.15124424121E+02  0.48083843400E+01 -0.34997850462E+00  0.15874232271E+02  0.51100000000E-03 0. -1.
        -11    1    3    3    0    0 -0.11046159322E+02  0.11611197249E+02  0.14928030324E+02  0.21901680916E+02  0.51100000000E-03 0.  1.
         12    1    3    3    0    0 -0.58486405341E+01  0.26183470632E+01  0.76918771147E+01  0.10011359098E+02  0.00000000000E+00 0. -1.
</event>
<event>
 7    1  0.2497395E-009  0.4778727E+02  0.7816164E-02  0.1312668E+00
        -11   -1    0    0    0    0  0.00000000000E+00  0.00000000000E+00  0.45593999997E+02  0.45594000000E+02  0.51100000000E-03 0.  1.
         11   -1    0    0    0    0 -0.00000000000E+00 -0.00000000000E+00 -0.45593999997E+02  0.45594000000E+02  0.51100000000E-03 0. -1.
    9900012    2    1    2    0    0  0.14231946600E+02  0.79093975554E+01 -0.40230789985E+02  0.47787270323E+02  0.19999996711E+02 0.  0.
        -12    1    1    2    0    0 -0.14231946600E+02 -0.79093975554E+01  0.40230789985E+02  0.43400729677E+02  0.00000000000E+00 0.  1.
         11    1    3    3    0    0  0.66767919426E+01  0.42299867001E+01 -0.79267969824E+01  0.11194036305E+02  0.51100000000E-03 0. -1.
        -11    1    3    3    0    0  0.77207067278E+01 -0.18173495754E+01 -0.66325471856E+01  0.10339378815E+02  0.51100000000E-03 0.  1.
        -12    1    3    3    0    0 -0.16555207094E+00  0.54967604306E+01 -0.25671445817E+02  0.26253855203E+02  0.00000000000E+00 0.  1.
</event>
<event>
 7    1  0.2497395E-009  0.4778727E+02  0.7816164E-02  0.1312668E+00
        -11   -1    0    0    0    0  0.00000000000E+00  0.00000000000E+00  0.45593999997E+02  0.45594000000E+02  0.51100000000E-03 0.  1.
         11   -1    0    0    0    0 -0.00000000000E+00 -0.00000000000E+00 -0.45593999997E+02  0.45594000000E+02  0.51100000000E-03 0. -1.
    9900012    2    1    2    0    0  0.22109117710E+02  0.33577239068E+02 -0.16351742847E+02  0.47787267708E+02  0.19999984787E+02 0.  0.
        -12    1    1    2    0    0 -0.22109117710E+02 -0.33577239068E+02  0.16351742847E+02  0.43400732292E+02  0.00000000000E+00 0.  1.
         11    1    3    3    0    0  0.65628662847E+01  0.14296007972E+02 -0.80887794542E+01  0.17688284573E+02  0.51100000000E-03 0. -1.
        -11    1    3    3    0    0  0.20061430865E+00  0.33410479435E+01 -0.72082675271E+01  0.79474504381E+01  0.51100000000E-03 0.  1.
        -12    1    3    3    0    0  0.15345637117E+02  0.15940183152E+02 -0.10546958659E+01  0.22151532697E+02  0.00000000000E+00 0.  1.
</event>
<event>
 7    1  0.2497395E-009  0.4778727E+02  0.7816164E-02  0.1312668E+00
        -11   -1    0    0    0    0  0.00000000000E+00  0.00000000000E+00  0.45593999997E+02  0.45594000000E+02  0.51100000000E-03 0.  1.
         11   -1    0    0    0    0 -0.00000000000E+00 -0.00000000000E+00 -0.45593999997E+02  0.45594000000E+02  0.51100000000E-03 0. -1.
    9900012    2    1    2    0    0 -0.52772200758E+01 -0.44404318746E+01 -0.42849234340E+02  0.47787269931E+02  0.19999994925E+02 0.  0.
        -12    1    1    2    0    0  0.52772200758E+01  0.44404318746E+01  0.42849234340E+02  0.43400730069E+02  0.00000000000E+00 0.  1.
         11    1    3    3    0    0 -0.66552449065E-01 -0.11430862048E+02 -0.19533471376E+02  0.22632400241E+02  0.51100000000E-03 0. -1.
        -11    1    3    3    0    0 -0.46441401510E+01  0.38457417789E+01 -0.17631825546E+02  0.18634351073E+02  0.51100000000E-03 0.  1.
         12    1    3    3    0    0 -0.56652747569E+00  0.31446883941E+01 -0.56839374179E+01  0.65205186180E+01  0.00000000000E+00 0. -1.
</event>
<event>
 7    1  0.2497395E-009  0.4778727E+02  0.7816164E-02  0.1312668E+00
        -11   -1    0    0    0    0  0.00000000000E+00  0.00000000000E+00  0.45593999997E+02  0.45594000000E+02  0.51100000000E-03 0. -1.
         11   -1    0    0    0    0 -0.00000000000E+00 -0.00000000000E+00 -0.45593999997E+02  0.45594000000E+02  0.51100000000E-03 0.  1.
    9900012    2    1    2    0    0  0.12808073006E+02  0.36787134394E+02  0.19138528781E+02  0.47787271032E+02  0.19999999944E+02 0.  0.
        -12    1    1    2    0    0 -0.12808073006E+02 -0.36787134394E+02 -0.19138528781E+02  0.43400728968E+02  0.00000000000E+00 0.  1.
         11    1    3    3    0    0 -0.38129515973E+00  0.23113970862E+02  0.12204470985E+02  0.26140966840E+02  0.51100000000E-03 0. -1.
        -11    1    3    3    0    0  0.75532771463E+01  0.79959417852E+01 -0.91033473411E-01  0.10999789454E+02  0.51100000000E-03 0.  1.
        -12    1    3    3    0    0  0.56360910192E+01  0.56772217466E+01  0.70250912691E+01  0.10646514738E+02  0.00000000000E+00 0.  1.
</event>
<event>
 7    1  0.2497395E-009  0.4778727E+02  0.7816164E-02  0.1312668E+00
        -11   -1    0    0    0    0  0.00000000000E+00  0.00000000000E+00  0.45593999997E+02  0.45594000000E+02  0.51100000000E-03 0. -1.
         11   -1    0    0    0    0 -0.00000000000E+00 -0.00000000000E+00 -0.45593999997E+02  0.45594000000E+02  0.51100000000E-03 0.  1.
    9900012    2    1    2    0    0  0.69066092263E+00  0.43363223834E+02 -0.16663546162E+01  0.47787274989E+02  0.20000017985E+02 0.  0.
        -12    1    1    2    0    0 -0.69066092263E+00 -0.43363223834E+02  0.16663546162E+01  0.43400725011E+02  0.00000000000E+00 0.  1.
         11    1    3    3    0    0  0.25413109298E+01 -0.62448556035E+00  0.97184105865E+00  0.27915441536E+01  0.51100000000E-03 0.  1.
        -11    1    3    3    0    0  0.16527624881E+01  0.36957729888E+02 -0.31226330603E+01  0.37126220651E+02  0.51100000000E-03 0. -1.
        -12    1    3    3    0    0 -0.35034124953E+01  0.70299795057E+01  0.48443738542E+00  0.78695101844E+01  0.00000000000E+00 0.  1.
</event>
<event>
 7    1  0.2497395E-009  0.4778725E+02  0.7816164E-02  0.1312668E+00
        -11   -1    0    0    0    0  0.00000000000E+00  0.00000000000E+00  0.45593999997E+02  0.45594000000E+02  0.51100000000E-03 0.  1.
         11   -1    0    0    0    0 -0.00000000000E+00 -0.00000000000E+00 -0.45593999997E+02  0.45594000000E+02  0.51100000000E-03 0. -1.
    9900012    2    1    2    0    0  0.56430259674E+01 -0.16418303366E+02 -0.39777134225E+02  0.47787253064E+02  0.19999918020E+02 0.  0.
        -12    1    1    2    0    0 -0.56430259674E+01  0.16418303366E+02  0.39777134225E+02  0.43400746936E+02  0.00000000000E+00 0.  1.
         11    1    3    3    0    0  0.11389171269E+02 -0.14395386552E+02 -0.29153873672E+02  0.34451251450E+02  0.51100000000E-03 0. -1.
        -11    1    3    3    0    0 -0.28064302827E+01  0.14574554957E+01 -0.63304559350E+01  0.70763620639E+01  0.51100000000E-03 0.  1.
         12    1    3    3    0    0 -0.29397150187E+01 -0.34803723093E+01 -0.42928046180E+01  0.62596395496E+01  0.00000000000E+00 0. -1.
</event>
<event>
 7    1  0.2497395E-009  0.4778727E+02  0.7816164E-02  0.1312668E+00
        -11   -1    0    0    0    0  0.00000000000E+00  0.00000000000E+00  0.45593999997E+02  0.45594000000E+02  0.51100000000E-03 0. -1.
         11   -1    0    0    0    0 -0.00000000000E+00 -0.00000000000E+00 -0.45593999997E+02  0.45594000000E+02  0.51100000000E-03 0.  1.
    9900012    2    1    2    0    0 -0.12324376682E+02 -0.10224605886E+02  0.40338448455E+02  0.47787271321E+02  0.20000001261E+02 0.  0.
        -12    1    1    2    0    0  0.12324376682E+02  0.10224605886E+02 -0.40338448455E+02  0.43400728679E+02  0.00000000000E+00 0.  1.
         11    1    3    3    0    0  0.33812773046E+01  0.14682612714E+01  0.47329743863E+01  0.59991561218E+01  0.51100000000E-03 0.  1.
        -11    1    3    3    0    0 -0.12978226502E+02 -0.38342856659E+01  0.22979609830E+02  0.26668306619E+02  0.51100000000E-03 0. -1.
        -12    1    3    3    0    0 -0.27274274845E+01 -0.78585814912E+01  0.12625864238E+02  0.15119808580E+02  0.00000000000E+00 0.  1.
</event>
<event>
 7    1  0.2497395E-009  0.4778728E+02  0.7816164E-02  0.1312668E+00
        -11   -1    0    0    0    0  0.00000000000E+00  0.00000000000E+00  0.45593999997E+02  0.45594000000E+02  0.51100000000E-03 0. -1.
         11   -1    0    0    0    0 -0.00000000000E+00 -0.00000000000E+00 -0.45593999997E+02  0.45594000000E+02  0.51100000000E-03 0.  1.
    9900012    2    1    2    0    0  0.11846428226E+02  0.39315889627E+02 -0.14055097923E+02  0.47787276313E+02  0.20000024023E+02 0.  0.
        -12    1    1    2    0    0 -0.11846428226E+02 -0.39315889627E+02  0.14055097923E+02  0.43400723687E+02  0.00000000000E+00 0.  1.
         11    1    3    3    0    0 -0.10727197741E+01  0.42825696582E+01  0.18853943007E+01  0.48006085574E+01  0.51100000000E-03 0. -1.
        -11    1    3    3    0    0  0.50730341413E+01  0.18751899624E+02 -0.85496167896E+00  0.19444803281E+02  0.51100000000E-03 0.  1.
        -12    1    3    3    0    0  0.78461138588E+01  0.16281420345E+02 -0.15085530544E+02  0.23541864474E+02  0.00000000000E+00 0.  1.
</event>
<event>
 7    1  0.2497395E-009  0.4778727E+02  0.7816164E-02  0.1312668E+00
        -11   -1    0    0    0    0  0.00000000000E+00  0.00000000000E+00  0.45593999997E+02  0.45594000000E+02  0.51100000000E-03 0.  1.
         11   -1    0    0    0    0 -0.00000000000E+00 -0.00000000000E+00 -0.45593999997E+02  0.45594000000E+02  0.51100000000E-03 0. -1.
    9900012    2    1    2    0    0  0.95810320433E+01 -0.87706356453E+01 -0.41411386027E+02  0.47787272848E+02  0.20000008225E+02 0.  0.
        -12    1    1    2    0    0 -0.95810320433E+01  0.87706356453E+01  0.41411386027E+02  0.43400727152E+02  0.00000000000E+00 0.  1.
         11    1    3    3    0    0 -0.21990499285E+01 -0.52216546970E+01 -0.14276692610E+02  0.15359864925E+02  0.51100000000E-03 0. -1.
        -11    1    3    3    0    0  0.62807446548E+01  0.46886162964E+01 -0.11378290328E+02  0.13816525151E+02  0.51100000000E-03 0.  1.
        -12    1    3    3    0    0  0.54993373169E+01 -0.82375972446E+01 -0.15756403088E+02  0.18610882772E+02  0.00000000000E+00 0.  1.
</event>
<event>
 7    1  0.2497395E-009  0.4778727E+02  0.7816164E-02  0.1312668E+00
        -11   -1    0    0    0    0  0.00000000000E+00  0.00000000000E+00  0.45593999997E+02  0.45594000000E+02  0.51100000000E-03 0.  1.
         11   -1    0    0    0    0 -0.00000000000E+00 -0.00000000000E+00 -0.45593999997E+02  0.45594000000E+02  0.51100000000E-03 0. -1.
    9900012    2    1    2    0    0  0.10027055061E+01 -0.26025154112E+01 -0.43311024685E+02  0.47787270006E+02  0.19999995265E+02 0.  0.
        -12    1    1    2    0    0 -0.10027055061E+01  0.26025154112E+01  0.43311024685E+02  0.43400729994E+02  0.00000000000E+00 0.  1.
         11    1    3    3    0    0  0.42047120505E+01  0.28823495504E+01 -0.26965195132E+02  0.27442836791E+02  0.51100000000E-03 0. -1.
        -11    1    3    3    0    0 -0.23233282258E+01  0.76807698147E+00  0.37085171265E+00  0.24749399080E+01  0.51100000000E-03 0.  1.
         12    1    3    3    0    0 -0.87867831859E+00 -0.62529419431E+01 -0.16716681265E+02  0.17869493307E+02  0.00000000000E+00 0. -1.
</event>
<event>
 7    1  0.2497395E-009  0.4778727E+02  0.7816164E-02  0.1312668E+00
        -11   -1    0    0    0    0  0.00000000000E+00  0.00000000000E+00  0.45593999997E+02  0.45594000000E+02  0.51100000000E-03 0.  1.
         11   -1    0    0    0    0 -0.00000000000E+00 -0.00000000000E+00 -0.45593999997E+02  0.45594000000E+02  0.51100000000E-03 0. -1.
    9900012    2    1    2    0    0 -0.26527464118E+01 -0.14589238104E+01 -0.43295007813E+02  0.47787271622E+02  0.20000002633E+02 0.  0.
        -12    1    1    2    0    0  0.26527464118E+01  0.14589238104E+01  0.43295007813E+02  0.43400728378E+02  0.00000000000E+00 0.  1.
         11    1    3    3    0    0 -0.30281248441E+01 -0.35243924374E+01 -0.34360691301E+01  0.57790529892E+01  0.51100000000E-03 0. -1.
        -11    1    3    3    0    0 -0.40056479361E+01  0.38711165234E+00 -0.34572076605E+01  0.53054081736E+01  0.51100000000E-03 0.  1.
         12    1    3    3    0    0  0.43810263684E+01  0.16783569746E+01 -0.36401731022E+02  0.36702810459E+02  0.00000000000E+00 0. -1.
</event>
<event>
 7    1  0.2497395E-009  0.4778727E+02  0.7816164E-02  0.1312668E+00
        -11   -1    0    0    0    0  0.00000000000E+00  0.00000000000E+00  0.45593999997E+02  0.45594000000E+02  0.51100000000E-03 0. -1.
         11   -1    0    0    0    0 -0.00000000000E+00 -0.00000000000E+00 -0.45593999997E+02  0.45594000000E+02  0.51100000000E-03 0.  1.
    9900012    2    1    2    0    0  0.19203677420E+02 -0.11760105384E+02  0.37101780328E+02  0.47787269492E+02  0.19999992922E+02 0.  0.
        -12    1    1    2    0    0 -0.19203677420E+02  0.11760105384E+02 -0.37101780328E+02  0.43400730508E+02  0.00000000000E+00 0.  1.
         11    1    3    3    0    0  0.12305310684E+02  0.15558371177E+01  0.14381561247E+02  0.18991329715E+02  0.51100000000E-03 0. -1.
        -11    1    3    3    0    0 -0.11174026510E+01 -0.44982410224E+01  0.23512466780E+01  0.51972225449E+01  0.51100000000E-03 0.  1.
         12    1    3    3    0    0  0.80157693866E+01 -0.88177014791E+01  0.20368972404E+02  0.23598717232E+02  0.00000000000E+00 0. -1.
</event>
<event>
 7    1  0.2497395E-009  0.4778727E+02  0.7816164E-02  0.1312668E+00
        -11   -1    0    0    0    0  0.00000000000E+00  0.00000000000E+00  0.45593999997E+02  0.45594000000E+02  0.51100000000E-03 0. -1.
         11   -1    0    0    0    0 -0.00000000000E+00 -0.00000000000E+00 -0.45593999997E+02  0.45594000000E+02  0.51100000000E-03 0.  1.
    9900012    2    1    2    0    0 -0.29378888051E+01  0.38078019013E+02  0.20616900814E+02  0.47787270493E+02  0.19999997485E+02 0.  0.
        -12    1    1    2    0    0  0.29378888051E+01 -0.38078019013E+02 -0.20616900814E+02  0.43400729507E+02  0.00000000000E+00 0.  1.
         11    1    3    3    0    0 -0.17612341587E+01  0.27340301916E+02  0.18461820159E+02  0.33036840928E+02  0.51100000000E-03 0. -1.
        -11    1    3    3    0    0 -0.19690138012E+01  0.33807179209E+00 -0.26073719288E+01  0.32847673467E+01  0.51100000000E-03 0.  1.
        -12    1    3    3    0    0  0.79235915474E+00  0.10399645305E+02  0.47624525836E+01  0.11465662218E+02  0.00000000000E+00 0.  1.
</event>
<event>
 7    1  0.2497395E-009  0.4778728E+02  0.7816164E-02  0.1312668E+00
        -11   -1    0    0    0    0  0.00000000000E+00  0.00000000000E+00  0.45593999997E+02  0.45594000000E+02  0.51100000000E-03 0. -1.
         11   -1    0    0    0    0 -0.00000000000E+00 -0.00000000000E+00 -0.45593999997E+02  0.45594000000E+02  0.51100000000E-03 0.  1.
    9900012    2    1    2    0    0 -0.23659287131E+02 -0.19152522135E+02  0.30936088882E+02  0.47787279188E+02  0.20000037131E+02 0.  0.
        -12    1    1    2    0    0  0.23659287131E+02  0.19152522135E+02 -0.30936088882E+02  0.43400720812E+02  0.00000000000E+00 0.  1.
         11    1    3    3    0    0 -0.14449276689E+02 -0.45373720279E+01  0.52484610478E+01  0.16028589626E+02  0.51100000000E-03 0. -1.
        -11    1    3    3    0    0 -0.20348779277E+01 -0.32237011103E+01  0.11868785463E+02  0.12465995575E+02  0.51100000000E-03 0.  1.
         12    1    3    3    0    0 -0.71751325141E+01 -0.11391448997E+02  0.13818842371E+02  0.19292693988E+02  0.00000000000E+00 0. -1.
</event>
<event>
 7    1  0.2497395E-009  0.4778728E+02  0.7816164E-02  0.1312668E+00
        -11   -1    0    0    0    0  0.00000000000E+00  0.00000000000E+00  0.45593999997E+02  0.45594000000E+02  0.51100000000E-03 0.  1.
         11   -1    0    0    0    0 -0.00000000000E+00 -0.00000000000E+00 -0.45593999997E+02  0.45594000000E+02  0.51100000000E-03 0. -1.
    9900012    2    1    2    0    0  0.35384982922E+02  0.11934906400E+02  0.22115235884E+02  0.47787278055E+02  0.20000031963E+02 0.  0.
        -12    1    1    2    0    0 -0.35384982922E+02 -0.11934906400E+02 -0.22115235884E+02  0.43400721945E+02  0.00000000000E+00 0.  1.
         11    1    3    3    0    0  0.17352019995E+02  0.14183387299E+01  0.42394931640E+01  0.17918637928E+02  0.51100000000E-03 0. -1.
        -11    1    3    3    0    0  0.12354361805E+02  0.12507036261E+02  0.15365998840E+02  0.23348878608E+02  0.51100000000E-03 0.  1.
         12    1    3    3    0    0  0.56786011226E+01 -0.19904685904E+01  0.25097438797E+01  0.65197615187E+01  0.00000000000E+00 0. -1.
</event>
<event>
 7    1  0.2497395E-009  0.4778727E+02  0.7816164E-02  0.1312668E+00
        -11   -1    0    0    0    0  0.00000000000E+00  0.00000000000E+00  0.45593999997E+02  0.45594000000E+02  0.51100000000E-03 0.  1.
         11   -1    0    0    0    0 -0.00000000000E+00 -0.00000000000E+00 -0.45593999997E+02  0.45594000000E+02  0.51100000000E-03 0. -1.
    9900012    2    1    2    0    0  0.42629982495E+02  0.81170755008E+01 -0.64878489661E+00  0.47787271388E+02  0.20000001565E+02 0.  0.
        -12    1    1    2    0    0 -0.42629982495E+02 -0.81170755008E+01  0.64878489661E+00  0.43400728612E+02  0.00000000000E+00 0.  1.
         11    1    3    3    0    0  0.33984521929E+01 -0.39713624734E+01 -0.24036649762E+01  0.57531558975E+01  0.51100000000E-03 0. -1.
        -11    1    3    3    0    0  0.38846831358E+01  0.34962732219E+01  0.21614989712E+01  0.56556845361E+01  0.51100000000E-03 0.  1.
         12    1    3    3    0    0  0.35346847167E+02  0.85921647523E+01 -0.40661889163E+00  0.36378430954E+02  0.00000000000E+00 0. -1.
</event>
<event>
 7    1  0.2497395E-009  0.4778727E+02  0.7816164E-02  0.1312668E+00
        -11   -1    0    0    0    0  0.00000000000E+00  0.00000000000E+00  0.45593999997E+02  0.45594000000E+02  0.51100000000E-03 0.  1.
         11   -1    0    0    0    0 -0.00000000000E+00 -0.00000000000E+00 -0.45593999997E+02  0.45594000000E+02  0.51100000000E-03 0. -1.
    9900012    2    1    2    0    0  0.25725103723E+02  0.30658499743E+02 -0.16789844099E+02  0.47787269212E+02  0.19999991643E+02 0.  0.
        -12    1    1    2    0    0 -0.25725103723E+02 -0.30658499743E+02  0.16789844099E+02  0.43400730788E+02  0.00000000000E+00 0.  1.
         11    1    3    3    0    0  0.16238577464E+02  0.19333125598E+02 -0.12238311853E+02  0.28057751526E+02  0.51100000000E-03 0. -1.
        -11    1    3    3    0    0  0.10257084246E+01  0.50586956556E+01  0.37014328006E+01  0.63516206236E+01  0.51100000000E-03 0.  1.
        -12    1    3    3    0    0  0.84608178347E+01  0.62666784900E+01 -0.82529650466E+01  0.13377897062E+02  0.00000000000E+00 0.  1.
</event>
<event>
 7    1  0.2497395E-009  0.4778726E+02  0.7816164E-02  0.1312668E+00
        -11   -1    0    0    0    0  0.00000000000E+00  0.00000000000E+00  0.45593999997E+02  0.45594000000E+02  0.51100000000E-03 0.  1.
         11   -1    0    0    0    0 -0.00000000000E+00 -0.00000000000E+00 -0.45593999997E+02  0.45594000000E+02  0.51100000000E-03 0. -1.
    9900012    2    1    2    0    0 -0.20616972840E+01 -0.32003060151E+02 -0.29243424952E+02  0.47787258559E+02  0.19999943073E+02 0.  0.
        -12    1    1    2    0    0  0.20616972840E+01  0.32003060151E+02  0.29243424952E+02  0.43400741441E+02  0.00000000000E+00 0.  1.
         11    1    3    3    0    0  0.67513428726E+01 -0.15877329813E+02 -0.70836673992E+01  0.18650699093E+02  0.51100000000E-03 0. -1.
        -11    1    3    3    0    0 -0.21718607974E+01 -0.64148363594E+01 -0.11019628831E+02  0.12934424018E+02  0.51100000000E-03 0.  1.
         12    1    3    3    0    0 -0.66411793592E+01 -0.97108939791E+01 -0.11140128721E+02  0.16202135448E+02  0.00000000000E+00 0. -1.
</event>
<event>
 7    1  0.2497395E-009  0.4778728E+02  0.7816164E-02  0.1312668E+00
        -11   -1    0    0    0    0  0.00000000000E+00  0.00000000000E+00  0.45593999997E+02  0.45594000000E+02  0.51100000000E-03 0. -1.
         11   -1    0    0    0    0 -0.00000000000E+00 -0.00000000000E+00 -0.45593999997E+02  0.45594000000E+02  0.51100000000E-03 0.  1.
    9900012    2    1    2    0    0 -0.39388943783E+02 -0.80595511399E+01 -0.16345569252E+02  0.47787275454E+02  0.20000020107E+02 0.  0.
        -12    1    1    2    0    0  0.39388943783E+02  0.80595511399E+01  0.16345569252E+02  0.43400724546E+02  0.00000000000E+00 0.  1.
         11    1    3    3    0    0 -0.94302862043E+01  0.25367063334E+01 -0.26286431077E+01  0.10113107424E+02  0.51100000000E-03 0. -1.
        -11    1    3    3    0    0 -0.15251037024E+02 -0.29588013316E+01 -0.14267103377E+02  0.21092626073E+02  0.51100000000E-03 0.  1.
        -12    1    3    3    0    0 -0.14707620555E+02 -0.76374561417E+01  0.55017723291E+00  0.16581541958E+02  0.00000000000E+00 0.  1.
</event>
<event>
 7    1  0.2497395E-009  0.4778727E+02  0.7816164E-02  0.1312668E+00
        -11   -1    0    0    0    0  0.00000000000E+00  0.00000000000E+00  0.45593999997E+02  0.45594000000E+02  0.51100000000E-03 0.  1.
         11   -1    0    0    0    0 -0.00000000000E+00 -0.00000000000E+00 -0.45593999997E+02  0.45594000000E+02  0.51100000000E-03 0. -1.
    9900012    2    1    2    0    0 -0.21303705047E+00 -0.27959068668E+02 -0.33194402901E+02  0.47787270864E+02  0.19999999179E+02 0.  0.
        -12    1    1    2    0    0  0.21303705047E+00  0.27959068668E+02  0.33194402901E+02  0.43400729136E+02  0.00000000000E+00 0.  1.
         11    1    3    3    0    0  0.89369858752E+00 -0.12901691058E+02 -0.39170672648E+01  0.13512799323E+02  0.51100000000E-03 0.  1.
        -11    1    3    3    0    0  0.58339790142E+00 -0.91619670400E+01 -0.81539659495E+01  0.12278809149E+02  0.51100000000E-03 0. -1.
         12    1    3    3    0    0 -0.16901335394E+01 -0.58954105700E+01 -0.21123369687E+02  0.21995662393E+02  0.00000000000E+00 0. -1.
</event>
<event>
 7    1  0.2497395E-009  0.4778727E+02  0.7816164E-02  0.1312668E+00
        -11   -1    0    0    0    0  0.00000000000E+00  0.00000000000E+00  0.45593999997E+02  0.45594000000E+02  0.51100000000E-03 0.  1.
         11   -1    0    0    0    0 -0.00000000000E+00 -0.00000000000E+00 -0.45593999997E+02  0.45594000000E+02  0.51100000000E-03 0. -1.
    9900012    2    1    2    0    0 -0.42387310760E+01 -0.30587818590E+02 -0.30496591267E+02  0.47787267678E+02  0.19999984651E+02 0.  0.
        -12    1    1    2    0    0  0.42387310760E+01  0.30587818590E+02  0.30496591267E+02  0.43400732322E+02  0.00000000000E+00 0.  1.
         11    1    3    3    0    0 -0.48198087145E+01 -0.24040405668E+02 -0.28124879247E+02  0.37311935002E+02  0.51100000000E-03 0. -1.
        -11    1    3    3    0    0 -0.23958448451E+01 -0.50667908764E+01  0.10523813099E+01  0.57026264992E+01  0.51100000000E-03 0.  1.
        -12    1    3    3    0    0  0.29769224836E+01 -0.14806220456E+01 -0.34240933298E+01  0.47727061764E+01  0.00000000000E+00 0.  1.
</event>
<event>
 7    1  0.2497395E-009  0.4778727E+02  0.7816164E-02  0.1312668E+00
        -11   -1    0    0    0    0  0.00000000000E+00  0.00000000000E+00  0.45593999997E+02  0.45594000000E+02  0.51100000000E-03 0.  1.
         11   -1    0    0    0    0 -0.00000000000E+00 -0.00000000000E+00 -0.45593999997E+02  0.45594000000E+02  0.51100000000E-03 0. -1.
    9900012    2    1    2    0    0  0.59214535966E+01  0.39213455223E+02 -0.17631351718E+02  0.47787271358E+02  0.20000001430E+02 0.  0.
        -12    1    1    2    0    0 -0.59214535966E+01 -0.39213455223E+02  0.17631351718E+02  0.43400728642E+02  0.00000000000E+00 0.  1.
         11    1    3    3    0    0  0.55613325554E+01  0.12726786505E+02 -0.21884413842E+01  0.14060184583E+02  0.51100000000E-03 0. -1.
        -11    1    3    3    0    0 -0.31750743456E+01  0.14920975184E+02 -0.15338113048E+02  0.21632713876E+02  0.51100000000E-03 0.  1.
        -12    1    3    3    0    0  0.35351953869E+01  0.11565693534E+02 -0.10479728655E+00  0.12094372899E+02  0.00000000000E+00 0.  1.
</event>
<event>
 7    1  0.2497395E-009  0.4778727E+02  0.7816164E-02  0.1312668E+00
        -11   -1    0    0    0    0  0.00000000000E+00  0.00000000000E+00  0.45593999997E+02  0.45594000000E+02  0.51100000000E-03 0.  1.
         11   -1    0    0    0    0 -0.00000000000E+00 -0.00000000000E+00 -0.45593999997E+02  0.45594000000E+02  0.51100000000E-03 0. -1.
    9900012    2    1    2    0    0 -0.28685995521E+02 -0.22576267851E+02 -0.23474434584E+02  0.47787270880E+02  0.19999999250E+02 0.  0.
        -12    1    1    2    0    0  0.28685995521E+02  0.22576267851E+02  0.23474434584E+02  0.43400729120E+02  0.00000000000E+00 0.  1.
         11    1    3    3    0    0 -0.12864049632E+02 -0.10507863983E+02 -0.24172872055E+01  0.16785179657E+02  0.51100000000E-03 0.  1.
        -11    1    3    3    0    0 -0.91096464012E+00 -0.68791624777E+00 -0.81573124359E+01  0.82367974224E+01  0.51100000000E-03 0. -1.
         12    1    3    3    0    0 -0.14910981250E+02 -0.11380487620E+02 -0.12899834942E+02  0.22765293801E+02  0.00000000000E+00 0. -1.
</event>
<event>
 7    1  0.2497395E-009  0.4778727E+02  0.7816164E-02  0.1312668E+00
        -11   -1    0    0    0    0  0.00000000000E+00  0.00000000000E+00  0.45593999997E+02  0.45594000000E+02  0.51100000000E-03 0. -1.
         11   -1    0    0    0    0 -0.00000000000E+00 -0.00000000000E+00 -0.45593999997E+02  0.45594000000E+02  0.51100000000E-03 0.  1.
    9900012    2    1    2    0    0  0.35351379748E+02  0.24174815189E+02  0.70343132313E+01  0.47787270719E+02  0.19999998516E+02 0.  0.
        -12    1    1    2    0    0 -0.35351379748E+02 -0.24174815189E+02 -0.70343132313E+01  0.43400729281E+02  0.00000000000E+00 0.  1.
         11    1    3    3    0    0  0.24546626875E+02  0.62726290088E+01  0.21872282448E+01  0.25429642807E+02  0.51100000000E-03 0. -1.
        -11    1    3    3    0    0  0.41328148574E+01  0.93184837014E+01 -0.57255671939E+00  0.10209902967E+02  0.51100000000E-03 0.  1.
        -12    1    3    3    0    0  0.66719380151E+01  0.85837024787E+01  0.54196417059E+01  0.12147724945E+02  0.00000000000E+00 0.  1.
</event>
<event>
 7    1  0.2497395E-009  0.4778727E+02  0.7816164E-02  0.1312668E+00
        -11   -1    0    0    0    0  0.00000000000E+00  0.00000000000E+00  0.45593999997E+02  0.45594000000E+02  0.51100000000E-03 0. -1.
         11   -1    0    0    0    0 -0.00000000000E+00 -0.00000000000E+00 -0.45593999997E+02  0.45594000000E+02  0.51100000000E-03 0.  1.
    9900012    2    1    2    0    0 -0.20228221931E+02  0.31148567503E+02  0.22454609998E+02  0.47787265788E+02  0.19999976034E+02 0.  0.
        -12    1    1    2    0    0  0.20228221931E+02 -0.31148567503E+02 -0.22454609998E+02  0.43400734212E+02  0.00000000000E+00 0.  1.
         11    1    3    3    0    0 -0.69886710648E+01  0.19344396067E+01  0.18336090329E+01  0.74796859688E+01  0.51100000000E-03 0. -1.
        -11    1    3    3    0    0 -0.54791441474E+01  0.18837805931E+02  0.54602312229E+01  0.20364137059E+02  0.51100000000E-03 0.  1.
        -12    1    3    3    0    0 -0.77604067191E+01  0.10376321965E+02  0.15160769742E+02  0.19943442760E+02  0.00000000000E+00 0.  1.
</event>
<event>
 7    1  0.2497395E-009  0.4778727E+02  0.7816164E-02  0.1312668E+00
        -11   -1    0    0    0    0  0.00000000000E+00  0.00000000000E+00  0.45593999997E+02  0.45594000000E+02  0.51100000000E-03 0.  1.
         11   -1    0    0    0    0 -0.00000000000E+00 -0.00000000000E+00 -0.45593999997E+02  0.45594000000E+02  0.51100000000E-03 0. -1.
    9900012    2    1    2    0    0 -0.26774366264E+02  0.87654053665E+01 -0.33014001337E+02  0.47787270694E+02  0.19999998400E+02 0.  0.
        -12    1    1    2    0    0  0.26774366264E+02 -0.87654053665E+01  0.33014001337E+02  0.43400729306E+02  0.00000000000E+00 0.  1.
         11    1    3    3    0    0 -0.12518266314E+02  0.51013265018E+00 -0.20477601870E+02  0.24006236803E+02  0.51100000000E-03 0. -1.
        -11    1    3    3    0    0 -0.15903158035E+02  0.91282175155E+01 -0.11563708903E+02  0.21678426011E+02  0.51100000000E-03 0.  1.
        -12    1    3    3    0    0  0.16470580854E+01 -0.87294479920E+00 -0.97269056446E+00  0.21026078791E+01  0.00000000000E+00 0.  1.
</event>
<event>
 7    1  0.2497395E-009  0.4778727E+02  0.7816164E-02  0.1312668E+00
        -11   -1    0    0    0    0  0.00000000000E+00  0.00000000000E+00  0.45593999997E+02  0.45594000000E+02  0.51100000000E-03 0. -1.
         11   -1    0    0    0    0 -0.00000000000E+00 -0.00000000000E+00 -0.45593999997E+02  0.45594000000E+02  0.51100000000E-03 0.  1.
    9900012    2    1    2    0    0  0.13274397259E+02  0.17838017923E+02  0.37272226029E+02  0.47787270292E+02  0.19999996569E+02 0.  0.
        -12    1    1    2    0    0 -0.13274397259E+02 -0.17838017923E+02 -0.37272226029E+02  0.43400729708E+02  0.00000000000E+00 0.  1.
         11    1    3    3    0    0  0.78609485432E+01  0.34715279436E+01  0.27222080952E+02  0.28546238104E+02  0.51100000000E-03 0. -1.
        -11    1    3    3    0    0  0.56118584844E+01  0.71462965490E+01  0.45472957403E+01  0.10160728755E+02  0.51100000000E-03 0.  1.
         12    1    3    3    0    0 -0.19840976842E+00  0.72201934309E+01  0.55028493367E+01  0.90803034332E+01  0.00000000000E+00 0. -1.
</event>
<event>
 7    1  0.2497395E-009  0.4778727E+02  0.7816164E-02  0.1312668E+00
        -11   -1    0    0    0    0  0.00000000000E+00  0.00000000000E+00  0.45593999997E+02  0.45594000000E+02  0.51100000000E-03 0.  1.
         11   -1    0    0    0    0 -0.00000000000E+00 -0.00000000000E+00 -0.45593999997E+02  0.45594000000E+02  0.51100000000E-03 0. -1.
    9900012    2    1    2    0    0  0.24641334516E+02 -0.32798858232E+02 -0.14165552382E+02  0.47787270256E+02  0.19999996404E+02 0.  0.
        -12    1    1    2    0    0 -0.24641334516E+02  0.32798858232E+02  0.14165552382E+02  0.43400729744E+02  0.00000000000E+00 0.  1.
         11    1    3    3    0    0  0.17286798566E+02 -0.20467562941E+02 -0.10942600375E+02  0.28939506572E+02  0.51100000000E-03 0. -1.
        -11    1    3    3    0    0  0.49427241158E+01 -0.78253271639E+00  0.26568630166E+01  0.56658450815E+01  0.51100000000E-03 0.  1.
        -12    1    3    3    0    0  0.24118118340E+01 -0.11548762575E+02 -0.58798150236E+01  0.13181918603E+02  0.00000000000E+00 0.  1.
</event>
<event>
 7    1  0.2497395E-009  0.4778729E+02  0.7816164E-02  0.1312668E+00
        -11   -1    0    0    0    0  0.00000000000E+00  0.00000000000E+00  0.45593999997E+02  0.45594000000E+02  0.51100000000E-03 0. -1.
         11   -1    0    0    0    0 -0.00000000000E+00 -0.00000000000E+00 -0.45593999997E+02  0.45594000000E+02  0.51100000000E-03 0.  1.
    9900012    2    1    2    0    0  0.37965457652E+02 -0.64321628682E+01  0.20021813208E+02  0.47787289199E+02  0.20000082775E+02 0.  0.
        -12    1    1    2    0    0 -0.37965457652E+02  0.64321628682E+01 -0.20021813208E+02  0.43400710801E+02  0.00000000000E+00 0.  1.
         11    1    3    3    0    0  0.74397736779E+01 -0.11239707727E+01  0.29805346890E+01  0.80930297151E+01  0.51100000000E-03 0. -1.
        -11    1    3    3    0    0  0.32600866595E+02 -0.31897346817E+01  0.14643605416E+02  0.35880720310E+02  0.51100000000E-03 0.  1.
        -12    1    3    3    0    0 -0.20751826216E+01 -0.21184574137E+01  0.23976731028E+01  0.38135391744E+01  0.00000000000E+00 0.  1.
</event>
<event>
 7    1  0.2497395E-009  0.4778724E+02  0.7816164E-02  0.1312668E+00
        -11   -1    0    0    0    0  0.00000000000E+00  0.00000000000E+00  0.45593999997E+02  0.45594000000E+02  0.51100000000E-03 0.  1.
         11   -1    0    0    0    0 -0.00000000000E+00 -0.00000000000E+00 -0.45593999997E+02  0.45594000000E+02  0.51100000000E-03 0. -1.
    9900012    2    1    2    0    0 -0.36006949628E+02 -0.24203986607E+02 -0.11370919235E+01  0.47787235407E+02  0.19999837515E+02 0.  0.
        -12    1    1    2    0    0  0.36006949628E+02  0.24203986607E+02  0.11370919235E+01  0.43400764593E+02  0.00000000000E+00 0.  1.
         11    1    3    3    0    0 -0.25637318065E+02 -0.76861864371E+01  0.18508790401E+00  0.26765346949E+02  0.51100000000E-03 0. -1.
        -11    1    3    3    0    0  0.11539590719E+01 -0.20590921616E+01  0.59328378239E+00  0.24338175727E+01  0.51100000000E-03 0.  1.
         12    1    3    3    0    0 -0.11523590635E+02 -0.14458708009E+02 -0.19154636099E+01  0.18588070885E+02  0.00000000000E+00 0. -1.
</event>
<event>
 7    1  0.2497395E-009  0.4778727E+02  0.7816164E-02  0.1312668E+00
        -11   -1    0    0    0    0  0.00000000000E+00  0.00000000000E+00  0.45593999997E+02  0.45594000000E+02  0.51100000000E-03 0.  1.
         11   -1    0    0    0    0 -0.00000000000E+00 -0.00000000000E+00 -0.45593999997E+02  0.45594000000E+02  0.51100000000E-03 0. -1.
    9900012    2    1    2    0    0  0.96905240625E+01 -0.17470819999E+02 -0.38529049951E+02  0.47787268460E+02  0.19999988219E+02 0.  0.
        -12    1    1    2    0    0 -0.96905240625E+01  0.17470819999E+02  0.38529049951E+02  0.43400731540E+02  0.00000000000E+00 0.  1.
         11    1    3    3    0    0  0.16998080855E+01 -0.15067594927E+02 -0.32673444779E+02  0.36020490813E+02  0.51100000000E-03 0. -1.
        -11    1    3    3    0    0  0.15813263483E+01 -0.28451511023E+00  0.11974459030E+01  0.20038509973E+01  0.51100000000E-03 0.  1.
         12    1    3    3    0    0  0.64093896287E+01 -0.21187099615E+01 -0.70530510754E+01  0.97629266506E+01  0.00000000000E+00 0. -1.
</event>
<event>
 7    1  0.2497395E-009  0.4778728E+02  0.7816164E-02  0.1312668E+00
        -11   -1    0    0    0    0  0.00000000000E+00  0.00000000000E+00  0.45593999997E+02  0.45594000000E+02  0.51100000000E-03 0.  1.
         11   -1    0    0    0    0 -0.00000000000E+00 -0.00000000000E+00 -0.45593999997E+02  0.45594000000E+02  0.51100000000E-03 0. -1.
    9900012    2    1    2    0    0 -0.33775176157E+02 -0.20948226238E+02 -0.17436510872E+02  0.47787278597E+02  0.20000034434E+02 0.  0.
        -12    1    1    2    0    0  0.33775176157E+02  0.20948226238E+02  0.17436510872E+02  0.43400721403E+02  0.00000000000E+00 0.  1.
         11    1    3    3    0    0 -0.85112634944E+01 -0.61373723366E+01 -0.49697221874E+01  0.11610645303E+02  0.51100000000E-03 0. -1.
        -11    1    3    3    0    0 -0.22374718028E+02 -0.60383913331E+01 -0.13600621109E+02  0.26871305728E+02  0.51100000000E-03 0.  1.
        -12    1    3    3    0    0 -0.28891946348E+01 -0.87724625680E+01  0.11338324244E+01  0.93053275660E+01  0.00000000000E+00 0.  1.
</event>
<event>
 7    1  0.2497395E-009  0.4778726E+02  0.7816164E-02  0.1312668E+00
        -11   -1    0    0    0    0  0.00000000000E+00  0.00000000000E+00  0.45593999997E+02  0.45594000000E+02  0.51100000000E-03 0.  1.
         11   -1    0    0    0    0 -0.00000000000E+00 -0.00000000000E+00 -0.45593999997E+02  0.45594000000E+02  0.51100000000E-03 0. -1.
    9900012    2    1    2    0    0 -0.28519867049E+01 -0.39756753055E+02 -0.17172386062E+02  0.47787261703E+02  0.19999957409E+02 0.  0.
        -12    1    1    2    0    0  0.28519867049E+01  0.39756753055E+02  0.17172386062E+02  0.43400738297E+02  0.00000000000E+00 0.  1.
         11    1    3    3    0    0 -0.74018575055E+01 -0.18952014766E+02 -0.21781295722E+01  0.20462419381E+02  0.51100000000E-03 0. -1.
        -11    1    3    3    0    0 -0.17705635523E+01 -0.23306969752E+01 -0.38723537029E+01  0.48540876738E+01  0.51100000000E-03 0.  1.
         12    1    3    3    0    0  0.63204343529E+01 -0.18474041314E+02 -0.11121902787E+02  0.22470754649E+02  0.00000000000E+00 0. -1.
</event>
<event>
 7    1  0.2497395E-009  0.4778727E+02  0.7816164E-02  0.1312668E+00
        -11   -1    0    0    0    0  0.00000000000E+00  0.00000000000E+00  0.45593999997E+02  0.45594000000E+02  0.51100000000E-03 0. -1.
         11   -1    0    0    0    0 -0.00000000000E+00 -0.00000000000E+00 -0.45593999997E+02  0.45594000000E+02  0.51100000000E-03 0.  1.
    9900012    2    1    2    0    0 -0.12144576233E+02  0.35918841537E+02  0.21117986249E+02  0.47787271291E+02  0.20000001123E+02 0.  0.
        -12    1    1    2    0    0  0.12144576233E+02 -0.35918841537E+02 -0.21117986249E+02  0.43400728709E+02  0.00000000000E+00 0.  1.
         11    1    3    3    0    0 -0.66424410346E+01  0.82644492325E+01  0.92630814175E+01  0.14079340241E+02  0.51100000000E-03 0. -1.
        -11    1    3    3    0    0 -0.56036420854E+00  0.94828072280E+01 -0.27356593035E+01  0.98854171918E+01  0.51100000000E-03 0.  1.
        -12    1    3    3    0    0 -0.49417709898E+01  0.18171585077E+02  0.14590564135E+02  0.23822513858E+02  0.00000000000E+00 0.  1.
</event>
<event>
 7    1  0.2497395E-009  0.4778727E+02  0.7816164E-02  0.1312668E+00
        -11   -1    0    0    0    0  0.00000000000E+00  0.00000000000E+00  0.45593999997E+02  0.45594000000E+02  0.51100000000E-03 0. -1.
         11   -1    0    0    0    0 -0.00000000000E+00 -0.00000000000E+00 -0.45593999997E+02  0.45594000000E+02  0.51100000000E-03 0.  1.
    9900012    2    1    2    0    0 -0.32852567649E+02 -0.27784867902E+02  0.56862300413E+01  0.47787270771E+02  0.19999998755E+02 0.  0.
        -12    1    1    2    0    0  0.32852567649E+02  0.27784867902E+02 -0.56862300413E+01  0.43400729229E+02  0.00000000000E+00 0.  1.
         11    1    3    3    0    0 -0.28541290088E+02 -0.23267951236E+02  0.12195635618E+01  0.36844132913E+02  0.51100000000E-03 0. -1.
        -11    1    3    3    0    0  0.13992574883E+01  0.10548108985E+01 -0.91144817228E-01  0.17546666889E+01  0.51100000000E-03 0.  1.
         12    1    3    3    0    0 -0.57105350498E+01 -0.55717275649E+01  0.45578112967E+01  0.91884711693E+01  0.00000000000E+00 0. -1.
</event>
<event>
 7    1  0.2497395E-009  0.4778728E+02  0.7816164E-02  0.1312668E+00
        -11   -1    0    0    0    0  0.00000000000E+00  0.00000000000E+00  0.45593999997E+02  0.45594000000E+02  0.51100000000E-03 0.  1.
         11   -1    0    0    0    0 -0.00000000000E+00 -0.00000000000E+00 -0.45593999997E+02  0.45594000000E+02  0.51100000000E-03 0. -1.
    9900012    2    1    2    0    0 -0.14809284053E+01  0.29339700760E+02 -0.31947013248E+02  0.47787275984E+02  0.20000022524E+02 0.  0.
        -12    1    1    2    0    0  0.14809284053E+01 -0.29339700760E+02  0.31947013248E+02  0.43400724016E+02  0.00000000000E+00 0.  1.
         11    1    3    3    0    0  0.86253478026E+01  0.14964572612E+02 -0.14056577005E+02  0.22269315561E+02  0.51100000000E-03 0. -1.
        -11    1    3    3    0    0 -0.75323271191E+01  0.66306875127E+01 -0.98246391015E+01  0.14043699742E+02  0.51100000000E-03 0.  1.
         12    1    3    3    0    0 -0.25739490889E+01  0.77444406350E+01 -0.80657971411E+01  0.11474260681E+02  0.00000000000E+00 0. -1.
</event>
<event>
 7    1  0.2497395E-009  0.4778727E+02  0.7816164E-02  0.1312668E+00
        -11   -1    0    0    0    0  0.00000000000E+00  0.00000000000E+00  0.45593999997E+02  0.45594000000E+02  0.51100000000E-03 0.  1.
         11   -1    0    0    0    0 -0.00000000000E+00 -0.00000000000E+00 -0.45593999997E+02  0.45594000000E+02  0.51100000000E-03 0. -1.
    9900012    2    1    2    0    0 -0.13806329163E+02  0.32501926385E+02 -0.25231587996E+02  0.47787274471E+02  0.20000015623E+02 0.  0.
        -12    1    1    2    0    0  0.13806329163E+02 -0.32501926385E+02  0.25231587996E+02  0.43400725529E+02  0.00000000000E+00 0.  1.
         11    1    3    3    0    0 -0.72621778013E+01  0.21822266633E+01 -0.28861842534E+01  0.81136551216E+01  0.51100000000E-03 0. -1.
        -11    1    3    3    0    0 -0.78776992312E+00 -0.25654065593E+00 -0.28242947883E+01  0.29433035644E+01  0.51100000000E-03 0.  1.
         12    1    3    3    0    0 -0.57563814382E+01  0.30576240377E+02 -0.19521108954E+02  0.36730315785E+02  0.00000000000E+00 0. -1.
</event>
<event>
 7    1  0.2497395E-009  0.4778727E+02  0.7816164E-02  0.1312668E+00
        -11   -1    0    0    0    0  0.00000000000E+00  0.00000000000E+00  0.45593999997E+02  0.45594000000E+02  0.51100000000E-03 0.  1.
         11   -1    0    0    0    0 -0.00000000000E+00 -0.00000000000E+00 -0.45593999997E+02  0.45594000000E+02  0.51100000000E-03 0. -1.
    9900012    2    1    2    0    0  0.97246544423E+00  0.13072532861E+02 -0.41373746309E+02  0.47787266272E+02  0.19999978241E+02 0.  0.
        -12    1    1    2    0    0 -0.97246544423E+00 -0.13072532861E+02  0.41373746309E+02  0.43400733728E+02  0.00000000000E+00 0.  1.
         11    1    3    3    0    0 -0.43629027194E+01  0.12847103723E+02 -0.14105629232E+02  0.19571708421E+02  0.51100000000E-03 0. -1.
        -11    1    3    3    0    0  0.39956083929E+01  0.16289329928E+01 -0.24226526309E+02  0.24607781013E+02  0.51100000000E-03 0.  1.
        -12    1    3    3    0    0  0.13397597707E+01 -0.14035038551E+01 -0.30415907682E+01  0.36077768384E+01  0.00000000000E+00 0.  1.
</event>
<event>
 7    1  0.2497395E-009  0.4778727E+02  0.7816164E-02  0.1312668E+00
        -11   -1    0    0    0    0  0.00000000000E+00  0.00000000000E+00  0.45593999997E+02  0.45594000000E+02  0.51100000000E-03 0.  1.
         11   -1    0    0    0    0 -0.00000000000E+00 -0.00000000000E+00 -0.45593999997E+02  0.45594000000E+02  0.51100000000E-03 0. -1.
    9900012    2    1    2    0    0  0.39278571961E+02 -0.29022652509E+01 -0.18231673720E+02  0.47787270910E+02  0.19999999389E+02 0.  0.
        -12    1    1    2    0    0 -0.39278571961E+02  0.29022652509E+01  0.18231673720E+02  0.43400729090E+02  0.00000000000E+00 0.  1.
         11    1    3    3    0    0  0.25002385994E+02 -0.72331088467E+01 -0.62462806387E+01  0.26766643253E+02  0.51100000000E-03 0. -1.
        -11    1    3    3    0    0 -0.15993866039E+00 -0.15181800477E+01 -0.31797018594E+00  0.15593448408E+01  0.51100000000E-03 0.  1.
         12    1    3    3    0    0  0.14436124628E+02  0.58490236435E+01 -0.11667422895E+02  0.19461282817E+02  0.00000000000E+00 0. -1.
</event>
<event>
 7    1  0.2497395E-009  0.4778727E+02  0.7816164E-02  0.1312668E+00
        -11   -1    0    0    0    0  0.00000000000E+00  0.00000000000E+00  0.45593999997E+02  0.45594000000E+02  0.51100000000E-03 0.  1.
         11   -1    0    0    0    0 -0.00000000000E+00 -0.00000000000E+00 -0.45593999997E+02  0.45594000000E+02  0.51100000000E-03 0. -1.
    9900012    2    1    2    0    0 -0.27087846472E+01 -0.15782023503E+02 -0.40338739573E+02  0.47787266245E+02  0.19999978117E+02 0.  0.
        -12    1    1    2    0    0  0.27087846472E+01  0.15782023503E+02  0.40338739573E+02  0.43400733755E+02  0.00000000000E+00 0.  1.
         11    1    3    3    0    0  0.18473227806E+01 -0.95254344688E+01 -0.25343730760E+02  0.27137634244E+02  0.51100000000E-03 0. -1.
        -11    1    3    3    0    0 -0.63956904900E+01  0.11965528782E+01 -0.73306035614E+01  0.98017521123E+01  0.51100000000E-03 0.  1.
        -12    1    3    3    0    0  0.18395830623E+01 -0.74531419123E+01 -0.76644052519E+01  0.10847879888E+02  0.00000000000E+00 0.  1.
</event>
<event>
 7    1  0.2497395E-009  0.4778728E+02  0.7816164E-02  0.1312668E+00
        -11   -1    0    0    0    0  0.00000000000E+00  0.00000000000E+00  0.45593999997E+02  0.45594000000E+02  0.51100000000E-03 0.  1.
         11   -1    0    0    0    0 -0.00000000000E+00 -0.00000000000E+00 -0.45593999997E+02  0.45594000000E+02  0.51100000000E-03 0. -1.
    9900012    2    1    2    0    0 -0.70545833319E+01 -0.42626198468E+02 -0.41064517673E+01  0.47787275490E+02  0.20000020270E+02 0.  0.
        -12    1    1    2    0    0  0.70545833319E+01  0.42626198468E+02  0.41064517673E+01  0.43400724510E+02  0.00000000000E+00 0.  1.
         11    1    3    3    0    0  0.79714390477E+00 -0.20696174620E+01  0.77849724258E+00  0.23504920893E+01  0.51100000000E-03 0. -1.
        -11    1    3    3    0    0 -0.97162832451E+01 -0.39325108384E+02 -0.49480006704E+00  0.40510679294E+02  0.51100000000E-03 0.  1.
        -12    1    3    3    0    0  0.18645560084E+01 -0.12314726223E+01 -0.43901489429E+01  0.49261041066E+01  0.00000000000E+00 0.  1.
</event>
<event>
 7    1  0.2497395E-009  0.4778727E+02  0.7816164E-02  0.1312668E+00
        -11   -1    0    0    0    0  0.00000000000E+00  0.00000000000E+00  0.45593999997E+02  0.45594000000E+02  0.51100000000E-03 0.  1.
         11   -1    0    0    0    0 -0.00000000000E+00 -0.00000000000E+00 -0.45593999997E+02  0.45594000000E+02  0.51100000000E-03 0. -1.
    9900012    2    1    2    0    0 -0.21054942491E+02 -0.31076168073E+02 -0.21784964654E+02  0.47787268320E+02  0.19999987578E+02 0.  0.
        -12    1    1    2    0    0  0.21054942491E+02  0.31076168073E+02  0.21784964654E+02  0.43400731680E+02  0.00000000000E+00 0.  1.
         11    1    3    3    0    0 -0.17727333994E+01 -0.16709966802E+02 -0.50265699314E+01  0.17539440691E+02  0.51100000000E-03 0. -1.
        -11    1    3    3    0    0 -0.22003750046E+01  0.29838881088E+00 -0.34273721563E+01  0.40838176014E+01  0.51100000000E-03 0.  1.
         12    1    3    3    0    0 -0.17081834087E+02 -0.14664590082E+02 -0.13331022566E+02  0.26164010027E+02  0.00000000000E+00 0. -1.
</event>
<event>
 7    1  0.2497395E-009  0.4778726E+02  0.7816164E-02  0.1312668E+00
        -11   -1    0    0    0    0  0.00000000000E+00  0.00000000000E+00  0.45593999997E+02  0.45594000000E+02  0.51100000000E-03 0.  1.
         11   -1    0    0    0    0 -0.00000000000E+00 -0.00000000000E+00 -0.45593999997E+02  0.45594000000E+02  0.51100000000E-03 0. -1.
    9900012    2    1    2    0    0 -0.41691622890E+02 -0.12033217547E+02 -0.79671216443E+00  0.47787256988E+02  0.19999935911E+02 0.  0.
        -12    1    1    2    0    0  0.41691622890E+02  0.12033217547E+02  0.79671216443E+00  0.43400743012E+02  0.00000000000E+00 0.  1.
         11    1    3    3    0    0 -0.88978280214E+01 -0.94646365766E+00  0.40184504461E+01  0.98089286470E+01  0.51100000000E-03 0. -1.
        -11    1    3    3    0    0 -0.17643537897E+02 -0.28069430699E+01  0.44120250671E+01  0.18402155428E+02  0.51100000000E-03 0.  1.
         12    1    3    3    0    0 -0.15150256971E+02 -0.82798108194E+01 -0.92271876777E+01  0.19576172913E+02  0.00000000000E+00 0. -1.
</event>
<event>
 7    1  0.2497395E-009  0.4778727E+02  0.7816164E-02  0.1312668E+00
        -11   -1    0    0    0    0  0.00000000000E+00  0.00000000000E+00  0.45593999997E+02  0.45594000000E+02  0.51100000000E-03 0.  1.
         11   -1    0    0    0    0 -0.00000000000E+00 -0.00000000000E+00 -0.45593999997E+02  0.45594000000E+02  0.51100000000E-03 0. -1.
    9900012    2    1    2    0    0  0.90597615445E+01  0.38820395514E+02 -0.17161607829E+02  0.47787272237E+02  0.20000005437E+02 0.  0.
        -12    1    1    2    0    0 -0.90597615445E+01 -0.38820395514E+02  0.17161607829E+02  0.43400727763E+02  0.00000000000E+00 0.  1.
         11    1    3    3    0    0  0.10050773959E+01  0.24045403127E+02 -0.57674308740E+01  0.24747825183E+02  0.51100000000E-03 0. -1.
        -11    1    3    3    0    0  0.48335273185E+01  0.11364845021E+01 -0.65345946950E+01  0.82070403589E+01  0.51100000000E-03 0.  1.
         12    1    3    3    0    0  0.32211568301E+01  0.13638507884E+02 -0.48595822603E+01  0.14832406695E+02  0.00000000000E+00 0. -1.
</event>
<event>
 7    1  0.2497395E-009  0.4778727E+02  0.7816164E-02  0.1312668E+00
        -11   -1    0    0    0    0  0.00000000000E+00  0.00000000000E+00  0.45593999997E+02  0.45594000000E+02  0.51100000000E-03 0. -1.
         11   -1    0    0    0    0 -0.00000000000E+00 -0.00000000000E+00 -0.45593999997E+02  0.45594000000E+02  0.51100000000E-03 0.  1.
    9900012    2    1    2    0    0 -0.22132867555E+02 -0.11157986652E+02  0.35626656873E+02  0.47787272215E+02  0.20000005337E+02 0.  0.
        -12    1    1    2    0    0  0.22132867555E+02  0.11157986652E+02 -0.35626656873E+02  0.43400727785E+02  0.00000000000E+00 0.  1.
         11    1    3    3    0    0 -0.43870177335E+01 -0.11840121732E+02  0.18283272539E+02  0.22219641361E+02  0.51100000000E-03 0. -1.
        -11    1    3    3    0    0 -0.30489914450E+01  0.21456246598E+01  0.18487436539E+01  0.41614789884E+01  0.51100000000E-03 0.  1.
         12    1    3    3    0    0 -0.14696858376E+02 -0.14634895798E+01  0.15494640680E+02  0.21406151865E+02  0.00000000000E+00 0. -1.
</event>
<event>
 7    1  0.2497395E-009  0.4778727E+02  0.7816164E-02  0.1312668E+00
        -11   -1    0    0    0    0  0.00000000000E+00  0.00000000000E+00  0.45593999997E+02  0.45594000000E+02  0.51100000000E-03 0.  1.
         11   -1    0    0    0    0 -0.00000000000E+00 -0.00000000000E+00 -0.45593999997E+02  0.45594000000E+02  0.51100000000E-03 0. -1.
    9900012    2    1    2    0    0 -0.34309973864E+02 -0.20817261970E+02  0.16525454434E+02  0.47787270205E+02  0.19999996171E+02 0.  0.
        -12    1    1    2    0    0  0.34309973864E+02  0.20817261970E+02 -0.16525454434E+02  0.43400729795E+02  0.00000000000E+00 0.  1.
         11    1    3    3    0    0 -0.75127109178E+01 -0.27120236682E+01  0.12045839392E+01  0.80775565884E+01  0.51100000000E-03 0. -1.
        -11    1    3    3    0    0 -0.24778392066E+02 -0.85227120563E+01  0.77307345617E+01  0.27319765579E+02  0.51100000000E-03 0.  1.
        -12    1    3    3    0    0 -0.20188708808E+01 -0.95825262460E+01  0.75901359328E+01  0.12389948037E+02  0.00000000000E+00 0.  1.
</event>
<event>
 7    1  0.2497395E-009  0.4778727E+02  0.7816164E-02  0.1312668E+00
        -11   -1    0    0    0    0  0.00000000000E+00  0.00000000000E+00  0.45593999997E+02  0.45594000000E+02  0.51100000000E-03 0. -1.
         11   -1    0    0    0    0 -0.00000000000E+00 -0.00000000000E+00 -0.45593999997E+02  0.45594000000E+02  0.51100000000E-03 0.  1.
    9900012    2    1    2    0    0  0.15839208080E+02 -0.37285865117E+02  0.15572646648E+02  0.47787267590E+02  0.19999984250E+02 0.  0.
        -12    1    1    2    0    0 -0.15839208080E+02  0.37285865117E+02 -0.15572646648E+02  0.43400732410E+02  0.00000000000E+00 0.  1.
         11    1    3    3    0    0  0.13510014843E+02 -0.33948692063E+02  0.13391768273E+02  0.38914954087E+02  0.51100000000E-03 0. -1.
        -11    1    3    3    0    0  0.27860859270E+01 -0.91904711210E+00  0.45776740333E+01  0.54370968543E+01  0.51100000000E-03 0.  1.
         12    1    3    3    0    0 -0.45689269066E+00 -0.24181259411E+01 -0.23967956576E+01  0.34352166485E+01  0.00000000000E+00 0. -1.
</event>
<event>
 7    1  0.2497395E-009  0.4778727E+02  0.7816164E-02  0.1312668E+00
        -11   -1    0    0    0    0  0.00000000000E+00  0.00000000000E+00  0.45593999997E+02  0.45594000000E+02  0.51100000000E-03 0. -1.
         11   -1    0    0    0    0 -0.00000000000E+00 -0.00000000000E+00 -0.45593999997E+02  0.45594000000E+02  0.51100000000E-03 0.  1.
    9900012    2    1    2    0    0  0.16951245745E+02 -0.12838138369E+02  0.37834648005E+02  0.47787272832E+02  0.20000008150E+02 0.  0.
        -12    1    1    2    0    0 -0.16951245745E+02  0.12838138369E+02 -0.37834648005E+02  0.43400727168E+02  0.00000000000E+00 0.  1.
         11    1    3    3    0    0 -0.89931652155E+00  0.22756459909E+01  0.44533500729E+01  0.50813051488E+01  0.51100000000E-03 0. -1.
        -11    1    3    3    0    0  0.74317577488E+01 -0.13494604582E+02  0.14922355968E+02  0.21447892297E+02  0.51100000000E-03 0.  1.
        -12    1    3    3    0    0  0.10418804518E+02 -0.16191797778E+01  0.18458941963E+02  0.21258075387E+02  0.00000000000E+00 0.  1.
</event>
<event>
 7    1  0.2497395E-009  0.4778727E+02  0.7816164E-02  0.1312668E+00
        -11   -1    0    0    0    0  0.00000000000E+00  0.00000000000E+00  0.45593999997E+02  0.45594000000E+02  0.51100000000E-03 0.  1.
         11   -1    0    0    0    0 -0.00000000000E+00 -0.00000000000E+00 -0.45593999997E+02  0.45594000000E+02  0.51100000000E-03 0. -1.
    9900012    2    1    2    0    0  0.27802717189E+02  0.23572518176E+02 -0.23557766206E+02  0.47787273682E+02  0.20000012028E+02 0.  0.
        -12    1    1    2    0    0 -0.27802717189E+02 -0.23572518176E+02  0.23557766206E+02  0.43400726318E+02  0.00000000000E+00 0.  1.
         11    1    3    3    0    0  0.61552840265E+01  0.48861551694E+01 -0.19664047918E+01  0.81011592907E+01  0.51100000000E-03 0. -1.
        -11    1    3    3    0    0  0.22733350124E+02  0.16894169664E+02 -0.23536914911E+02  0.36826682450E+02  0.51100000000E-03 0.  1.
        -12    1    3    3    0    0 -0.10859169615E+01  0.17921933420E+01  0.19455534960E+01  0.28594319415E+01  0.00000000000E+00 0.  1.
</event>
<event>
 7    1  0.2497395E-009  0.4778728E+02  0.7816164E-02  0.1312668E+00
        -11   -1    0    0    0    0  0.00000000000E+00  0.00000000000E+00  0.45593999997E+02  0.45594000000E+02  0.51100000000E-03 0.  1.
         11   -1    0    0    0    0 -0.00000000000E+00 -0.00000000000E+00 -0.45593999997E+02  0.45594000000E+02  0.51100000000E-03 0. -1.
    9900012    2    1    2    0    0 -0.18620786915E+02  0.19841709754E+02 -0.33811170364E+02  0.47787281196E+02  0.20000046285E+02 0.  0.
        -12    1    1    2    0    0  0.18620786915E+02 -0.19841709754E+02  0.33811170364E+02  0.43400718804E+02  0.00000000000E+00 0.  1.
         11    1    3    3    0    0 -0.48347387066E+01  0.45398862663E+01 -0.72937884870E+01  0.98582258255E+01  0.51100000000E-03 0. -1.
        -11    1    3    3    0    0 -0.72766792604E+01  0.61478316740E+01 -0.24799315551E+02  0.26565992310E+02  0.51100000000E-03 0.  1.
        -12    1    3    3    0    0 -0.65093689481E+01  0.91539918136E+01 -0.17180663266E+01  0.11363063061E+02  0.00000000000E+00 0.  1.
</event>
<event>
 7    1  0.2497395E-009  0.4778727E+02  0.7816164E-02  0.1312668E+00
        -11   -1    0    0    0    0  0.00000000000E+00  0.00000000000E+00  0.45593999997E+02  0.45594000000E+02  0.51100000000E-03 0.  1.
         11   -1    0    0    0    0 -0.00000000000E+00 -0.00000000000E+00 -0.45593999997E+02  0.45594000000E+02  0.51100000000E-03 0. -1.
    9900012    2    1    2    0    0 -0.36049691474E+02  0.14551163947E+01 -0.24123139357E+02  0.47787268767E+02  0.19999989618E+02 0.  0.
        -12    1    1    2    0    0  0.36049691474E+02 -0.14551163947E+01  0.24123139357E+02  0.43400731233E+02  0.00000000000E+00 0.  1.
         11    1    3    3    0    0 -0.95814148837E+01 -0.38158484345E+01 -0.59880848380E+01  0.11925660180E+02  0.51100000000E-03 0. -1.
        -11    1    3    3    0    0 -0.21658418949E+02 -0.93749841483E+00 -0.81546984842E+01  0.23161716739E+02  0.51100000000E-03 0.  1.
        -12    1    3    3    0    0 -0.48098576414E+01  0.62084632441E+01 -0.99803560347E+01  0.12699891848E+02  0.00000000000E+00 0.  1.
</event>
<event>
 7    1  0.2497395E-009  0.4778727E+02  0.7816164E-02  0.1312668E+00
        -11   -1    0    0    0    0  0.00000000000E+00  0.00000000000E+00  0.45593999997E+02  0.45594000000E+02  0.51100000000E-03 0. -1.
         11   -1    0    0    0    0 -0.00000000000E+00 -0.00000000000E+00 -0.45593999997E+02  0.45594000000E+02  0.51100000000E-03 0.  1.
    9900012    2    1    2    0    0 -0.30043683769E+02  0.23027913543E+02  0.21230063277E+02  0.47787270475E+02  0.19999997403E+02 0.  0.
        -12    1    1    2    0    0  0.30043683769E+02 -0.23027913543E+02 -0.21230063277E+02  0.43400729525E+02  0.00000000000E+00 0.  1.
         11    1    3    3    0    0 -0.10310327243E+02  0.72029653119E+01  0.73748497175E+01  0.14579916521E+02  0.51100000000E-03 0. -1.
        -11    1    3    3    0    0 -0.16658546544E+02  0.92756414468E+01  0.16784139956E+02  0.25401811973E+02  0.51100000000E-03 0.  1.
        -12    1    3    3    0    0 -0.30748099819E+01  0.65493067843E+01 -0.29289263959E+01  0.78055419807E+01  0.00000000000E+00 0.  1.
</event>
<event>
 7    1  0.2497395E-009  0.4778727E+02  0.7816164E-02  0.1312668E+00
        -11   -1    0    0    0    0  0.00000000000E+00  0.00000000000E+00  0.45593999997E+02  0.45594000000E+02  0.51100000000E-03 0. -1.
         11   -1    0    0    0    0 -0.00000000000E+00 -0.00000000000E+00 -0.45593999997E+02  0.45594000000E+02  0.51100000000E-03 0.  1.
    9900012    2    1    2    0    0  0.74701172472E+01 -0.54333317975E+01  0.42406365155E+02  0.47787267843E+02  0.19999985405E+02 0.  0.
        -12    1    1    2    0    0 -0.74701172472E+01  0.54333317975E+01 -0.42406365155E+02  0.43400732157E+02  0.00000000000E+00 0.  1.
         11    1    3    3    0    0  0.68933185348E+01  0.27267502629E+01  0.31546083271E+02  0.32405375749E+02  0.51100000000E-03 0. -1.
        -11    1    3    3    0    0  0.22079964283E+01 -0.60140214732E+01  0.30036869419E+01  0.70757217309E+01  0.51100000000E-03 0.  1.
        -12    1    3    3    0    0 -0.16311977159E+01 -0.21460605872E+01  0.78565949419E+01  0.83061703638E+01  0.00000000000E+00 0.  1.
</event>
<event>
 7    1  0.2497395E-009  0.4778727E+02  0.7816164E-02  0.1312668E+00
        -11   -1    0    0    0    0  0.00000000000E+00  0.00000000000E+00  0.45593999997E+02  0.45594000000E+02  0.51100000000E-03 0.  1.
         11   -1    0    0    0    0 -0.00000000000E+00 -0.00000000000E+00 -0.45593999997E+02  0.45594000000E+02  0.51100000000E-03 0. -1.
    9900012    2    1    2    0    0  0.16347443371E+02 -0.27220497413E+00 -0.40203358093E+02  0.47787274173E+02  0.20000014265E+02 0.  0.
        -12    1    1    2    0    0 -0.16347443371E+02  0.27220497413E+00  0.40203358093E+02  0.43400725827E+02  0.00000000000E+00 0.  1.
         11    1    3    3    0    0  0.17925261892E+02 -0.20609844937E+01 -0.36010445099E+02  0.40277969506E+02  0.51100000000E-03 0. -1.
        -11    1    3    3    0    0 -0.22368474027E+01 -0.87786534867E+00 -0.41103279821E+01  0.47611900041E+01  0.51100000000E-03 0.  1.
         12    1    3    3    0    0  0.65902888093E+00  0.26666448682E+01 -0.82585012091E-01  0.27481146634E+01  0.00000000000E+00 0. -1.
</event>
<event>
 7    1  0.2497395E-009  0.4778726E+02  0.7816164E-02  0.1312668E+00
        -11   -1    0    0    0    0  0.00000000000E+00  0.00000000000E+00  0.45593999997E+02  0.45594000000E+02  0.51100000000E-03 0.  1.
         11   -1    0    0    0    0 -0.00000000000E+00 -0.00000000000E+00 -0.45593999997E+02  0.45594000000E+02  0.51100000000E-03 0. -1.
    9900012    2    1    2    0    0  0.28762432951E+02 -0.12206742765E+02 -0.30122113485E+02  0.47787264534E+02  0.19999970316E+02 0.  0.
        -12    1    1    2    0    0 -0.28762432951E+02  0.12206742765E+02  0.30122113485E+02  0.43400735466E+02  0.00000000000E+00 0.  1.
         11    1    3    3    0    0  0.13016607642E+02 -0.35101428772E+01 -0.18818396487E+02  0.23149194891E+02  0.51100000000E-03 0. -1.
        -11    1    3    3    0    0  0.71843661663E+01 -0.39092799861E+01  0.16957276451E+01  0.83530281772E+01  0.51100000000E-03 0.  1.
        -12    1    3    3    0    0  0.85614591425E+01 -0.47873199014E+01 -0.12999444643E+02  0.16285041465E+02  0.00000000000E+00 0.  1.
</event>
<event>
 7    1  0.2497395E-009  0.4778727E+02  0.7816164E-02  0.1312668E+00
        -11   -1    0    0    0    0  0.00000000000E+00  0.00000000000E+00  0.45593999997E+02  0.45594000000E+02  0.51100000000E-03 0. -1.
         11   -1    0    0    0    0 -0.00000000000E+00 -0.00000000000E+00 -0.45593999997E+02  0.45594000000E+02  0.51100000000E-03 0.  1.
    9900012    2    1    2    0    0  0.12045162590E+02  0.15327142669E+02 -0.38776484039E+02  0.47787274676E+02  0.20000016560E+02 0.  0.
        -12    1    1    2    0    0 -0.12045162590E+02 -0.15327142669E+02  0.38776484039E+02  0.43400725324E+02  0.00000000000E+00 0.  1.
         11    1    3    3    0    0  0.13000164941E+02  0.12726125007E+02 -0.39946523795E+02  0.43894000840E+02  0.51100000000E-03 0. -1.
        -11    1    3    3    0    0  0.11775266947E+00  0.12886845651E+01  0.16824193875E+01  0.21225241709E+01  0.51100000000E-03 0.  1.
         12    1    3    3    0    0 -0.10727550204E+01  0.13123330972E+01 -0.51237963117E+00  0.17707496656E+01  0.00000000000E+00 0. -1.
</event>
<event>
 7    1  0.2497395E-009  0.4778727E+02  0.7816164E-02  0.1312668E+00
        -11   -1    0    0    0    0  0.00000000000E+00  0.00000000000E+00  0.45593999997E+02  0.45594000000E+02  0.51100000000E-03 0.  1.
         11   -1    0    0    0    0 -0.00000000000E+00 -0.00000000000E+00 -0.45593999997E+02  0.45594000000E+02  0.51100000000E-03 0. -1.
    9900012    2    1    2    0    0  0.34381900540E+02 -0.28643093735E+01 -0.26330662934E+02  0.47787272316E+02  0.20000005796E+02 0.  0.
        -12    1    1    2    0    0 -0.34381900540E+02  0.28643093735E+01  0.26330662934E+02  0.43400727684E+02  0.00000000000E+00 0.  1.
         11    1    3    3    0    0  0.15924583178E+00 -0.10885751886E+01  0.24393546817E+01  0.26759683669E+01  0.51100000000E-03 0. -1.
        -11    1    3    3    0    0  0.13976823767E+02 -0.20998011856E+01 -0.15087077804E+02  0.20673187576E+02  0.51100000000E-03 0.  1.
         12    1    3    3    0    0  0.20245830942E+02  0.32406700076E+00 -0.13682939812E+02  0.24438116373E+02  0.00000000000E+00 0. -1.
</event>
<event>
 7    1  0.2497395E-009  0.4778727E+02  0.7816164E-02  0.1312668E+00
        -11   -1    0    0    0    0  0.00000000000E+00  0.00000000000E+00  0.45593999997E+02  0.45594000000E+02  0.51100000000E-03 0.  1.
         11   -1    0    0    0    0 -0.00000000000E+00 -0.00000000000E+00 -0.45593999997E+02  0.45594000000E+02  0.51100000000E-03 0. -1.
    9900012    2    1    2    0    0  0.23037595719E+02 -0.98347014866E+01 -0.35442499466E+02  0.47787274912E+02  0.20000017632E+02 0.  0.
        -12    1    1    2    0    0 -0.23037595719E+02  0.98347014866E+01  0.35442499466E+02  0.43400725088E+02  0.00000000000E+00 0.  1.
         11    1    3    3    0    0  0.10203445275E+02  0.30941529580E+01 -0.92187025966E+01  0.14094983357E+02  0.51100000000E-03 0.  1.
        -11    1    3    3    0    0  0.14730125076E+02 -0.11691879518E+02 -0.24258031034E+02  0.30694115093E+02  0.51100000000E-03 0. -1.
         12    1    3    3    0    0 -0.18959746326E+01 -0.12369749268E+01 -0.19657658347E+01  0.29981764614E+01  0.00000000000E+00 0. -1.
</event>
<event>
 7    1  0.2497395E-009  0.4778732E+02  0.7816164E-02  0.1312668E+00
        -11   -1    0    0    0    0  0.00000000000E+00  0.00000000000E+00  0.45593999997E+02  0.45594000000E+02  0.51100000000E-03 0.  1.
         11   -1    0    0    0    0 -0.00000000000E+00 -0.00000000000E+00 -0.45593999997E+02  0.45594000000E+02  0.51100000000E-03 0. -1.
    9900012    2    1    2    0    0  0.30935556148E+02 -0.17928585063E+02 -0.24600321877E+02  0.47787324510E+02  0.20000243768E+02 0.  0.
        -12    1    1    2    0    0 -0.30935556148E+02  0.17928585063E+02  0.24600321877E+02  0.43400675490E+02  0.00000000000E+00 0.  1.
         11    1    3    3    0    0  0.85757037468E+01 -0.43578087770E+01  0.19496484072E+01  0.98150049039E+01  0.51100000000E-03 0. -1.
        -11    1    3    3    0    0  0.11100618896E+02 -0.93480945401E+01 -0.18449997839E+02  0.23473666776E+02  0.51100000000E-03 0.  1.
         12    1    3    3    0    0  0.11259233506E+02 -0.42226817460E+01 -0.80999724456E+01  0.14498652830E+02  0.00000000000E+00 0. -1.
</event>
<event>
 7    1  0.2497395E-009  0.4778726E+02  0.7816164E-02  0.1312668E+00
        -11   -1    0    0    0    0  0.00000000000E+00  0.00000000000E+00  0.45593999997E+02  0.45594000000E+02  0.51100000000E-03 0.  1.
         11   -1    0    0    0    0 -0.00000000000E+00 -0.00000000000E+00 -0.45593999997E+02  0.45594000000E+02  0.51100000000E-03 0. -1.
    9900012    2    1    2    0    0  0.67832745304E+01 -0.23387087016E+02 -0.35925695746E+02  0.47787259600E+02  0.19999947820E+02 0.  0.
        -12    1    1    2    0    0 -0.67832745304E+01  0.23387087016E+02  0.35925695746E+02  0.43400740400E+02  0.00000000000E+00 0.  1.
         11    1    3    3    0    0  0.87097891840E+01 -0.81058240066E+01 -0.22644600451E+02  0.25580123930E+02  0.51100000000E-03 0. -1.
        -11    1    3    3    0    0 -0.48992960181E+01 -0.57088811454E+01 -0.75632014061E+01  0.10667541478E+02  0.51100000000E-03 0.  1.
        -12    1    3    3    0    0  0.29727813645E+01 -0.95723818638E+01 -0.57178938892E+01  0.11539594192E+02  0.00000000000E+00 0.  1.
</event>
<event>
 7    1  0.2497395E-009  0.4778727E+02  0.7816164E-02  0.1312668E+00
        -11   -1    0    0    0    0  0.00000000000E+00  0.00000000000E+00  0.45593999997E+02  0.45594000000E+02  0.51100000000E-03 0.  1.
         11   -1    0    0    0    0 -0.00000000000E+00 -0.00000000000E+00 -0.45593999997E+02  0.45594000000E+02  0.51100000000E-03 0. -1.
    9900012    2    1    2    0    0  0.68165724099E+01 -0.16761451837E+02 -0.39448844325E+02  0.47787271369E+02  0.20000001480E+02 0.  0.
        -12    1    1    2    0    0 -0.68165724099E+01  0.16761451837E+02  0.39448844325E+02  0.43400728631E+02  0.00000000000E+00 0.  1.
         11    1    3    3    0    0 -0.48294897374E+01 -0.12183234499E+02 -0.14186004080E+02  0.19313153186E+02  0.51100000000E-03 0. -1.
        -11    1    3    3    0    0  0.89571337192E+01 -0.32780778523E+01 -0.22358878112E+02  0.24308341563E+02  0.51100000000E-03 0.  1.
         12    1    3    3    0    0  0.26889284282E+01 -0.13001394857E+01 -0.29039621337E+01  0.41657766200E+01  0.00000000000E+00 0. -1.
</event>
<event>
 7    1  0.2497395E-009  0.4778727E+02  0.7816164E-02  0.1312668E+00
        -11   -1    0    0    0    0  0.00000000000E+00  0.00000000000E+00  0.45593999997E+02  0.45594000000E+02  0.51100000000E-03 0.  1.
         11   -1    0    0    0    0 -0.00000000000E+00 -0.00000000000E+00 -0.45593999997E+02  0.45594000000E+02  0.51100000000E-03 0. -1.
    9900012    2    1    2    0    0  0.15382351833E+02 -0.23046457649E+02 -0.33404604325E+02  0.47787267884E+02  0.19999985589E+02 0.  0.
        -12    1    1    2    0    0 -0.15382351833E+02  0.23046457649E+02  0.33404604325E+02  0.43400732116E+02  0.00000000000E+00 0.  1.
         11    1    3    3    0    0  0.17073065925E+02 -0.83631585786E+01 -0.20509947319E+02  0.27965871000E+02  0.51100000000E-03 0. -1.
        -11    1    3    3    0    0 -0.65148165749E+00 -0.47933958696E+00 -0.78466177970E+00  0.11268935883E+01  0.51100000000E-03 0.  1.
         12    1    3    3    0    0 -0.10392324352E+01 -0.14203959484E+02 -0.12109995227E+02  0.18694503296E+02  0.00000000000E+00 0. -1.
</event>
<event>
 7    1  0.2497395E-009  0.4778729E+02  0.7816164E-02  0.1312668E+00
        -11   -1    0    0    0    0  0.00000000000E+00  0.00000000000E+00  0.45593999997E+02  0.45594000000E+02  0.51100000000E-03 0.  1.
         11   -1    0    0    0    0 -0.00000000000E+00 -0.00000000000E+00 -0.45593999997E+02  0.45594000000E+02  0.51100000000E-03 0. -1.
    9900012    2    1    2    0    0  0.26649733711E+01  0.11024807958E+02 -0.41892404172E+02  0.47787285710E+02  0.20000066866E+02 0.  0.
        -12    1    1    2    0    0 -0.26649733711E+01 -0.11024807958E+02  0.41892404172E+02  0.43400714290E+02  0.00000000000E+00 0.  1.
         11    1    3    3    0    0  0.58999110205E+01  0.11128334448E+02 -0.36876995067E+02  0.38968725191E+02  0.51100000000E-03 0. -1.
        -11    1    3    3    0    0  0.57781470325E+00  0.25452182515E+01 -0.17360711223E+01  0.31346369777E+01  0.51100000000E-03 0.  1.
         12    1    3    3    0    0 -0.38127523527E+01 -0.26487447421E+01 -0.32793379830E+01  0.56839235409E+01  0.00000000000E+00 0. -1.
</event>
<event>
 7    1  0.2497395E-009  0.4778727E+02  0.7816164E-02  0.1312668E+00
        -11   -1    0    0    0    0  0.00000000000E+00  0.00000000000E+00  0.45593999997E+02  0.45594000000E+02  0.51100000000E-03 0.  1.
         11   -1    0    0    0    0 -0.00000000000E+00 -0.00000000000E+00 -0.45593999997E+02  0.45594000000E+02  0.51100000000E-03 0. -1.
    9900012    2    1    2    0    0  0.50239868200E+01 -0.43025386584E+02 -0.26830212135E+01  0.47787274924E+02  0.20000017688E+02 0.  0.
        -12    1    1    2    0    0 -0.50239868200E+01  0.43025386584E+02  0.26830212135E+01  0.43400725076E+02  0.00000000000E+00 0.  1.
         11    1    3    3    0    0 -0.40262455776E+01 -0.26974741182E+02  0.47712023351E+01  0.27687753381E+02  0.51100000000E-03 0. -1.
        -11    1    3    3    0    0  0.66739863526E+01 -0.10799182908E+02 -0.64816308820E+01  0.14253981355E+02  0.51100000000E-03 0.  1.
         12    1    3    3    0    0  0.23762460450E+01 -0.52514624938E+01 -0.97259266657E+00  0.58455401877E+01  0.00000000000E+00 0. -1.
</event>
<event>
 7    1  0.2497395E-009  0.4778728E+02  0.7816164E-02  0.1312668E+00
        -11   -1    0    0    0    0  0.00000000000E+00  0.00000000000E+00  0.45593999997E+02  0.45594000000E+02  0.51100000000E-03 0.  1.
         11   -1    0    0    0    0 -0.00000000000E+00 -0.00000000000E+00 -0.45593999997E+02  0.45594000000E+02  0.51100000000E-03 0. -1.
    9900012    2    1    2    0    0 -0.13551577730E+02  0.30590664072E+02 -0.27643961522E+02  0.47787278855E+02  0.20000035610E+02 0.  0.
        -12    1    1    2    0    0  0.13551577730E+02 -0.30590664072E+02  0.27643961522E+02  0.43400721145E+02  0.00000000000E+00 0.  1.
         11    1    3    3    0    0 -0.58111544852E+01  0.21780426372E+02 -0.13813323923E+02  0.26437935007E+02  0.51100000000E-03 0. -1.
        -11    1    3    3    0    0  0.21805719345E+00 -0.22098815195E+01 -0.43131130909E+00  0.22621129451E+01  0.51100000000E-03 0.  1.
         12    1    3    3    0    0 -0.79584804385E+01  0.11020119219E+02 -0.13399326290E+02  0.19087230902E+02  0.00000000000E+00 0. -1.
</event>
<event>
 7    1  0.2497395E-009  0.4778727E+02  0.7816164E-02  0.1312668E+00
        -11   -1    0    0    0    0  0.00000000000E+00  0.00000000000E+00  0.45593999997E+02  0.45594000000E+02  0.51100000000E-03 0. -1.
         11   -1    0    0    0    0 -0.00000000000E+00 -0.00000000000E+00 -0.45593999997E+02  0.45594000000E+02  0.51100000000E-03 0.  1.
    9900012    2    1    2    0    0 -0.50423890578E+01  0.77013895901E+01  0.42413278775E+02  0.47787270681E+02  0.19999998342E+02 0.  0.
        -12    1    1    2    0    0  0.50423890578E+01 -0.77013895901E+01 -0.42413278775E+02  0.43400729319E+02  0.00000000000E+00 0.  1.
         11    1    3    3    0    0  0.11287461982E+01  0.76144219019E+01  0.14162501127E+02  0.16119240903E+02  0.51100000000E-03 0. -1.
        -11    1    3    3    0    0 -0.35594777794E+01 -0.60611718019E+01  0.99183218560E+01  0.12156512426E+02  0.51100000000E-03 0.  1.
        -12    1    3    3    0    0 -0.26116574765E+01  0.61481394901E+01  0.18332455792E+02  0.19511517351E+02  0.00000000000E+00 0.  1.
</event>
<event>
 7    1  0.2497395E-009  0.4778727E+02  0.7816164E-02  0.1312668E+00
        -11   -1    0    0    0    0  0.00000000000E+00  0.00000000000E+00  0.45593999997E+02  0.45594000000E+02  0.51100000000E-03 0. -1.
         11   -1    0    0    0    0 -0.00000000000E+00 -0.00000000000E+00 -0.45593999997E+02  0.45594000000E+02  0.51100000000E-03 0.  1.
    9900012    2    1    2    0    0  0.13462539190E+02 -0.40969500107E+02  0.48870646171E+01  0.47787270732E+02  0.19999998574E+02 0.  0.
        -12    1    1    2    0    0 -0.13462539190E+02  0.40969500107E+02 -0.48870646171E+01  0.43400729268E+02  0.00000000000E+00 0.  1.
         11    1    3    3    0    0  0.91786867329E+00 -0.25490167639E+02  0.48763815591E+01  0.25968639289E+02  0.51100000000E-03 0. -1.
        -11    1    3    3    0    0  0.11613834850E+02 -0.88604003108E+01 -0.22127868983E+01  0.14774446849E+02  0.51100000000E-03 0.  1.
        -12    1    3    3    0    0  0.93083566743E+00 -0.66189321574E+01  0.22234699563E+01  0.70441845937E+01  0.00000000000E+00 0.  1.
</event>
<event>
 7    1  0.2497395E-009  0.4778727E+02  0.7816164E-02  0.1312668E+00
        -11   -1    0    0    0    0  0.00000000000E+00  0.00000000000E+00  0.45593999997E+02  0.45594000000E+02  0.51100000000E-03 0. -1.
         11   -1    0    0    0    0 -0.00000000000E+00 -0.00000000000E+00 -0.45593999997E+02  0.45594000000E+02  0.51100000000E-03 0.  1.
    9900012    2    1    2    0    0 -0.24210819349E+02  0.21733786314E+02  0.28724585065E+02  0.47787273874E+02  0.20000012902E+02 0.  0.
        -12    1    1    2    0    0  0.24210819349E+02 -0.21733786314E+02 -0.28724585065E+02  0.43400726126E+02  0.00000000000E+00 0.  1.
         11    1    3    3    0    0 -0.22851505423E+02  0.18742363910E+02  0.22903947953E+02  0.37390618304E+02  0.51100000000E-03 0. -1.
        -11    1    3    3    0    0  0.70527938179E+00  0.37943775647E+01 -0.31613784383E+00  0.38722943467E+01  0.51100000000E-03 0.  1.
        -12    1    3    3    0    0 -0.20645933079E+01 -0.80295516115E+00  0.61367749557E+01  0.65243612235E+01  0.00000000000E+00 0.  1.
</event>
<event>
 7    1  0.2497395E-009  0.4778727E+02  0.7816164E-02  0.1312668E+00
        -11   -1    0    0    0    0  0.00000000000E+00  0.00000000000E+00  0.45593999997E+02  0.45594000000E+02  0.51100000000E-03 0.  1.
         11   -1    0    0    0    0 -0.00000000000E+00 -0.00000000000E+00 -0.45593999997E+02  0.45594000000E+02  0.51100000000E-03 0. -1.
    9900012    2    1    2    0    0 -0.34473121327E+02  0.12456034352E+02 -0.23239503605E+02  0.47787269435E+02  0.19999992660E+02 0.  0.
        -12    1    1    2    0    0  0.34473121327E+02 -0.12456034352E+02  0.23239503605E+02  0.43400730565E+02  0.00000000000E+00 0.  1.
         11    1    3    3    0    0 -0.11948296069E+02 -0.43440426798E+01 -0.86988411451E+01  0.15404620193E+02  0.51100000000E-03 0. -1.
        -11    1    3    3    0    0 -0.18819851477E+02  0.14966358546E+02 -0.94763077676E+01  0.25845291774E+02  0.51100000000E-03 0.  1.
         12    1    3    3    0    0 -0.37049737811E+01  0.18337184857E+01 -0.50643546926E+01  0.65373574674E+01  0.00000000000E+00 0. -1.
</event>
<event>
 7    1  0.2497395E-009  0.4778728E+02  0.7816164E-02  0.1312668E+00
        -11   -1    0    0    0    0  0.00000000000E+00  0.00000000000E+00  0.45593999997E+02  0.45594000000E+02  0.51100000000E-03 0.  1.
         11   -1    0    0    0    0 -0.00000000000E+00 -0.00000000000E+00 -0.45593999997E+02  0.45594000000E+02  0.51100000000E-03 0. -1.
    9900012    2    1    2    0    0 -0.32026061365E+02 -0.17336770625E+02 -0.23609120075E+02  0.47787276815E+02  0.20000026310E+02 0.  0.
        -12    1    1    2    0    0  0.32026061365E+02  0.17336770625E+02  0.23609120075E+02  0.43400723185E+02  0.00000000000E+00 0.  1.
         11    1    3    3    0    0 -0.16357783490E+02 -0.90666504191E+01 -0.19260065999E+02  0.26846440603E+02  0.51100000000E-03 0. -1.
        -11    1    3    3    0    0  0.51039690112E+00  0.85600611255E+00  0.11949482924E+01  0.15560055090E+01  0.51100000000E-03 0.  1.
         12    1    3    3    0    0 -0.16178674776E+02 -0.91261263185E+01 -0.55440023685E+01  0.19384830702E+02  0.00000000000E+00 0. -1.
</event>
<event>
 7    1  0.2497395E-009  0.4778727E+02  0.7816164E-02  0.1312668E+00
        -11   -1    0    0    0    0  0.00000000000E+00  0.00000000000E+00  0.45593999997E+02  0.45594000000E+02  0.51100000000E-03 0.  1.
         11   -1    0    0    0    0 -0.00000000000E+00 -0.00000000000E+00 -0.45593999997E+02  0.45594000000E+02  0.51100000000E-03 0. -1.
    9900012    2    1    2    0    0  0.26168363786E+02  0.40090116787E+01 -0.34391392119E+02  0.47787270861E+02  0.19999999166E+02 0.  0.
        -12    1    1    2    0    0 -0.26168363786E+02 -0.40090116787E+01  0.34391392119E+02  0.43400729139E+02  0.00000000000E+00 0.  1.
         11    1    3    3    0    0  0.19236240974E+02 -0.18539519824E+01 -0.22985990049E+02  0.30030415307E+02  0.51100000000E-03 0. -1.
        -11    1    3    3    0    0  0.65464342970E+01  0.54785079447E+01 -0.25843487806E+01  0.89190083634E+01  0.51100000000E-03 0.  1.
        -12    1    3    3    0    0  0.38568851529E+00  0.38445571638E+00 -0.88210532895E+01  0.88378471906E+01  0.00000000000E+00 0.  1.
</event>
<event>
 7    1  0.2497395E-009  0.4778727E+02  0.7816164E-02  0.1312668E+00
        -11   -1    0    0    0    0  0.00000000000E+00  0.00000000000E+00  0.45593999997E+02  0.45594000000E+02  0.51100000000E-03 0. -1.
         11   -1    0    0    0    0 -0.00000000000E+00 -0.00000000000E+00 -0.45593999997E+02  0.45594000000E+02  0.51100000000E-03 0.  1.
    9900012    2    1    2    0    0  0.19827223205E+02 -0.35909749874E+02  0.14177254110E+02  0.47787269014E+02  0.19999990741E+02 0.  0.
        -12    1    1    2    0    0 -0.19827223205E+02  0.35909749874E+02 -0.14177254110E+02  0.43400730986E+02  0.00000000000E+00 0.  1.
         11    1    3    3    0    0  0.88298842696E+01 -0.30741878833E+02  0.90128969410E+01  0.33230442097E+02  0.51100000000E-03 0. -1.
        -11    1    3    3    0    0  0.10865334243E+02 -0.53509626216E+01  0.61234898554E+01  0.13571492823E+02  0.51100000000E-03 0.  1.
         12    1    3    3    0    0  0.13200469228E+00  0.18309158047E+00 -0.95913268645E+00  0.98533409351E+00  0.00000000000E+00 0. -1.
</event>
<event>
 7    1  0.2497395E-009  0.4778728E+02  0.7816164E-02  0.1312668E+00
        -11   -1    0    0    0    0  0.00000000000E+00  0.00000000000E+00  0.45593999997E+02  0.45594000000E+02  0.51100000000E-03 0.  1.
         11   -1    0    0    0    0 -0.00000000000E+00 -0.00000000000E+00 -0.45593999997E+02  0.45594000000E+02  0.51100000000E-03 0. -1.
    9900012    2    1    2    0    0 -0.36959399912E+02 -0.21096144291E+02 -0.85192464067E+01  0.47787284509E+02  0.20000061388E+02 0.  0.
        -12    1    1    2    0    0  0.36959399912E+02  0.21096144291E+02  0.85192464067E+01  0.43400715491E+02  0.00000000000E+00 0.  1.
         11    1    3    3    0    0 -0.76921075906E+01 -0.10904158519E+02  0.13484447841E+01  0.13412214425E+02  0.51100000000E-03 0. -1.
        -11    1    3    3    0    0 -0.13832433249E+02  0.89907104968E+00 -0.31381882132E+01  0.14212415835E+02  0.51100000000E-03 0.  1.
         12    1    3    3    0    0 -0.15434859072E+02 -0.11091056822E+02 -0.67295029776E+01  0.20162654248E+02  0.00000000000E+00 0. -1.
</event>
<event>
 7    1  0.2497395E-009  0.4778727E+02  0.7816164E-02  0.1312668E+00
        -11   -1    0    0    0    0  0.00000000000E+00  0.00000000000E+00  0.45593999997E+02  0.45594000000E+02  0.51100000000E-03 0. -1.
         11   -1    0    0    0    0 -0.00000000000E+00 -0.00000000000E+00 -0.45593999997E+02  0.45594000000E+02  0.51100000000E-03 0.  1.
    9900012    2    1    2    0    0 -0.19406095612E+02 -0.37110594006E+02  0.11394325689E+02  0.47787269680E+02  0.19999993779E+02 0.  0.
        -12    1    1    2    0    0  0.19406095612E+02  0.37110594006E+02 -0.11394325689E+02  0.43400730320E+02  0.00000000000E+00 0.  1.
         11    1    3    3    0    0 -0.15261430262E+02 -0.33501107216E+02  0.14884144828E+02  0.39708603676E+02  0.51100000000E-03 0. -1.
        -11    1    3    3    0    0 -0.49013219842E+01 -0.39852911106E+01 -0.35232303057E+01  0.72331635180E+01  0.51100000000E-03 0.  1.
         12    1    3    3    0    0  0.75665663366E+00  0.37580432059E+00  0.33411166450E-01  0.84550248650E+00  0.00000000000E+00 0. -1.
</event>
<event>
 7    1  0.2497395E-009  0.4778727E+02  0.7816164E-02  0.1312668E+00
        -11   -1    0    0    0    0  0.00000000000E+00  0.00000000000E+00  0.45593999997E+02  0.45594000000E+02  0.51100000000E-03 0. -1.
         11   -1    0    0    0    0 -0.00000000000E+00 -0.00000000000E+00 -0.45593999997E+02  0.45594000000E+02  0.51100000000E-03 0.  1.
    9900012    2    1    2    0    0  0.29724839060E+02 -0.10302957680E+02  0.29898271209E+02  0.47787267110E+02  0.19999982063E+02 0.  0.
        -12    1    1    2    0    0 -0.29724839060E+02  0.10302957680E+02 -0.29898271209E+02  0.43400732890E+02  0.00000000000E+00 0.  1.
         11    1    3    3    0    0  0.19981232466E+02 -0.60834629367E+01  0.87137319666E+01  0.22631555342E+02  0.51100000000E-03 0. -1.
        -11    1    3    3    0    0  0.65330800730E+01  0.14686577742E+01  0.79282787071E+01  0.10377653608E+02  0.51100000000E-03 0.  1.
         12    1    3    3    0    0  0.32105265211E+01 -0.56881525177E+01  0.13256260535E+02  0.14778058160E+02  0.00000000000E+00 0. -1.
</event>
<event>
 7    1  0.2497395E-009  0.4778727E+02  0.7816164E-02  0.1312668E+00
        -11   -1    0    0    0    0  0.00000000000E+00  0.00000000000E+00  0.45593999997E+02  0.45594000000E+02  0.51100000000E-03 0. -1.
         11   -1    0    0    0    0 -0.00000000000E+00 -0.00000000000E+00 -0.45593999997E+02  0.45594000000E+02  0.51100000000E-03 0.  1.
    9900012    2    1    2    0    0  0.29582211647E+02 -0.16265017986E+02  0.27275722780E+02  0.47787272942E+02  0.20000008651E+02 0.  0.
        -12    1    1    2    0    0 -0.29582211647E+02  0.16265017986E+02 -0.27275722780E+02  0.43400727058E+02  0.00000000000E+00 0.  1.
         11    1    3    3    0    0  0.16680754338E+02 -0.11327042416E+02  0.15375074296E+02  0.25356308190E+02  0.51100000000E-03 0. -1.
        -11    1    3    3    0    0 -0.74968050566E+00 -0.30451953825E+00 -0.21518875487E+01  0.22989939741E+01  0.51100000000E-03 0.  1.
        -12    1    3    3    0    0  0.13651137815E+02 -0.46334560322E+01  0.14052536032E+02  0.20131970777E+02  0.00000000000E+00 0.  1.
</event>
<event>
 7    1  0.2497395E-009  0.4778727E+02  0.7816164E-02  0.1312668E+00
        -11   -1    0    0    0    0  0.00000000000E+00  0.00000000000E+00  0.45593999997E+02  0.45594000000E+02  0.51100000000E-03 0. -1.
         11   -1    0    0    0    0 -0.00000000000E+00 -0.00000000000E+00 -0.45593999997E+02  0.45594000000E+02  0.51100000000E-03 0.  1.
    9900012    2    1    2    0    0 -0.39664152256E+01 -0.36028576755E+02  0.23871160143E+02  0.47787273286E+02  0.20000010221E+02 0.  0.
        -12    1    1    2    0    0  0.39664152256E+01  0.36028576755E+02 -0.23871160143E+02  0.43400726714E+02  0.00000000000E+00 0.  1.
         11    1    3    3    0    0 -0.15949807208E+01 -0.21012168956E+02  0.17750378140E+02  0.27552334422E+02  0.51100000000E-03 0. -1.
        -11    1    3    3    0    0  0.15133052098E+01  0.16064279390E+01  0.50267907344E+00  0.22634906434E+01  0.51100000000E-03 0.  1.
        -12    1    3    3    0    0 -0.38847397146E+01 -0.16622835738E+02  0.56181029291E+01  0.17971448220E+02  0.00000000000E+00 0.  1.
</event>
<event>
 7    1  0.2497395E-009  0.4778727E+02  0.7816164E-02  0.1312668E+00
        -11   -1    0    0    0    0  0.00000000000E+00  0.00000000000E+00  0.45593999997E+02  0.45594000000E+02  0.51100000000E-03 0.  1.
         11   -1    0    0    0    0 -0.00000000000E+00 -0.00000000000E+00 -0.45593999997E+02  0.45594000000E+02  0.51100000000E-03 0. -1.
    9900012    2    1    2    0    0 -0.26632592414E+02  0.33523300230E+02 -0.71075065056E+01  0.47787270908E+02  0.19999999378E+02 0.  0.
        -12    1    1    2    0    0  0.26632592414E+02 -0.33523300230E+02  0.71075065056E+01  0.43400729092E+02  0.00000000000E+00 0.  1.
         11    1    3    3    0    0 -0.70778735201E+01  0.14114479606E+02 -0.34902096442E+01  0.16170850062E+02  0.51100000000E-03 0. -1.
        -11    1    3    3    0    0 -0.10471468630E+02  0.14097977824E+02  0.47280441125E+01  0.18186781886E+02  0.51100000000E-03 0.  1.
        -12    1    3    3    0    0 -0.90832502644E+01  0.53108427999E+01 -0.83453409739E+01  0.13429638959E+02  0.00000000000E+00 0.  1.
</event>
<event>
 7    1  0.2497395E-009  0.4778727E+02  0.7816164E-02  0.1312668E+00
        -11   -1    0    0    0    0  0.00000000000E+00  0.00000000000E+00  0.45593999997E+02  0.45594000000E+02  0.51100000000E-03 0. -1.
         11   -1    0    0    0    0 -0.00000000000E+00 -0.00000000000E+00 -0.45593999997E+02  0.45594000000E+02  0.51100000000E-03 0.  1.
    9900012    2    1    2    0    0  0.27042537253E+01  0.32632974682E+02  0.28485070279E+02  0.47787271278E+02  0.20000001063E+02 0.  0.
        -12    1    1    2    0    0 -0.27042537253E+01 -0.32632974682E+02 -0.28485070279E+02  0.43400728722E+02  0.00000000000E+00 0.  1.
         11    1    3    3    0    0  0.33989934614E+01  0.69621746207E+00  0.67964434352E+01  0.76308268840E+01  0.51100000000E-03 0. -1.
        -11    1    3    3    0    0 -0.20044015504E+01  0.16861087752E+02  0.51591257999E+01  0.17746280879E+02  0.51100000000E-03 0.  1.
         12    1    3    3    0    0  0.13096618143E+01  0.15075669468E+02  0.16529501044E+02  0.22410163514E+02  0.00000000000E+00 0. -1.
</event>
<event>
 7    1  0.2497395E-009  0.4778727E+02  0.7816164E-02  0.1312668E+00
        -11   -1    0    0    0    0  0.00000000000E+00  0.00000000000E+00  0.45593999997E+02  0.45594000000E+02  0.51100000000E-03 0.  1.
         11   -1    0    0    0    0 -0.00000000000E+00 -0.00000000000E+00 -0.45593999997E+02  0.45594000000E+02  0.51100000000E-03 0. -1.
    9900012    2    1    2    0    0  0.29152896227E+02 -0.24270585183E+02 -0.21087207727E+02  0.47787274277E+02  0.20000014740E+02 0.  0.
        -12    1    1    2    0    0 -0.29152896227E+02  0.24270585183E+02  0.21087207727E+02  0.43400725723E+02  0.00000000000E+00 0.  1.
         11    1    3    3    0    0  0.10608458235E+02 -0.10132573461E+02 -0.12716078846E+02  0.19414095203E+02  0.51100000000E-03 0. -1.
        -11    1    3    3    0    0  0.52315922059E+01  0.24913719719E+01 -0.14211733572E+01  0.59662572257E+01  0.51100000000E-03 0.  1.
        -12    1    3    3    0    0  0.13312845787E+02 -0.16629383693E+02 -0.69499555237E+01  0.22406921849E+02  0.00000000000E+00 0.  1.
</event>
<event>
 7    1  0.2497395E-009  0.4778727E+02  0.7816164E-02  0.1312668E+00
        -11   -1    0    0    0    0  0.00000000000E+00  0.00000000000E+00  0.45593999997E+02  0.45594000000E+02  0.51100000000E-03 0.  1.
         11   -1    0    0    0    0 -0.00000000000E+00 -0.00000000000E+00 -0.45593999997E+02  0.45594000000E+02  0.51100000000E-03 0. -1.
    9900012    2    1    2    0    0 -0.24408636643E+01 -0.42274740403E+02 -0.95137680306E+01  0.47787271046E+02  0.20000000009E+02 0.  0.
        -12    1    1    2    0    0  0.24408636643E+01  0.42274740403E+02  0.95137680306E+01  0.43400728954E+02  0.00000000000E+00 0.  1.
         11    1    3    3    0    0 -0.42053912738E+01 -0.36707555161E+01 -0.65826763160E+01  0.86308394474E+01  0.51100000000E-03 0. -1.
        -11    1    3    3    0    0 -0.38094932200E+00 -0.18948667694E+02  0.10736047044E+01  0.18982880632E+02  0.51100000000E-03 0.  1.
         12    1    3    3    0    0  0.21454769315E+01 -0.19655317192E+02 -0.40046964190E+01  0.20173550967E+02  0.00000000000E+00 0. -1.
</event>
<event>
 7    1  0.2497395E-009  0.4778727E+02  0.7816164E-02  0.1312668E+00
        -11   -1    0    0    0    0  0.00000000000E+00  0.00000000000E+00  0.45593999997E+02  0.45594000000E+02  0.51100000000E-03 0. -1.
         11   -1    0    0    0    0 -0.00000000000E+00 -0.00000000000E+00 -0.45593999997E+02  0.45594000000E+02  0.51100000000E-03 0.  1.
    9900012    2    1    2    0    0  0.43299643866E+02  0.29240070868E+01  0.46268735274E+00  0.47787273555E+02  0.20000011448E+02 0.  0.
        -12    1    1    2    0    0 -0.43299643866E+02 -0.29240070868E+01 -0.46268735274E+00  0.43400726445E+02  0.00000000000E+00 0.  1.
         11    1    3    3    0    0  0.21308928573E+02  0.33535186480E+01  0.71295748771E+01  0.22718876787E+02  0.51100000000E-03 0. -1.
        -11    1    3    3    0    0  0.26695874212E+01 -0.35291620455E+01 -0.24239020099E+01  0.50454913495E+01  0.51100000000E-03 0.  1.
         12    1    3    3    0    0  0.19321127871E+02  0.30996504843E+01 -0.42429855144E+01  0.20022905419E+02  0.00000000000E+00 0. -1.
</event>
<event>
 7    1  0.2497395E-009  0.4778727E+02  0.7816164E-02  0.1312668E+00
        -11   -1    0    0    0    0  0.00000000000E+00  0.00000000000E+00  0.45593999997E+02  0.45594000000E+02  0.51100000000E-03 0.  1.
         11   -1    0    0    0    0 -0.00000000000E+00 -0.00000000000E+00 -0.45593999997E+02  0.45594000000E+02  0.51100000000E-03 0. -1.
    9900012    2    1    2    0    0  0.89655628418E+01 -0.28447922268E+02 -0.31527096890E+02  0.47787269168E+02  0.19999991443E+02 0.  0.
        -12    1    1    2    0    0 -0.89655628418E+01  0.28447922268E+02  0.31527096890E+02  0.43400730832E+02  0.00000000000E+00 0.  1.
         11    1    3    3    0    0  0.10491642881E+02 -0.21931461215E+02 -0.12940395561E+02  0.27541194580E+02  0.51100000000E-03 0. -1.
        -11    1    3    3    0    0  0.12240690808E+01 -0.49755733121E+00 -0.21027253972E+01  0.24834175585E+01  0.51100000000E-03 0.  1.
         12    1    3    3    0    0 -0.27501491204E+01 -0.60189037222E+01 -0.16483975932E+02  0.17762657029E+02  0.00000000000E+00 0. -1.
</event>
<event>
 7    1  0.2497395E-009  0.4778727E+02  0.7816164E-02  0.1312668E+00
        -11   -1    0    0    0    0  0.00000000000E+00  0.00000000000E+00  0.45593999997E+02  0.45594000000E+02  0.51100000000E-03 0. -1.
         11   -1    0    0    0    0 -0.00000000000E+00 -0.00000000000E+00 -0.45593999997E+02  0.45594000000E+02  0.51100000000E-03 0.  1.
    9900012    2    1    2    0    0  0.17131048584E+02 -0.33925078317E+02  0.20958042329E+02  0.47787270713E+02  0.19999998489E+02 0.  0.
        -12    1    1    2    0    0 -0.17131048584E+02  0.33925078317E+02 -0.20958042329E+02  0.43400729287E+02  0.00000000000E+00 0.  1.
         11    1    3    3    0    0  0.55210785240E+00 -0.16405578695E+02  0.13622675520E+02  0.21331317914E+02  0.51100000000E-03 0. -1.
        -11    1    3    3    0    0  0.14836132088E+02 -0.15805735675E+02  0.35745795776E+01  0.21970655770E+02  0.51100000000E-03 0.  1.
        -12    1    3    3    0    0  0.17428086432E+01 -0.17137639472E+01  0.37607872313E+01  0.44852970284E+01  0.00000000000E+00 0.  1.
</event>
<event>
 7    1  0.2497395E-009  0.4778727E+02  0.7816164E-02  0.1312668E+00
        -11   -1    0    0    0    0  0.00000000000E+00  0.00000000000E+00  0.45593999997E+02  0.45594000000E+02  0.51100000000E-03 0. -1.
         11   -1    0    0    0    0 -0.00000000000E+00 -0.00000000000E+00 -0.45593999997E+02  0.45594000000E+02  0.51100000000E-03 0.  1.
    9900012    2    1    2    0    0 -0.96795662607E+01  0.12037109391E+02  0.40559058037E+02  0.47787271961E+02  0.20000004179E+02 0.  0.
        -12    1    1    2    0    0  0.96795662607E+01 -0.12037109391E+02 -0.40559058037E+02  0.43400728039E+02  0.00000000000E+00 0.  1.
         11    1    3    3    0    0  0.72092066028E+00  0.53010682653E+01  0.43327039492E-01  0.53500400788E+01  0.51100000000E-03 0. -1.
        -11    1    3    3    0    0 -0.58040632831E+01  0.35430902668E+01  0.26154151921E+02  0.27023698900E+02  0.51100000000E-03 0.  1.
         12    1    3    3    0    0 -0.45964236379E+01  0.31929508586E+01  0.14361579076E+02  0.15413532983E+02  0.00000000000E+00 0. -1.
</event>
<event>
 7    1  0.2497395E-009  0.4778727E+02  0.7816164E-02  0.1312668E+00
        -11   -1    0    0    0    0  0.00000000000E+00  0.00000000000E+00  0.45593999997E+02  0.45594000000E+02  0.51100000000E-03 0.  1.
         11   -1    0    0    0    0 -0.00000000000E+00 -0.00000000000E+00 -0.45593999997E+02  0.45594000000E+02  0.51100000000E-03 0. -1.
    9900012    2    1    2    0    0 -0.18932663418E+02 -0.31104503256E+02 -0.23615407258E+02  0.47787270434E+02  0.19999997216E+02 0.  0.
        -12    1    1    2    0    0  0.18932663418E+02  0.31104503256E+02  0.23615407258E+02  0.43400729566E+02  0.00000000000E+00 0.  1.
         11    1    3    3    0    0 -0.15885785758E+01 -0.10420322222E+02  0.13640555627E+01  0.10628609737E+02  0.51100000000E-03 0.  1.
        -11    1    3    3    0    0 -0.94936771877E+01 -0.10230170764E+02 -0.16336828634E+02  0.21486699851E+02  0.51100000000E-03 0. -1.
        -12    1    3    3    0    0 -0.78504076546E+01 -0.10454010271E+02 -0.86426341860E+01  0.15671960846E+02  0.00000000000E+00 0.  1.
</event>
<event>
 7    1  0.2497395E-009  0.4778726E+02  0.7816164E-02  0.1312668E+00
        -11   -1    0    0    0    0  0.00000000000E+00  0.00000000000E+00  0.45593999997E+02  0.45594000000E+02  0.51100000000E-03 0.  1.
         11   -1    0    0    0    0 -0.00000000000E+00 -0.00000000000E+00 -0.45593999997E+02  0.45594000000E+02  0.51100000000E-03 0. -1.
    9900012    2    1    2    0    0  0.20281228802E+02  0.50773898643E+01 -0.38033088399E+02  0.47787263339E+02  0.19999964867E+02 0.  0.
        -12    1    1    2    0    0 -0.20281228802E+02 -0.50773898643E+01  0.38033088399E+02  0.43400736661E+02  0.00000000000E+00 0.  1.
         11    1    3    3    0    0  0.38038115259E+01  0.64987726966E+01 -0.64638969076E+01  0.99239605087E+01  0.51100000000E-03 0. -1.
        -11    1    3    3    0    0  0.39196792622E+01 -0.29673819718E+01 -0.20406901372E+02  0.20990732840E+02  0.51100000000E-03 0.  1.
        -12    1    3    3    0    0  0.12557738014E+02  0.15459991395E+01 -0.11162290120E+02  0.16872569990E+02  0.00000000000E+00 0.  1.
</event>
<event>
 7    1  0.2497395E-009  0.4778727E+02  0.7816164E-02  0.1312668E+00
        -11   -1    0    0    0    0  0.00000000000E+00  0.00000000000E+00  0.45593999997E+02  0.45594000000E+02  0.51100000000E-03 0. -1.
         11   -1    0    0    0    0 -0.00000000000E+00 -0.00000000000E+00 -0.45593999997E+02  0.45594000000E+02  0.51100000000E-03 0.  1.
    9900012    2    1    2    0    0 -0.37293587370E+02 -0.14735009101E+01  0.22150415851E+02  0.47787265141E+02  0.19999973086E+02 0.  0.
        -12    1    1    2    0    0  0.37293587370E+02  0.14735009101E+01 -0.22150415851E+02  0.43400734859E+02  0.00000000000E+00 0.  1.
         11    1    3    3    0    0 -0.33353049684E+01 -0.62941814773E+00  0.97326266383E+01  0.10307494748E+02  0.51100000000E-03 0.  1.
        -11    1    3    3    0    0 -0.13348016377E+02 -0.37558207469E+00  0.10082718159E+02  0.16732358137E+02  0.51100000000E-03 0. -1.
         12    1    3    3    0    0 -0.20610266025E+02 -0.46850068768E+00  0.23350710544E+01  0.20747412257E+02  0.00000000000E+00 0. -1.
</event>
<event>
 7    1  0.2497395E-009  0.4778727E+02  0.7816164E-02  0.1312668E+00
        -11   -1    0    0    0    0  0.00000000000E+00  0.00000000000E+00  0.45593999997E+02  0.45594000000E+02  0.51100000000E-03 0.  1.
         11   -1    0    0    0    0 -0.00000000000E+00 -0.00000000000E+00 -0.45593999997E+02  0.45594000000E+02  0.51100000000E-03 0. -1.
    9900012    2    1    2    0    0 -0.80808185771E+00  0.18085138960E+02 -0.39444871382E+02  0.47787272750E+02  0.20000007777E+02 0.  0.
        -12    1    1    2    0    0  0.80808185771E+00 -0.18085138960E+02  0.39444871382E+02  0.43400727250E+02  0.00000000000E+00 0.  1.
         11    1    3    3    0    0 -0.25853035514E+01  0.15828659029E+02 -0.12062384566E+02  0.20068167898E+02  0.51100000000E-03 0. -1.
        -11    1    3    3    0    0  0.19508699158E+01  0.25304340661E+01 -0.15194825270E+02  0.15527128042E+02  0.51100000000E-03 0.  1.
         12    1    3    3    0    0 -0.17364822210E+00 -0.27395413491E+00 -0.12187661546E+02  0.12191976810E+02  0.00000000000E+00 0. -1.
</event>
<event>
 7    1  0.2497395E-009  0.4778727E+02  0.7816164E-02  0.1312668E+00
        -11   -1    0    0    0    0  0.00000000000E+00  0.00000000000E+00  0.45593999997E+02  0.45594000000E+02  0.51100000000E-03 0.  1.
         11   -1    0    0    0    0 -0.00000000000E+00 -0.00000000000E+00 -0.45593999997E+02  0.45594000000E+02  0.51100000000E-03 0. -1.
    9900012    2    1    2    0    0 -0.33978445715E+01  0.32485960157E+02 -0.28578668902E+02  0.47787271074E+02  0.20000000136E+02 0.  0.
        -12    1    1    2    0    0  0.33978445715E+01 -0.32485960157E+02  0.28578668902E+02  0.43400728926E+02  0.00000000000E+00 0.  1.
         11    1    3    3    0    0 -0.80077971168E-01  0.31856556956E+02 -0.27956946337E+02  0.42384401404E+02  0.51100000000E-03 0. -1.
        -11    1    3    3    0    0  0.26056255126E+00 -0.12776395660E+01 -0.23140124567E-01  0.13041439454E+01  0.51100000000E-03 0.  1.
         12    1    3    3    0    0 -0.35783291515E+01  0.19070427669E+01 -0.59858243987E+00  0.40987257250E+01  0.00000000000E+00 0. -1.
</event>
<event>
 7    1  0.2497395E-009  0.4778727E+02  0.7816164E-02  0.1312668E+00
        -11   -1    0    0    0    0  0.00000000000E+00  0.00000000000E+00  0.45593999997E+02  0.45594000000E+02  0.51100000000E-03 0.  1.
         11   -1    0    0    0    0 -0.00000000000E+00 -0.00000000000E+00 -0.45593999997E+02  0.45594000000E+02  0.51100000000E-03 0. -1.
    9900012    2    1    2    0    0  0.39792229357E+02 -0.45605579093E+01 -0.16715349734E+02  0.47787272790E+02  0.20000007959E+02 0.  0.
        -12    1    1    2    0    0 -0.39792229357E+02  0.45605579093E+01  0.16715349734E+02  0.43400727210E+02  0.00000000000E+00 0.  1.
         11    1    3    3    0    0  0.22339025973E+02  0.55248750118E+01 -0.41719609968E+01  0.23387209841E+02  0.51100000000E-03 0. -1.
        -11    1    3    3    0    0  0.17048566783E+02 -0.97822436845E+01 -0.13120745889E+02  0.23632602349E+02  0.51100000000E-03 0.  1.
        -12    1    3    3    0    0  0.40463660067E+00 -0.30318923656E+00  0.57735715166E+00  0.76746059986E+00  0.00000000000E+00 0.  1.
</event>
<event>
 7    1  0.2497395E-009  0.4778726E+02  0.7816164E-02  0.1312668E+00
        -11   -1    0    0    0    0  0.00000000000E+00  0.00000000000E+00  0.45593999997E+02  0.45594000000E+02  0.51100000000E-03 0. -1.
         11   -1    0    0    0    0 -0.00000000000E+00 -0.00000000000E+00 -0.45593999997E+02  0.45594000000E+02  0.51100000000E-03 0.  1.
    9900012    2    1    2    0    0 -0.16905166811E+02  0.23181459619E+02  0.32564692620E+02  0.47787263366E+02  0.19999964991E+02 0.  0.
        -12    1    1    2    0    0  0.16905166811E+02 -0.23181459619E+02 -0.32564692620E+02  0.43400736634E+02  0.00000000000E+00 0.  1.
         11    1    3    3    0    0 -0.16190566820E+01  0.53933113291E+01  0.20418322807E+02  0.21180582101E+02  0.51100000000E-03 0. -1.
        -11    1    3    3    0    0 -0.82687836905E+01  0.77367543420E+01  0.46769429615E+01  0.12251691605E+02  0.51100000000E-03 0.  1.
         12    1    3    3    0    0 -0.70173264386E+01  0.10051393948E+02  0.74694268514E+01  0.14354989660E+02  0.00000000000E+00 0. -1.
</event>
<event>
 7    1  0.2497395E-009  0.4778727E+02  0.7816164E-02  0.1312668E+00
        -11   -1    0    0    0    0  0.00000000000E+00  0.00000000000E+00  0.45593999997E+02  0.45594000000E+02  0.51100000000E-03 0.  1.
         11   -1    0    0    0    0 -0.00000000000E+00 -0.00000000000E+00 -0.45593999997E+02  0.45594000000E+02  0.51100000000E-03 0. -1.
    9900012    2    1    2    0    0  0.19755813471E+02  0.37249021048E+02 -0.10287927928E+02  0.47787271942E+02  0.20000004092E+02 0.  0.
        -12    1    1    2    0    0 -0.19755813471E+02 -0.37249021048E+02  0.10287927928E+02  0.43400728058E+02  0.00000000000E+00 0.  1.
         11    1    3    3    0    0  0.99615542862E+01  0.28051978361E+02 -0.11256064182E+02  0.31825226392E+02  0.51100000000E-03 0. -1.
        -11    1    3    3    0    0  0.89274625760E+01  0.34923822904E+01 -0.14693186433E+01  0.96982070325E+01  0.51100000000E-03 0.  1.
         12    1    3    3    0    0  0.86679660860E+00  0.57046603965E+01  0.24374548972E+01  0.62638385177E+01  0.00000000000E+00 0. -1.
</event>
<event>
 7    1  0.2497395E-009  0.4778729E+02  0.7816164E-02  0.1312668E+00
        -11   -1    0    0    0    0  0.00000000000E+00  0.00000000000E+00  0.45593999997E+02  0.45594000000E+02  0.51100000000E-03 0.  1.
         11   -1    0    0    0    0 -0.00000000000E+00 -0.00000000000E+00 -0.45593999997E+02  0.45594000000E+02  0.51100000000E-03 0. -1.
    9900012    2    1    2    0    0  0.39758250328E+02  0.32406744424E+01 -0.17099738464E+02  0.47787291532E+02  0.20000093410E+02 0.  0.
        -12    1    1    2    0    0 -0.39758250328E+02 -0.32406744424E+01  0.17099738464E+02  0.43400708468E+02  0.00000000000E+00 0.  1.
         11    1    3    3    0    0  0.45196587692E+01  0.56073936399E+01 -0.64132907570E+01  0.96436755139E+01  0.51100000000E-03 0. -1.
        -11    1    3    3    0    0  0.22971578073E+02  0.17977457127E+01 -0.34317915346E+01  0.23295975665E+02  0.51100000000E-03 0.  1.
         12    1    3    3    0    0  0.12267013486E+02 -0.41644649103E+01 -0.72546561726E+01  0.14847640352E+02  0.00000000000E+00 0. -1.
</event>
<event>
 7    1  0.2497395E-009  0.4778727E+02  0.7816164E-02  0.1312668E+00
        -11   -1    0    0    0    0  0.00000000000E+00  0.00000000000E+00  0.45593999997E+02  0.45594000000E+02  0.51100000000E-03 0.  1.
         11   -1    0    0    0    0 -0.00000000000E+00 -0.00000000000E+00 -0.45593999997E+02  0.45594000000E+02  0.51100000000E-03 0. -1.
    9900012    2    1    2    0    0  0.24368350471E+02  0.27943269802E+02 -0.22560600226E+02  0.47787268273E+02  0.19999987364E+02 0.  0.
        -12    1    1    2    0    0 -0.24368350471E+02 -0.27943269802E+02  0.22560600226E+02  0.43400731727E+02  0.00000000000E+00 0.  1.
         11    1    3    3    0    0  0.14442194680E+02  0.10668462297E+02 -0.87446919057E+01  0.19971547556E+02  0.51100000000E-03 0. -1.
        -11    1    3    3    0    0 -0.74471047446E+00  0.41102963601E+00 -0.65081168324E+01  0.65634689012E+01  0.51100000000E-03 0.  1.
        -12    1    3    3    0    0  0.10670866265E+02  0.16863777868E+02 -0.73077914881E+01  0.21252251816E+02  0.00000000000E+00 0.  1.
</event>
<event>
 7    1  0.2497395E-009  0.4778727E+02  0.7816164E-02  0.1312668E+00
        -11   -1    0    0    0    0  0.00000000000E+00  0.00000000000E+00  0.45593999997E+02  0.45594000000E+02  0.51100000000E-03 0.  1.
         11   -1    0    0    0    0 -0.00000000000E+00 -0.00000000000E+00 -0.45593999997E+02  0.45594000000E+02  0.51100000000E-03 0. -1.
    9900012    2    1    2    0    0 -0.16896322131E+02 -0.18668103628E+02 -0.35350240564E+02  0.47787270714E+02  0.19999998494E+02 0.  0.
        -12    1    1    2    0    0  0.16896322131E+02  0.18668103628E+02  0.35350240564E+02  0.43400729286E+02  0.00000000000E+00 0.  1.
         11    1    3    3    0    0 -0.82956255269E+01 -0.14448903353E+02 -0.33565571212E+02  0.37473134137E+02  0.51100000000E-03 0. -1.
        -11    1    3    3    0    0 -0.43756134228E+01 -0.61398715139E+00  0.18152753451E+00  0.44222082215E+01  0.51100000000E-03 0.  1.
         12    1    3    3    0    0 -0.42250831813E+01 -0.36052131234E+01 -0.19661968868E+01  0.58919283560E+01  0.00000000000E+00 0. -1.
</event>
<event>
 7    1  0.2497395E-009  0.4778727E+02  0.7816164E-02  0.1312668E+00
        -11   -1    0    0    0    0  0.00000000000E+00  0.00000000000E+00  0.45593999997E+02  0.45594000000E+02  0.51100000000E-03 0.  1.
         11   -1    0    0    0    0 -0.00000000000E+00 -0.00000000000E+00 -0.45593999997E+02  0.45594000000E+02  0.51100000000E-03 0. -1.
    9900012    2    1    2    0    0  0.77790214227E+01 -0.34520061413E+02 -0.25129178493E+02  0.47787269292E+02  0.19999992010E+02 0.  0.
        -12    1    1    2    0    0 -0.77790214227E+01  0.34520061413E+02  0.25129178493E+02  0.43400730708E+02  0.00000000000E+00 0.  1.
         11    1    3    3    0    0  0.13335758258E+02 -0.28820994335E+02 -0.16978148810E+02  0.36010410995E+02  0.51100000000E-03 0. -1.
        -11    1    3    3    0    0 -0.43633358061E+01 -0.57252086641E+01 -0.75808171149E+01  0.10453970633E+02  0.51100000000E-03 0.  1.
         12    1    3    3    0    0 -0.11934010291E+01  0.26141585870E-01 -0.57021256803E+00  0.13228876640E+01  0.00000000000E+00 0. -1.
</event>
<event>
 7    1  0.2497395E-009  0.4778727E+02  0.7816164E-02  0.1312668E+00
        -11   -1    0    0    0    0  0.00000000000E+00  0.00000000000E+00  0.45593999997E+02  0.45594000000E+02  0.51100000000E-03 0.  1.
         11   -1    0    0    0    0 -0.00000000000E+00 -0.00000000000E+00 -0.45593999997E+02  0.45594000000E+02  0.51100000000E-03 0. -1.
    9900012    2    1    2    0    0  0.49449839220E+01  0.62140850908E+01 -0.42667967817E+02  0.47787271929E+02  0.20000004032E+02 0.  0.
        -12    1    1    2    0    0 -0.49449839220E+01 -0.62140850908E+01  0.42667967817E+02  0.43400728071E+02  0.00000000000E+00 0.  1.
         11    1    3    3    0    0  0.20484116933E+01  0.59444512425E+01 -0.96499742702E+01  0.11517573300E+02  0.51100000000E-03 0. -1.
        -11    1    3    3    0    0 -0.50024870818E+00  0.19520048981E+01 -0.32359659405E+02  0.32422339968E+02  0.51100000000E-03 0.  1.
        -12    1    3    3    0    0  0.33968209369E+01 -0.16823710498E+01 -0.65833414104E+00  0.38473586612E+01  0.00000000000E+00 0.  1.
</event>
<event>
 7    1  0.2497395E-009  0.4778728E+02  0.7816164E-02  0.1312668E+00
        -11   -1    0    0    0    0  0.00000000000E+00  0.00000000000E+00  0.45593999997E+02  0.45594000000E+02  0.51100000000E-03 0.  1.
         11   -1    0    0    0    0 -0.00000000000E+00 -0.00000000000E+00 -0.45593999997E+02  0.45594000000E+02  0.51100000000E-03 0. -1.
    9900012    2    1    2    0    0  0.97718576305E+01 -0.19055218049E+00 -0.42285900594E+02  0.47787275343E+02  0.20000019601E+02 0.  0.
        -12    1    1    2    0    0 -0.97718576305E+01  0.19055218049E+00  0.42285900594E+02  0.43400724657E+02  0.00000000000E+00 0.  1.
         11    1    3    3    0    0  0.54291748739E+01  0.26281566283E+00 -0.13252516306E+01  0.55947568338E+01  0.51100000000E-03 0. -1.
        -11    1    3    3    0    0 -0.18778969915E+01  0.24433207847E+01 -0.93167597892E+01  0.98131710878E+01  0.51100000000E-03 0.  1.
         12    1    3    3    0    0  0.62205797481E+01 -0.28966886280E+01 -0.31643889174E+02  0.32379347422E+02  0.00000000000E+00 0. -1.
</event>
<event>
 7    1  0.2497395E-009  0.4778727E+02  0.7816164E-02  0.1312668E+00
        -11   -1    0    0    0    0  0.00000000000E+00  0.00000000000E+00  0.45593999997E+02  0.45594000000E+02  0.51100000000E-03 0. -1.
         11   -1    0    0    0    0 -0.00000000000E+00 -0.00000000000E+00 -0.45593999997E+02  0.45594000000E+02  0.51100000000E-03 0.  1.
    9900012    2    1    2    0    0 -0.18312227135E+00  0.35340245312E+02  0.25192402974E+02  0.47787266826E+02  0.19999980766E+02 0.  0.
        -12    1    1    2    0    0  0.18312227135E+00 -0.35340245312E+02 -0.25192402974E+02  0.43400733174E+02  0.00000000000E+00 0.  1.
         11    1    3    3    0    0 -0.49912510043E+00  0.21224136259E+02  0.22812966830E+02  0.31163192097E+02  0.51100000000E-03 0. -1.
        -11    1    3    3    0    0 -0.13489056278E+01  0.41802682706E+00  0.24467215630E+01  0.28250202634E+01  0.51100000000E-03 0.  1.
         12    1    3    3    0    0  0.16649084568E+01  0.13698082225E+02 -0.67285418716E-01  0.13799054466E+02  0.00000000000E+00 0. -1.
</event>
<event>
 7    1  0.2497395E-009  0.4778727E+02  0.7816164E-02  0.1312668E+00
        -11   -1    0    0    0    0  0.00000000000E+00  0.00000000000E+00  0.45593999997E+02  0.45594000000E+02  0.51100000000E-03 0.  1.
         11   -1    0    0    0    0 -0.00000000000E+00 -0.00000000000E+00 -0.45593999997E+02  0.45594000000E+02  0.51100000000E-03 0. -1.
    9900012    2    1    2    0    0  0.24500385432E+02 -0.34836163557E+02 -0.83543854500E+01  0.47787274961E+02  0.20000017858E+02 0.  0.
        -12    1    1    2    0    0 -0.24500385432E+02  0.34836163557E+02  0.83543854500E+01  0.43400725039E+02  0.00000000000E+00 0.  1.
         11    1    3    3    0    0 -0.66182112653E+00 -0.71252546318E+00 -0.93954627463E+00  0.13522008736E+01  0.51100000000E-03 0.  1.
        -11    1    3    3    0    0  0.13078977299E+02 -0.21300728925E+02 -0.12704644210E+02  0.28039056416E+02  0.51100000000E-03 0. -1.
        -12    1    3    3    0    0  0.12083229260E+02 -0.12822909168E+02  0.52898050345E+01  0.18396017672E+02  0.00000000000E+00 0.  1.
</event>
<event>
 7    1  0.2497395E-009  0.4778727E+02  0.7816164E-02  0.1312668E+00
        -11   -1    0    0    0    0  0.00000000000E+00  0.00000000000E+00  0.45593999997E+02  0.45594000000E+02  0.51100000000E-03 0. -1.
         11   -1    0    0    0    0 -0.00000000000E+00 -0.00000000000E+00 -0.45593999997E+02  0.45594000000E+02  0.51100000000E-03 0.  1.
    9900012    2    1    2    0    0 -0.25202573086E+02 -0.17778791925E+01  0.35288707059E+02  0.47787269701E+02  0.19999993873E+02 0.  0.
        -12    1    1    2    0    0  0.25202573086E+02  0.17778791925E+01 -0.35288707059E+02  0.43400730299E+02  0.00000000000E+00 0.  1.
         11    1    3    3    0    0 -0.19735800644E+02  0.38356451017E+01  0.20451196668E+02  0.28678658369E+02  0.51100000000E-03 0. -1.
        -11    1    3    3    0    0  0.16724581625E+01 -0.18568189695E+01  0.84705087389E+01  0.88314444768E+01  0.51100000000E-03 0.  1.
         12    1    3    3    0    0 -0.71392306045E+01 -0.37567053247E+01  0.63670016524E+01  0.10277166855E+02  0.00000000000E+00 0. -1.
</event>
<event>
 7    1  0.2497395E-009  0.4778727E+02  0.7816164E-02  0.1312668E+00
        -11   -1    0    0    0    0  0.00000000000E+00  0.00000000000E+00  0.45593999997E+02  0.45594000000E+02  0.51100000000E-03 0. -1.
         11   -1    0    0    0    0 -0.00000000000E+00 -0.00000000000E+00 -0.45593999997E+02  0.45594000000E+02  0.51100000000E-03 0.  1.
    9900012    2    1    2    0    0  0.88427211176E+01 -0.37069813725E+02  0.20766764126E+02  0.47787270760E+02  0.19999998702E+02 0.  0.
        -12    1    1    2    0    0 -0.88427211176E+01  0.37069813725E+02 -0.20766764126E+02  0.43400729240E+02  0.00000000000E+00 0.  1.
         11    1    3    3    0    0  0.63866674185E+01 -0.18631315863E+02  0.18516989028E+02  0.27033207994E+02  0.51100000000E-03 0. -1.
        -11    1    3    3    0    0 -0.18106254855E+01 -0.36034143904E+01  0.34000868925E+01  0.52748034139E+01  0.51100000000E-03 0.  1.
         12    1    3    3    0    0  0.42666791846E+01 -0.14835083471E+02 -0.11503117950E+01  0.15479259352E+02  0.00000000000E+00 0. -1.
</event>
<event>
 7    1  0.2497395E-009  0.4778723E+02  0.7816164E-02  0.1312668E+00
        -11   -1    0    0    0    0  0.00000000000E+00  0.00000000000E+00  0.45593999997E+02  0.45594000000E+02  0.51100000000E-03 0.  1.
         11   -1    0    0    0    0 -0.00000000000E+00 -0.00000000000E+00 -0.45593999997E+02  0.45594000000E+02  0.51100000000E-03 0. -1.
    9900012    2    1    2    0    0 -0.42613472339E+02 -0.64357463069E+01 -0.51283510335E+01  0.47787229965E+02  0.19999812703E+02 0.  0.
        -12    1    1    2    0    0  0.42613472339E+02  0.64357463069E+01  0.51283510335E+01  0.43400770035E+02  0.00000000000E+00 0.  1.
         11    1    3    3    0    0 -0.27238157710E+02  0.43433515404E+01  0.17915306472E+01  0.27640396530E+02  0.51100000000E-03 0. -1.
        -11    1    3    3    0    0 -0.66968178808E+01 -0.53194574268E+01 -0.20429348649E+01  0.87930415766E+01  0.51100000000E-03 0.  1.
         12    1    3    3    0    0 -0.86784967480E+01 -0.54596404204E+01 -0.48769468158E+01  0.11353791859E+02  0.00000000000E+00 0. -1.
</event>
<event>
 7    1  0.2497395E-009  0.4778727E+02  0.7816164E-02  0.1312668E+00
        -11   -1    0    0    0    0  0.00000000000E+00  0.00000000000E+00  0.45593999997E+02  0.45594000000E+02  0.51100000000E-03 0.  1.
         11   -1    0    0    0    0 -0.00000000000E+00 -0.00000000000E+00 -0.45593999997E+02  0.45594000000E+02  0.51100000000E-03 0. -1.
    9900012    2    1    2    0    0 -0.27829854109E+01 -0.14889147360E+02 -0.40671753297E+02  0.47787271514E+02  0.20000002141E+02 0.  0.
        -12    1    1    2    0    0  0.27829854109E+01  0.14889147360E+02  0.40671753297E+02  0.43400728486E+02  0.00000000000E+00 0.  1.
         11    1    3    3    0    0 -0.95570311571E+01 -0.45056629770E+01 -0.20209096584E+02  0.22804504564E+02  0.51100000000E-03 0. -1.
        -11    1    3    3    0    0  0.39038293604E+01 -0.88401421559E+00 -0.88132571900E+01  0.96796109099E+01  0.51100000000E-03 0.  1.
         12    1    3    3    0    0  0.28702163858E+01 -0.94994701669E+01 -0.11649399523E+02  0.15303156040E+02  0.00000000000E+00 0. -1.
</event>
<event>
 7    1  0.2497395E-009  0.4778727E+02  0.7816164E-02  0.1312668E+00
        -11   -1    0    0    0    0  0.00000000000E+00  0.00000000000E+00  0.45593999997E+02  0.45594000000E+02  0.51100000000E-03 0. -1.
         11   -1    0    0    0    0 -0.00000000000E+00 -0.00000000000E+00 -0.45593999997E+02  0.45594000000E+02  0.51100000000E-03 0.  1.
    9900012    2    1    2    0    0  0.13540147349E+02  0.39672132327E+02  0.11243197392E+02  0.47787272343E+02  0.20000005919E+02 0.  0.
        -12    1    1    2    0    0 -0.13540147349E+02 -0.39672132327E+02 -0.11243197392E+02  0.43400727657E+02  0.00000000000E+00 0.  1.
         11    1    3    3    0    0  0.80648723476E+01  0.25307492040E+02 -0.95560588158E+00  0.26578647486E+02  0.51100000000E-03 0. -1.
        -11    1    3    3    0    0 -0.39497469579E+00  0.15945559431E+01  0.53064108197E+01  0.55548726101E+01  0.51100000000E-03 0.  1.
         12    1    3    3    0    0  0.58702496968E+01  0.12770084344E+02  0.68923924538E+01  0.15653752246E+02  0.00000000000E+00 0. -1.
</event>
<event>
 7    1  0.2497395E-009  0.4778727E+02  0.7816164E-02  0.1312668E+00
        -11   -1    0    0    0    0  0.00000000000E+00  0.00000000000E+00  0.45593999997E+02  0.45594000000E+02  0.51100000000E-03 0.  1.
         11   -1    0    0    0    0 -0.00000000000E+00 -0.00000000000E+00 -0.45593999997E+02  0.45594000000E+02  0.51100000000E-03 0. -1.
    9900012    2    1    2    0    0  0.20826434974E+01  0.13859801500E+02 -0.41075440276E+02  0.47787270796E+02  0.19999998869E+02 0.  0.
        -12    1    1    2    0    0 -0.20826434974E+01 -0.13859801500E+02  0.41075440276E+02  0.43400729204E+02  0.00000000000E+00 0.  1.
         11    1    3    3    0    0  0.40455182265E+01  0.44231228876E+01 -0.11199597830E+02  0.12702803849E+02  0.51100000000E-03 0. -1.
        -11    1    3    3    0    0 -0.34885923194E+00  0.80725430945E+01 -0.38103435719E+01  0.89334412839E+01  0.51100000000E-03 0.  1.
        -12    1    3    3    0    0 -0.16140154972E+01  0.13641355182E+01 -0.26065498874E+02  0.26151025664E+02  0.00000000000E+00 0.  1.
</event>
<event>
 7    1  0.2497395E-009  0.4778727E+02  0.7816164E-02  0.1312668E+00
        -11   -1    0    0    0    0  0.00000000000E+00  0.00000000000E+00  0.45593999997E+02  0.45594000000E+02  0.51100000000E-03 0.  1.
         11   -1    0    0    0    0 -0.00000000000E+00 -0.00000000000E+00 -0.45593999997E+02  0.45594000000E+02  0.51100000000E-03 0. -1.
    9900012    2    1    2    0    0  0.13705937280E+02  0.15022825969E+02 -0.38341689737E+02  0.47787272025E+02  0.20000004472E+02 0.  0.
        -12    1    1    2    0    0 -0.13705937280E+02 -0.15022825969E+02  0.38341689737E+02  0.43400727975E+02  0.00000000000E+00 0.  1.
         11    1    3    3    0    0  0.77579700369E+01  0.57489660062E+01 -0.19634285706E+02  0.21880171038E+02  0.51100000000E-03 0. -1.
        -11    1    3    3    0    0 -0.27235408831E+01  0.48895838713E+01 -0.96691375562E+00  0.56798439986E+01  0.51100000000E-03 0.  1.
        -12    1    3    3    0    0  0.86715081264E+01  0.43842760918E+01 -0.17740490276E+02  0.20227256988E+02  0.00000000000E+00 0.  1.
</event>
<event>
 7    1  0.2497395E-009  0.4778727E+02  0.7816164E-02  0.1312668E+00
        -11   -1    0    0    0    0  0.00000000000E+00  0.00000000000E+00  0.45593999997E+02  0.45594000000E+02  0.51100000000E-03 0. -1.
         11   -1    0    0    0    0 -0.00000000000E+00 -0.00000000000E+00 -0.45593999997E+02  0.45594000000E+02  0.51100000000E-03 0.  1.
    9900012    2    1    2    0    0  0.23138090148E+02  0.36207023705E+02  0.61076401721E+01  0.47787273626E+02  0.20000011772E+02 0.  0.
        -12    1    1    2    0    0 -0.23138090148E+02 -0.36207023705E+02 -0.61076401721E+01  0.43400726374E+02  0.00000000000E+00 0.  1.
         11    1    3    3    0    0  0.12563014762E+02  0.23961014696E+02  0.54581600238E+01  0.27599838338E+02  0.51100000000E-03 0. -1.
        -11    1    3    3    0    0  0.30791740709E+01 -0.18686085052E+01  0.20504633767E+01  0.41445640332E+01  0.51100000000E-03 0.  1.
        -12    1    3    3    0    0  0.74959013159E+01  0.14114617514E+02 -0.14009832284E+01  0.16042871255E+02  0.00000000000E+00 0.  1.
</event>
<event>
 7    1  0.2497395E-009  0.4778727E+02  0.7816164E-02  0.1312668E+00
        -11   -1    0    0    0    0  0.00000000000E+00  0.00000000000E+00  0.45593999997E+02  0.45594000000E+02  0.51100000000E-03 0.  1.
         11   -1    0    0    0    0 -0.00000000000E+00 -0.00000000000E+00 -0.45593999997E+02  0.45594000000E+02  0.51100000000E-03 0. -1.
    9900012    2    1    2    0    0  0.22084479977E+02 -0.17587205384E+02 -0.32963452461E+02  0.47787271351E+02  0.20000001400E+02 0.  0.
        -12    1    1    2    0    0 -0.22084479977E+02  0.17587205384E+02  0.32963452461E+02  0.43400728649E+02  0.00000000000E+00 0.  1.
         11    1    3    3    0    0  0.13318648282E+02 -0.27508524329E+01 -0.20205503251E+02  0.24356024779E+02  0.51100000000E-03 0. -1.
        -11    1    3    3    0    0  0.64739094576E+01 -0.66763367566E+01 -0.16275302272E+01  0.94410714992E+01  0.51100000000E-03 0.  1.
         12    1    3    3    0    0  0.22919222375E+01 -0.81600161943E+01 -0.11130418983E+02  0.13990175073E+02  0.00000000000E+00 0. -1.
</event>
<event>
 7    1  0.2497395E-009  0.4778727E+02  0.7816164E-02  0.1312668E+00
        -11   -1    0    0    0    0  0.00000000000E+00  0.00000000000E+00  0.45593999997E+02  0.45594000000E+02  0.51100000000E-03 0.  1.
         11   -1    0    0    0    0 -0.00000000000E+00 -0.00000000000E+00 -0.45593999997E+02  0.45594000000E+02  0.51100000000E-03 0. -1.
    9900012    2    1    2    0    0  0.37178844992E+02  0.93793904984E+01 -0.20331849434E+02  0.47787267490E+02  0.19999983792E+02 0.  0.
        -12    1    1    2    0    0 -0.37178844992E+02 -0.93793904984E+01  0.20331849434E+02  0.43400732510E+02  0.00000000000E+00 0.  1.
         11    1    3    3    0    0  0.40416233454E+01  0.48775428078E+01 -0.15287859384E+01  0.65163125934E+01  0.51100000000E-03 0. -1.
        -11    1    3    3    0    0  0.16253235377E+02  0.32586848951E+01 -0.85585638395E+00  0.16598770372E+02  0.51100000000E-03 0.  1.
         12    1    3    3    0    0  0.16883986270E+02  0.12431627955E+01 -0.17947207112E+02  0.24672184524E+02  0.00000000000E+00 0. -1.
</event>
<event>
 7    1  0.2497395E-009  0.4778727E+02  0.7816164E-02  0.1312668E+00
        -11   -1    0    0    0    0  0.00000000000E+00  0.00000000000E+00  0.45593999997E+02  0.45594000000E+02  0.51100000000E-03 0.  1.
         11   -1    0    0    0    0 -0.00000000000E+00 -0.00000000000E+00 -0.45593999997E+02  0.45594000000E+02  0.51100000000E-03 0. -1.
    9900012    2    1    2    0    0 -0.93974062780E+01 -0.16303239250E+02 -0.39109031472E+02  0.47787271924E+02  0.20000004012E+02 0.  0.
        -12    1    1    2    0    0  0.93974062780E+01  0.16303239250E+02  0.39109031472E+02  0.43400728076E+02  0.00000000000E+00 0.  1.
         11    1    3    3    0    0 -0.73158313642E+01 -0.95442148195E+01 -0.34193877836E+02  0.36246857889E+02  0.51100000000E-03 0. -1.
        -11    1    3    3    0    0 -0.36739698111E+01 -0.20260556127E+01  0.43956093049E+00  0.42185506505E+01  0.51100000000E-03 0.  1.
        -12    1    3    3    0    0  0.15923948973E+01 -0.47329688182E+01 -0.53547145663E+01  0.73218633850E+01  0.00000000000E+00 0.  1.
</event>
<event>
 7    1  0.2497395E-009  0.4778727E+02  0.7816164E-02  0.1312668E+00
        -11   -1    0    0    0    0  0.00000000000E+00  0.00000000000E+00  0.45593999997E+02  0.45594000000E+02  0.51100000000E-03 0.  1.
         11   -1    0    0    0    0 -0.00000000000E+00 -0.00000000000E+00 -0.45593999997E+02  0.45594000000E+02  0.51100000000E-03 0. -1.
    9900012    2    1    2    0    0  0.33744539736E+02 -0.22789711762E+02 -0.15018610067E+02  0.47787267604E+02  0.19999984313E+02 0.  0.
        -12    1    1    2    0    0 -0.33744539736E+02  0.22789711762E+02  0.15018610067E+02  0.43400732396E+02  0.00000000000E+00 0.  1.
         11    1    3    3    0    0  0.13379599846E+02 -0.19249379510E+02 -0.47195304324E+01  0.23912889230E+02  0.51100000000E-03 0. -1.
        -11    1    3    3    0    0  0.16158767029E+02 -0.96694353206E+00 -0.57881912405E+01  0.17191389990E+02  0.51100000000E-03 0.  1.
        -12    1    3    3    0    0  0.42061728611E+01 -0.25733887200E+01 -0.45108883943E+01  0.66829883845E+01  0.00000000000E+00 0.  1.
</event>
<event>
 7    1  0.2497395E-009  0.4778727E+02  0.7816164E-02  0.1312668E+00
        -11   -1    0    0    0    0  0.00000000000E+00  0.00000000000E+00  0.45593999997E+02  0.45594000000E+02  0.51100000000E-03 0.  1.
         11   -1    0    0    0    0 -0.00000000000E+00 -0.00000000000E+00 -0.45593999997E+02  0.45594000000E+02  0.51100000000E-03 0. -1.
    9900012    2    1    2    0    0 -0.38450392978E+01 -0.17180241606E+02 -0.39669613512E+02  0.47787271146E+02  0.20000000463E+02 0.  0.
        -12    1    1    2    0    0  0.38450392978E+01  0.17180241606E+02  0.39669613512E+02  0.43400728854E+02  0.00000000000E+00 0.  1.
         11    1    3    3    0    0 -0.17883302336E+01 -0.35545395181E+01 -0.94483121546E+01  0.10251998783E+02  0.51100000000E-03 0. -1.
        -11    1    3    3    0    0  0.70860652365E+01 -0.83084076769E+01 -0.20212809872E+02  0.22973890437E+02  0.51100000000E-03 0.  1.
        -12    1    3    3    0    0 -0.91427743007E+01 -0.53172944109E+01 -0.10008491486E+02  0.14561381926E+02  0.00000000000E+00 0.  1.
</event>
<event>
 7    1  0.2497395E-009  0.4778727E+02  0.7816164E-02  0.1312668E+00
        -11   -1    0    0    0    0  0.00000000000E+00  0.00000000000E+00  0.45593999997E+02  0.45594000000E+02  0.51100000000E-03 0.  1.
         11   -1    0    0    0    0 -0.00000000000E+00 -0.00000000000E+00 -0.45593999997E+02  0.45594000000E+02  0.51100000000E-03 0. -1.
    9900012    2    1    2    0    0  0.32243211870E+02  0.25282980594E+02 -0.14309769239E+02  0.47787270570E+02  0.19999997835E+02 0.  0.
        -12    1    1    2    0    0 -0.32243211870E+02 -0.25282980594E+02  0.14309769239E+02  0.43400729430E+02  0.00000000000E+00 0.  1.
         11    1    3    3    0    0  0.28077714995E+02  0.11905303019E+02 -0.54922933798E+01  0.30988055862E+02  0.51100000000E-03 0. -1.
        -11    1    3    3    0    0  0.29316501203E+01  0.10474857570E+02 -0.53841633205E+01  0.12136985971E+02  0.51100000000E-03 0.  1.
         12    1    3    3    0    0  0.12338467549E+01  0.29028200051E+01 -0.34333125388E+01  0.46622287359E+01  0.00000000000E+00 0. -1.
</event>
<event>
 7    1  0.2497395E-009  0.4778727E+02  0.7816164E-02  0.1312668E+00
        -11   -1    0    0    0    0  0.00000000000E+00  0.00000000000E+00  0.45593999997E+02  0.45594000000E+02  0.51100000000E-03 0. -1.
         11   -1    0    0    0    0 -0.00000000000E+00 -0.00000000000E+00 -0.45593999997E+02  0.45594000000E+02  0.51100000000E-03 0.  1.
    9900012    2    1    2    0    0  0.12703848623E+02  0.41467806568E+02  0.16298642062E+01  0.47787271795E+02  0.20000003422E+02 0.  0.
        -12    1    1    2    0    0 -0.12703848623E+02 -0.41467806568E+02 -0.16298642062E+01  0.43400728205E+02  0.00000000000E+00 0.  1.
         11    1    3    3    0    0  0.10446397064E+02  0.19481432474E+02 -0.23578945442E+01  0.22230903936E+02  0.51100000000E-03 0. -1.
        -11    1    3    3    0    0 -0.76651323373E+00  0.15492504954E+02  0.78859538807E+01  0.17400963225E+02  0.51100000000E-03 0.  1.
         12    1    3    3    0    0  0.30239647927E+01  0.64938691403E+01 -0.38981951302E+01  0.81554046345E+01  0.00000000000E+00 0. -1.
</event>
<event>
 7    1  0.2497395E-009  0.4778726E+02  0.7816164E-02  0.1312668E+00
        -11   -1    0    0    0    0  0.00000000000E+00  0.00000000000E+00  0.45593999997E+02  0.45594000000E+02  0.51100000000E-03 0.  1.
         11   -1    0    0    0    0 -0.00000000000E+00 -0.00000000000E+00 -0.45593999997E+02  0.45594000000E+02  0.51100000000E-03 0. -1.
    9900012    2    1    2    0    0 -0.36635199779E+02 -0.97788821556E+01 -0.21115392704E+02  0.47787260282E+02  0.19999950929E+02 0.  0.
        -12    1    1    2    0    0  0.36635199779E+02  0.97788821556E+01  0.21115392704E+02  0.43400739718E+02  0.00000000000E+00 0.  1.
         11    1    3    3    0    0 -0.23995634648E+02  0.31429078095E+00 -0.14221169008E+02  0.27894997922E+02  0.51100000000E-03 0. -1.
        -11    1    3    3    0    0 -0.50601172230E+01 -0.29837358413E+00  0.10525786186E+01  0.51770392230E+01  0.51100000000E-03 0.  1.
         12    1    3    3    0    0 -0.75794479076E+01 -0.97947993524E+01 -0.79468023139E+01  0.14715223136E+02  0.00000000000E+00 0. -1.
</event>
<event>
 7    1  0.2497395E-009  0.4778726E+02  0.7816164E-02  0.1312668E+00
        -11   -1    0    0    0    0  0.00000000000E+00  0.00000000000E+00  0.45593999997E+02  0.45594000000E+02  0.51100000000E-03 0.  1.
         11   -1    0    0    0    0 -0.00000000000E+00 -0.00000000000E+00 -0.45593999997E+02  0.45594000000E+02  0.51100000000E-03 0. -1.
    9900012    2    1    2    0    0  0.16766912733E+02  0.74537469936E+01 -0.39331112085E+02  0.47787261703E+02  0.19999957409E+02 0.  0.
        -12    1    1    2    0    0 -0.16766912733E+02 -0.74537469936E+01  0.39331112085E+02  0.43400738297E+02  0.00000000000E+00 0.  1.
         11    1    3    3    0    0  0.12698766237E+02  0.20935592165E+01 -0.35859526639E+02  0.38099177224E+02  0.51100000000E-03 0. -1.
        -11    1    3    3    0    0  0.54365078796E+01  0.39326184441E+01 -0.14589733618E+01  0.68665645910E+01  0.51100000000E-03 0.  1.
         12    1    3    3    0    0 -0.13683613830E+01  0.14275693330E+01 -0.20126120849E+01  0.28215198881E+01  0.00000000000E+00 0. -1.
</event>
<event>
 7    1  0.2497395E-009  0.4778727E+02  0.7816164E-02  0.1312668E+00
        -11   -1    0    0    0    0  0.00000000000E+00  0.00000000000E+00  0.45593999997E+02  0.45594000000E+02  0.51100000000E-03 0.  1.
         11   -1    0    0    0    0 -0.00000000000E+00 -0.00000000000E+00 -0.45593999997E+02  0.45594000000E+02  0.51100000000E-03 0. -1.
    9900012    2    1    2    0    0 -0.64632826275E+01 -0.33405049458E+02 -0.26943501643E+02  0.47787266914E+02  0.19999981168E+02 0.  0.
        -12    1    1    2    0    0  0.64632826275E+01  0.33405049458E+02  0.26943501643E+02  0.43400733086E+02  0.00000000000E+00 0.  1.
         11    1    3    3    0    0 -0.51804311036E+01 -0.86436030319E+01 -0.16308533689E+02  0.19170733192E+02  0.51100000000E-03 0. -1.
        -11    1    3    3    0    0  0.38452411000E+01 -0.75151228556E+01 -0.20828605045E+01  0.86948984349E+01  0.51100000000E-03 0.  1.
        -12    1    3    3    0    0 -0.51280926240E+01 -0.17246323571E+02 -0.85521074496E+01  0.19921635287E+02  0.00000000000E+00 0.  1.
</event>
<event>
 7    1  0.2497395E-009  0.4778727E+02  0.7816164E-02  0.1312668E+00
        -11   -1    0    0    0    0  0.00000000000E+00  0.00000000000E+00  0.45593999997E+02  0.45594000000E+02  0.51100000000E-03 0.  1.
         11   -1    0    0    0    0 -0.00000000000E+00 -0.00000000000E+00 -0.45593999997E+02  0.45594000000E+02  0.51100000000E-03 0. -1.
    9900012    2    1    2    0    0  0.28936220726E+02 -0.30302351060E+02 -0.11317498432E+02  0.47787272812E+02  0.20000008060E+02 0.  0.
        -12    1    1    2    0    0 -0.28936220726E+02  0.30302351060E+02  0.11317498432E+02  0.43400727188E+02  0.00000000000E+00 0.  1.
         11    1    3    3    0    0  0.19197749342E+02 -0.27002076874E+02 -0.14629336459E+02  0.36217167487E+02  0.51100000000E-03 0. -1.
        -11    1    3    3    0    0  0.14342057994E+01  0.96508819336E+00  0.78484662285E+00  0.18985062493E+01  0.51100000000E-03 0.  1.
         12    1    3    3    0    0  0.83042655845E+01 -0.42653623796E+01  0.25269914042E+01  0.96715990759E+01  0.00000000000E+00 0. -1.
</event>
<event>
 7    1  0.2497395E-009  0.4778727E+02  0.7816164E-02  0.1312668E+00
        -11   -1    0    0    0    0  0.00000000000E+00  0.00000000000E+00  0.45593999997E+02  0.45594000000E+02  0.51100000000E-03 0. -1.
         11   -1    0    0    0    0 -0.00000000000E+00 -0.00000000000E+00 -0.45593999997E+02  0.45594000000E+02  0.51100000000E-03 0.  1.
    9900012    2    1    2    0    0  0.20551953187E+02  0.32896820806E+02  0.19468945272E+02  0.47787269258E+02  0.19999991857E+02 0.  0.
        -12    1    1    2    0    0 -0.20551953187E+02 -0.32896820806E+02 -0.19468945272E+02  0.43400730742E+02  0.00000000000E+00 0.  1.
         11    1    3    3    0    0 -0.38288476872E-01  0.26449113860E+01  0.18256745011E+01  0.32140488317E+01  0.51100000000E-03 0. -1.
        -11    1    3    3    0    0  0.50595173485E+01  0.21924709144E+02  0.14231139828E+02  0.26623615981E+02  0.51100000000E-03 0.  1.
        -12    1    3    3    0    0  0.15530724315E+02  0.83272002759E+01  0.34121309425E+01  0.17949604446E+02  0.00000000000E+00 0.  1.
</event>
<event>
 7    1  0.2497395E-009  0.4778727E+02  0.7816164E-02  0.1312668E+00
        -11   -1    0    0    0    0  0.00000000000E+00  0.00000000000E+00  0.45593999997E+02  0.45594000000E+02  0.51100000000E-03 0. -1.
         11   -1    0    0    0    0 -0.00000000000E+00 -0.00000000000E+00 -0.45593999997E+02  0.45594000000E+02  0.51100000000E-03 0.  1.
    9900012    2    1    2    0    0  0.40003868366E+02 -0.38096214770E+01 -0.16395140965E+02  0.47787270199E+02  0.19999996143E+02 0.  0.
        -12    1    1    2    0    0 -0.40003868366E+02  0.38096214770E+01  0.16395140965E+02  0.43400729801E+02  0.00000000000E+00 0.  1.
         11    1    3    3    0    0  0.49808696517E+01  0.60836503778E+00  0.15762114751E+01  0.52596210302E+01  0.51100000000E-03 0. -1.
        -11    1    3    3    0    0  0.32031312790E+02  0.12600955279E+01 -0.15906893109E+02  0.35785780534E+02  0.51100000000E-03 0.  1.
        -12    1    3    3    0    0  0.29916859244E+01 -0.56780820426E+01 -0.20644593302E+01  0.67418686340E+01  0.00000000000E+00 0.  1.
</event>
<event>
 7    1  0.2497395E-009  0.4778724E+02  0.7816164E-02  0.1312668E+00
        -11   -1    0    0    0    0  0.00000000000E+00  0.00000000000E+00  0.45593999997E+02  0.45594000000E+02  0.51100000000E-03 0.  1.
         11   -1    0    0    0    0 -0.00000000000E+00 -0.00000000000E+00 -0.45593999997E+02  0.45594000000E+02  0.51100000000E-03 0. -1.
    9900012    2    1    2    0    0  0.25382676530E+02 -0.32551501277E+02 -0.13406923732E+02  0.47787238403E+02  0.19999851174E+02 0.  0.
        -12    1    1    2    0    0 -0.25382676530E+02  0.32551501277E+02  0.13406923732E+02  0.43400761597E+02  0.00000000000E+00 0.  1.
         11    1    3    3    0    0  0.25045787530E+02 -0.31319259087E+02 -0.11479500420E+02  0.41712904393E+02  0.51100000000E-03 0. -1.
        -11    1    3    3    0    0 -0.12058789249E+00 -0.42178207749E+00 -0.38834728773E+01  0.39081713640E+01  0.51100000000E-03 0.  1.
         12    1    3    3    0    0  0.45747689281E+00 -0.81046011283E+00  0.19560495660E+01  0.21661626455E+01  0.00000000000E+00 0. -1.
</event>
<event>
 7    1  0.2497395E-009  0.4778727E+02  0.7816164E-02  0.1312668E+00
        -11   -1    0    0    0    0  0.00000000000E+00  0.00000000000E+00  0.45593999997E+02  0.45594000000E+02  0.51100000000E-03 0. -1.
         11   -1    0    0    0    0 -0.00000000000E+00 -0.00000000000E+00 -0.45593999997E+02  0.45594000000E+02  0.51100000000E-03 0.  1.
    9900012    2    1    2    0    0  0.82394587081E+01 -0.22236966255E+01  0.42553374438E+02  0.47787272096E+02  0.20000004797E+02 0.  0.
        -12    1    1    2    0    0 -0.82394587081E+01  0.22236966255E+01 -0.42553374438E+02  0.43400727904E+02  0.00000000000E+00 0.  1.
         11    1    3    3    0    0  0.62360300917E+01 -0.20934926671E+01  0.14118437963E+02  0.15575656443E+02  0.51100000000E-03 0. -1.
        -11    1    3    3    0    0  0.21072236517E+01  0.14315615626E+01  0.29935265297E+02  0.30043466323E+02  0.51100000000E-03 0.  1.
        -12    1    3    3    0    0 -0.10379503537E+00 -0.15617655210E+01 -0.15003288211E+01  0.21681493315E+01  0.00000000000E+00 0.  1.
</event>
<event>
 7    1  0.2497395E-009  0.4778727E+02  0.7816164E-02  0.1312668E+00
        -11   -1    0    0    0    0  0.00000000000E+00  0.00000000000E+00  0.45593999997E+02  0.45594000000E+02  0.51100000000E-03 0.  1.
         11   -1    0    0    0    0 -0.00000000000E+00 -0.00000000000E+00 -0.45593999997E+02  0.45594000000E+02  0.51100000000E-03 0. -1.
    9900012    2    1    2    0    0 -0.31822797975E+02 -0.28977175897E+02  0.55907210999E+01  0.47787270094E+02  0.19999995668E+02 0.  0.
        -12    1    1    2    0    0  0.31822797975E+02  0.28977175897E+02 -0.55907210999E+01  0.43400729906E+02  0.00000000000E+00 0.  1.
         11    1    3    3    0    0 -0.16814134369E+02 -0.19613105574E+02 -0.45565475449E+01  0.26232635221E+02  0.51100000000E-03 0. -1.
        -11    1    3    3    0    0 -0.98873100407E+01 -0.44352140739E+01  0.95109601181E+01  0.14418335076E+02  0.51100000000E-03 0.  1.
        -12    1    3    3    0    0 -0.51213535650E+01 -0.49288562495E+01  0.63630852674E+00  0.71362997980E+01  0.00000000000E+00 0.  1.
</event>
<event>
 7    1  0.2497395E-009  0.4778728E+02  0.7816164E-02  0.1312668E+00
        -11   -1    0    0    0    0  0.00000000000E+00  0.00000000000E+00  0.45593999997E+02  0.45594000000E+02  0.51100000000E-03 0.  1.
         11   -1    0    0    0    0 -0.00000000000E+00 -0.00000000000E+00 -0.45593999997E+02  0.45594000000E+02  0.51100000000E-03 0. -1.
    9900012    2    1    2    0    0  0.77368419949E+01 -0.10268067642E+02 -0.41452753140E+02  0.47787277885E+02  0.20000031191E+02 0.  0.
        -12    1    1    2    0    0 -0.77368419949E+01  0.10268067642E+02  0.41452753140E+02  0.43400722115E+02  0.00000000000E+00 0.  1.
         11    1    3    3    0    0  0.55132357348E+01 -0.55633079338E+01 -0.36111113599E+02  0.36950760331E+02  0.51100000000E-03 0. -1.
        -11    1    3    3    0    0 -0.46271887045E+00  0.93339429891E-01  0.17785460557E+01  0.18401215546E+01  0.51100000000E-03 0.  1.
         12    1    3    3    0    0  0.26863251306E+01 -0.47980991377E+01 -0.71201855970E+01  0.89963959994E+01  0.00000000000E+00 0. -1.
</event>
<event>
 7    1  0.2497395E-009  0.4778727E+02  0.7816164E-02  0.1312668E+00
        -11   -1    0    0    0    0  0.00000000000E+00  0.00000000000E+00  0.45593999997E+02  0.45594000000E+02  0.51100000000E-03 0.  1.
         11   -1    0    0    0    0 -0.00000000000E+00 -0.00000000000E+00 -0.45593999997E+02  0.45594000000E+02  0.51100000000E-03 0. -1.
    9900012    2    1    2    0    0 -0.34806477091E+02  0.23457857107E+00 -0.25924459952E+02  0.47787268458E+02  0.19999988209E+02 0.  0.
        -12    1    1    2    0    0  0.34806477091E+02 -0.23457857107E+00  0.25924459952E+02  0.43400731542E+02  0.00000000000E+00 0.  1.
         11    1    3    3    0    0 -0.21176058797E+02  0.85568566481E+01 -0.19057135038E+02  0.29745918342E+02  0.51100000000E-03 0. -1.
        -11    1    3    3    0    0 -0.84545171926E+01 -0.51762644146E+01 -0.67316762240E+01  0.11982822676E+02  0.51100000000E-03 0.  1.
         12    1    3    3    0    0 -0.51759011010E+01 -0.31460136625E+01 -0.13564868914E+00  0.60585274398E+01  0.00000000000E+00 0. -1.
</event>
<event>
 7    1  0.2497395E-009  0.4778727E+02  0.7816164E-02  0.1312668E+00
        -11   -1    0    0    0    0  0.00000000000E+00  0.00000000000E+00  0.45593999997E+02  0.45594000000E+02  0.51100000000E-03 0. -1.
         11   -1    0    0    0    0 -0.00000000000E+00 -0.00000000000E+00 -0.45593999997E+02  0.45594000000E+02  0.51100000000E-03 0.  1.
    9900012    2    1    2    0    0  0.21496322764E+01  0.32338709811E+02  0.28865381307E+02  0.47787270638E+02  0.19999998147E+02 0.  0.
        -12    1    1    2    0    0 -0.21496322764E+01 -0.32338709811E+02 -0.28865381307E+02  0.43400729362E+02  0.00000000000E+00 0.  1.
         11    1    3    3    0    0  0.75895135133E+01  0.17868497863E+02  0.24898254150E+02  0.31572250335E+02  0.51100000000E-03 0. -1.
        -11    1    3    3    0    0 -0.36374943508E+01  0.56498766134E+01  0.17201010341E+01  0.69362251064E+01  0.51100000000E-03 0.  1.
         12    1    3    3    0    0 -0.18023868861E+01  0.88203353345E+01  0.22470261228E+01  0.92787951964E+01  0.00000000000E+00 0. -1.
</event>
<event>
 7    1  0.2497395E-009  0.4778727E+02  0.7816164E-02  0.1312668E+00
        -11   -1    0    0    0    0  0.00000000000E+00  0.00000000000E+00  0.45593999997E+02  0.45594000000E+02  0.51100000000E-03 0. -1.
         11   -1    0    0    0    0 -0.00000000000E+00 -0.00000000000E+00 -0.45593999997E+02  0.45594000000E+02  0.51100000000E-03 0.  1.
    9900012    2    1    2    0    0  0.12118484644E+02 -0.41660655985E+02 -0.10749016751E+01  0.47787270274E+02  0.19999996486E+02 0.  0.
        -12    1    1    2    0    0 -0.12118484644E+02  0.41660655985E+02  0.10749016751E+01  0.43400729726E+02  0.00000000000E+00 0.  1.
         11    1    3    3    0    0 -0.28645599747E+01 -0.19958894576E+01 -0.69305203029E+00  0.35594381514E+01  0.51100000000E-03 0.  1.
        -11    1    3    3    0    0  0.13181220305E+02 -0.38364104487E+02  0.24368461755E+01  0.40638495313E+02  0.51100000000E-03 0. -1.
         12    1    3    3    0    0  0.18018243134E+01 -0.13006620408E+01 -0.28186958204E+01  0.35893368090E+01  0.00000000000E+00 0. -1.
</event>
<event>
 7    1  0.2497395E-009  0.4778727E+02  0.7816164E-02  0.1312668E+00
        -11   -1    0    0    0    0  0.00000000000E+00  0.00000000000E+00  0.45593999997E+02  0.45594000000E+02  0.51100000000E-03 0. -1.
         11   -1    0    0    0    0 -0.00000000000E+00 -0.00000000000E+00 -0.45593999997E+02  0.45594000000E+02  0.51100000000E-03 0.  1.
    9900012    2    1    2    0    0  0.20629140907E+02  0.35837712949E+02  0.13180294215E+02  0.47787270978E+02  0.19999999698E+02 0.  0.
        -12    1    1    2    0    0 -0.20629140907E+02 -0.35837712949E+02 -0.13180294215E+02  0.43400729022E+02  0.00000000000E+00 0.  1.
         11    1    3    3    0    0  0.10432810055E+02  0.13669980211E+02  0.12390960024E+02  0.21195465912E+02  0.51100000000E-03 0.  1.
        -11    1    3    3    0    0  0.10030668470E+02  0.22710743021E+02  0.23431027234E+01  0.24937567828E+02  0.51100000000E-03 0. -1.
         12    1    3    3    0    0  0.16566238172E+00 -0.54301028336E+00 -0.15537685316E+01  0.16542372389E+01  0.00000000000E+00 0. -1.
</event>
<event>
 7    1  0.2497395E-009  0.4778727E+02  0.7816164E-02  0.1312668E+00
        -11   -1    0    0    0    0  0.00000000000E+00  0.00000000000E+00  0.45593999997E+02  0.45594000000E+02  0.51100000000E-03 0. -1.
         11   -1    0    0    0    0 -0.00000000000E+00 -0.00000000000E+00 -0.45593999997E+02  0.45594000000E+02  0.51100000000E-03 0.  1.
    9900012    2    1    2    0    0 -0.30421339494E+02 -0.29388225480E+02  0.97209903747E+01  0.47787270198E+02  0.19999996140E+02 0.  0.
        -12    1    1    2    0    0  0.30421339494E+02  0.29388225480E+02 -0.97209903747E+01  0.43400729802E+02  0.00000000000E+00 0.  1.
         11    1    3    3    0    0 -0.11865391311E+02 -0.21978983239E+02  0.68013397578E+01  0.25886703883E+02  0.51100000000E-03 0. -1.
        -11    1    3    3    0    0 -0.97685764505E+01  0.62212120047E+00  0.16808401374E+01  0.99316335256E+01  0.51100000000E-03 0.  1.
        -12    1    3    3    0    0 -0.87873717324E+01 -0.80313634418E+01  0.12388104795E+01  0.11968932789E+02  0.00000000000E+00 0.  1.
</event>
<event>
 7    1  0.2497395E-009  0.4778726E+02  0.7816164E-02  0.1312668E+00
        -11   -1    0    0    0    0  0.00000000000E+00  0.00000000000E+00  0.45593999997E+02  0.45594000000E+02  0.51100000000E-03 0.  1.
         11   -1    0    0    0    0 -0.00000000000E+00 -0.00000000000E+00 -0.45593999997E+02  0.45594000000E+02  0.51100000000E-03 0. -1.
    9900012    2    1    2    0    0  0.24619062352E+02  0.35616520876E+02 -0.29982064572E+01  0.47787262306E+02  0.19999960158E+02 0.  0.
        -12    1    1    2    0    0 -0.24619062352E+02 -0.35616520876E+02  0.29982064572E+01  0.43400737694E+02  0.00000000000E+00 0.  1.
         11    1    3    3    0    0  0.57999933285E+01  0.22948343406E+01 -0.45751567638E+01  0.77355185305E+01  0.51100000000E-03 0. -1.
        -11    1    3    3    0    0  0.16673559756E+02  0.25336787811E+02  0.56214884314E+01  0.30847391201E+02  0.51100000000E-03 0.  1.
        -12    1    3    3    0    0  0.21455092679E+01  0.79848987250E+01 -0.40445381248E+01  0.92043525742E+01  0.00000000000E+00 0.  1.
</event>
<event>
 7    1  0.2497395E-009  0.4778727E+02  0.7816164E-02  0.1312668E+00
        -11   -1    0    0    0    0  0.00000000000E+00  0.00000000000E+00  0.45593999997E+02  0.45594000000E+02  0.51100000000E-03 0. -1.
         11   -1    0    0    0    0 -0.00000000000E+00 -0.00000000000E+00 -0.45593999997E+02  0.45594000000E+02  0.51100000000E-03 0.  1.
    9900012    2    1    2    0    0  0.23881236802E+02 -0.34549513621E+02  0.10938046764E+02  0.47787271554E+02  0.20000002322E+02 0.  0.
        -12    1    1    2    0    0 -0.23881236802E+02  0.34549513621E+02 -0.10938046764E+02  0.43400728446E+02  0.00000000000E+00 0.  1.
         11    1    3    3    0    0  0.14814903611E+02 -0.20227172868E+02  0.66719964599E+01  0.25944853599E+02  0.51100000000E-03 0. -1.
        -11    1    3    3    0    0 -0.19410364692E+01 -0.66623724895E+01 -0.17313291079E+01  0.71520857450E+01  0.51100000000E-03 0.  1.
        -12    1    3    3    0    0  0.11007369660E+02 -0.76599682639E+01  0.59973794117E+01  0.14690332210E+02  0.00000000000E+00 0.  1.
</event>
<event>
 7    1  0.2497395E-009  0.4778727E+02  0.7816164E-02  0.1312668E+00
        -11   -1    0    0    0    0  0.00000000000E+00  0.00000000000E+00  0.45593999997E+02  0.45594000000E+02  0.51100000000E-03 0.  1.
         11   -1    0    0    0    0 -0.00000000000E+00 -0.00000000000E+00 -0.45593999997E+02  0.45594000000E+02  0.51100000000E-03 0. -1.
    9900012    2    1    2    0    0  0.12653666523E+02  0.46356748484E+01 -0.41255528294E+02  0.47787269907E+02  0.19999994815E+02 0.  0.
        -12    1    1    2    0    0 -0.12653666523E+02 -0.46356748484E+01  0.41255528294E+02  0.43400730093E+02  0.00000000000E+00 0.  1.
         11    1    3    3    0    0 -0.37986053421E+01 -0.22700841996E+01 -0.10673408371E+02  0.11554407442E+02  0.51100000000E-03 0. -1.
        -11    1    3    3    0    0  0.17092855222E+02  0.71782359558E+01 -0.28175679228E+02  0.33727758172E+02  0.51100000000E-03 0.  1.
        -12    1    3    3    0    0 -0.64058335689E+00 -0.27247690783E+00 -0.24064406945E+01  0.25051042930E+01  0.00000000000E+00 0.  1.
</event>
<event>
 7    1  0.2497395E-009  0.4778728E+02  0.7816164E-02  0.1312668E+00
        -11   -1    0    0    0    0  0.00000000000E+00  0.00000000000E+00  0.45593999997E+02  0.45594000000E+02  0.51100000000E-03 0.  1.
         11   -1    0    0    0    0 -0.00000000000E+00 -0.00000000000E+00 -0.45593999997E+02  0.45594000000E+02  0.51100000000E-03 0. -1.
    9900012    2    1    2    0    0  0.36612771549E+02 -0.22268492331E+02 -0.68732854003E+01  0.47787276004E+02  0.20000022611E+02 0.  0.
        -12    1    1    2    0    0 -0.36612771549E+02  0.22268492331E+02  0.68732854003E+01  0.43400723996E+02  0.00000000000E+00 0.  1.
         11    1    3    3    0    0  0.30828060049E+02 -0.13641998054E+02 -0.27059244686E+01  0.33820044719E+02  0.51100000000E-03 0. -1.
        -11    1    3    3    0    0  0.59720697959E+01 -0.10157279998E+02 -0.35498688002E+01  0.12305995424E+02  0.51100000000E-03 0.  1.
         12    1    3    3    0    0 -0.18735829624E+00  0.15307857206E+01 -0.61749213152E+00  0.16612358611E+01  0.00000000000E+00 0. -1.
</event>
<event>
 7    1  0.2497395E-009  0.4778727E+02  0.7816164E-02  0.1312668E+00
        -11   -1    0    0    0    0  0.00000000000E+00  0.00000000000E+00  0.45593999997E+02  0.45594000000E+02  0.51100000000E-03 0.  1.
         11   -1    0    0    0    0 -0.00000000000E+00 -0.00000000000E+00 -0.45593999997E+02  0.45594000000E+02  0.51100000000E-03 0. -1.
    9900012    2    1    2    0    0  0.39074727155E+02 -0.99708578190E+01 -0.16042785285E+02  0.47787271117E+02  0.20000000331E+02 0.  0.
        -12    1    1    2    0    0 -0.39074727155E+02  0.99708578190E+01  0.16042785285E+02  0.43400728883E+02  0.00000000000E+00 0.  1.
         11    1    3    3    0    0  0.26960188794E+01 -0.42167544603E+01 -0.30505669439E+01  0.58613560647E+01  0.51100000000E-03 0. -1.
        -11    1    3    3    0    0  0.56207145469E+01 -0.10312896447E+01  0.35061399276E+01  0.67044021212E+01  0.51100000000E-03 0.  1.
        -12    1    3    3    0    0  0.30757993729E+02 -0.47228137139E+01 -0.16498358269E+02  0.35221512931E+02  0.00000000000E+00 0.  1.
</event>
<event>
 7    1  0.2497395E-009  0.4778727E+02  0.7816164E-02  0.1312668E+00
        -11   -1    0    0    0    0  0.00000000000E+00  0.00000000000E+00  0.45593999997E+02  0.45594000000E+02  0.51100000000E-03 0.  1.
         11   -1    0    0    0    0 -0.00000000000E+00 -0.00000000000E+00 -0.45593999997E+02  0.45594000000E+02  0.51100000000E-03 0. -1.
    9900012    2    1    2    0    0 -0.34171764738E+02  0.26753866682E+02  0.38019462992E+00  0.47787269180E+02  0.19999991499E+02 0.  0.
        -12    1    1    2    0    0  0.34171764738E+02 -0.26753866682E+02 -0.38019462992E+00  0.43400730820E+02  0.00000000000E+00 0.  1.
         11    1    3    3    0    0 -0.26354238763E+02  0.13566693781E+02 -0.30630683558E+01  0.29799051477E+02  0.51100000000E-03 0. -1.
        -11    1    3    3    0    0 -0.78250826330E+01  0.14022378480E+02  0.18175853376E+01  0.16160527008E+02  0.51100000000E-03 0.  1.
         12    1    3    3    0    0  0.75566580046E-02 -0.83520557860E+00  0.16256776481E+01  0.18276906951E+01  0.00000000000E+00 0. -1.
</event>
<event>
 7    1  0.2497395E-009  0.4778727E+02  0.7816164E-02  0.1312668E+00
        -11   -1    0    0    0    0  0.00000000000E+00  0.00000000000E+00  0.45593999997E+02  0.45594000000E+02  0.51100000000E-03 0.  1.
         11   -1    0    0    0    0 -0.00000000000E+00 -0.00000000000E+00 -0.45593999997E+02  0.45594000000E+02  0.51100000000E-03 0. -1.
    9900012    2    1    2    0    0  0.38039138252E+02 -0.55868758022E+01 -0.20135403280E+02  0.47787266303E+02  0.19999978381E+02 0.  0.
        -12    1    1    2    0    0 -0.38039138252E+02  0.55868758022E+01  0.20135403280E+02  0.43400733697E+02  0.00000000000E+00 0.  1.
         11    1    3    3    0    0  0.16340593241E+02 -0.67907604450E+01 -0.15736903478E+02  0.23680784325E+02  0.51100000000E-03 0. -1.
        -11    1    3    3    0    0  0.22566450369E+02  0.11681845669E+01 -0.48738135230E+01  0.23116301520E+02  0.51100000000E-03 0.  1.
        -12    1    3    3    0    0 -0.86790535851E+00  0.35700075820E-01  0.47531372047E+00  0.99018045810E+00  0.00000000000E+00 0.  1.
</event>
<event>
 7    1  0.2497395E-009  0.4778728E+02  0.7816164E-02  0.1312668E+00
        -11   -1    0    0    0    0  0.00000000000E+00  0.00000000000E+00  0.45593999997E+02  0.45594000000E+02  0.51100000000E-03 0. -1.
         11   -1    0    0    0    0 -0.00000000000E+00 -0.00000000000E+00 -0.45593999997E+02  0.45594000000E+02  0.51100000000E-03 0.  1.
    9900012    2    1    2    0    0 -0.99418657222E+00 -0.21097715955E+02  0.37914651214E+02  0.47787276479E+02  0.20000024778E+02 0.  0.
        -12    1    1    2    0    0  0.99418657222E+00  0.21097715955E+02 -0.37914651214E+02  0.43400723521E+02  0.00000000000E+00 0.  1.
         11    1    3    3    0    0  0.73452391964E+01 -0.72948631762E+01  0.18962144094E+02  0.21603945855E+02  0.51100000000E-03 0. -1.
        -11    1    3    3    0    0 -0.65396695260E+01 -0.89825992763E+01  0.69017076063E+01  0.13080058693E+02  0.51100000000E-03 0.  1.
        -12    1    3    3    0    0 -0.17997562426E+01 -0.48202535025E+01  0.12050799514E+02  0.13103271931E+02  0.00000000000E+00 0.  1.
</event>
<event>
 7    1  0.2497395E-009  0.4778728E+02  0.7816164E-02  0.1312668E+00
        -11   -1    0    0    0    0  0.00000000000E+00  0.00000000000E+00  0.45593999997E+02  0.45594000000E+02  0.51100000000E-03 0. -1.
         11   -1    0    0    0    0 -0.00000000000E+00 -0.00000000000E+00 -0.45593999997E+02  0.45594000000E+02  0.51100000000E-03 0.  1.
    9900012    2    1    2    0    0 -0.21973463804E+01 -0.28898043852E+02 -0.32306307964E+02  0.47787276459E+02  0.20000024687E+02 0.  0.
        -12    1    1    2    0    0  0.21973463804E+01  0.28898043852E+02  0.32306307964E+02  0.43400723541E+02  0.00000000000E+00 0.  1.
         11    1    3    3    0    0 -0.55088932451E+01 -0.73461726102E+01 -0.45028812213E+01  0.10226929958E+02  0.51100000000E-03 0. -1.
        -11    1    3    3    0    0  0.98428405162E+00 -0.17852510471E+02 -0.27958903855E+02  0.33187064502E+02  0.51100000000E-03 0.  1.
        -12    1    3    3    0    0  0.23272628130E+01 -0.36993607708E+01  0.15547711190E+00  0.43732819994E+01  0.00000000000E+00 0.  1.
</event>
<event>
 7    1  0.2497395E-009  0.4778727E+02  0.7816164E-02  0.1312668E+00
        -11   -1    0    0    0    0  0.00000000000E+00  0.00000000000E+00  0.45593999997E+02  0.45594000000E+02  0.51100000000E-03 0. -1.
         11   -1    0    0    0    0 -0.00000000000E+00 -0.00000000000E+00 -0.45593999997E+02  0.45594000000E+02  0.51100000000E-03 0.  1.
    9900012    2    1    2    0    0 -0.28785063803E+02 -0.41392597072E+01  0.32216609150E+02  0.47787271041E+02  0.19999999983E+02 0.  0.
        -12    1    1    2    0    0  0.28785063803E+02  0.41392597072E+01 -0.32216609150E+02  0.43400728959E+02  0.00000000000E+00 0.  1.
         11    1    3    3    0    0 -0.23733077614E+02 -0.33531954356E+01  0.17559091898E+02  0.29712364450E+02  0.51100000000E-03 0. -1.
        -11    1    3    3    0    0 -0.15654376494E+00 -0.78973637531E+00  0.12821095627E+02  0.12846349008E+02  0.51100000000E-03 0.  1.
        -12    1    3    3    0    0 -0.48954424239E+01  0.36721037436E-02  0.18364216247E+01  0.52285575825E+01  0.00000000000E+00 0.  1.
</event>
<event>
 7    1  0.2497395E-009  0.4778727E+02  0.7816164E-02  0.1312668E+00
        -11   -1    0    0    0    0  0.00000000000E+00  0.00000000000E+00  0.45593999997E+02  0.45594000000E+02  0.51100000000E-03 0.  1.
         11   -1    0    0    0    0 -0.00000000000E+00 -0.00000000000E+00 -0.45593999997E+02  0.45594000000E+02  0.51100000000E-03 0. -1.
    9900012    2    1    2    0    0 -0.40797857651E+02 -0.13038749186E+02 -0.70106364894E+01  0.47787271973E+02  0.20000004235E+02 0.  0.
        -12    1    1    2    0    0  0.40797857651E+02  0.13038749186E+02  0.70106364894E+01  0.43400728027E+02  0.00000000000E+00 0.  1.
         11    1    3    3    0    0 -0.24186291915E+02 -0.14639064850E+01  0.19127559825E+01  0.24305932908E+02  0.51100000000E-03 0. -1.
        -11    1    3    3    0    0 -0.14846214797E+02 -0.12301993658E+02 -0.94900625601E+01  0.21489774997E+02  0.51100000000E-03 0.  1.
        -12    1    3    3    0    0 -0.17653509388E+01  0.72715095674E+00  0.56667008817E+00  0.19915640687E+01  0.00000000000E+00 0.  1.
</event>
<event>
 7    1  0.2497395E-009  0.4778727E+02  0.7816164E-02  0.1312668E+00
        -11   -1    0    0    0    0  0.00000000000E+00  0.00000000000E+00  0.45593999997E+02  0.45594000000E+02  0.51100000000E-03 0.  1.
         11   -1    0    0    0    0 -0.00000000000E+00 -0.00000000000E+00 -0.45593999997E+02  0.45594000000E+02  0.51100000000E-03 0. -1.
    9900012    2    1    2    0    0  0.26121216621E+02 -0.78733838700E+01 -0.33753742964E+02  0.47787270797E+02  0.19999998871E+02 0.  0.
        -12    1    1    2    0    0 -0.26121216621E+02  0.78733838700E+01  0.33753742964E+02  0.43400729203E+02  0.00000000000E+00 0.  1.
         11    1    3    3    0    0  0.51448045762E+01 -0.27243783502E+01 -0.44964691795E+01  0.73559150937E+01  0.51100000000E-03 0.  1.
        -11    1    3    3    0    0  0.19608859150E+02 -0.98801403871E+01 -0.27526499487E+02  0.35211258221E+02  0.51100000000E-03 0. -1.
        -12    1    3    3    0    0  0.13675528944E+01  0.47311348673E+01 -0.17307742967E+01  0.52200974816E+01  0.00000000000E+00 0.  1.
</event>
<event>
 7    1  0.2497395E-009  0.4778727E+02  0.7816164E-02  0.1312668E+00
        -11   -1    0    0    0    0  0.00000000000E+00  0.00000000000E+00  0.45593999997E+02  0.45594000000E+02  0.51100000000E-03 0.  1.
         11   -1    0    0    0    0 -0.00000000000E+00 -0.00000000000E+00 -0.45593999997E+02  0.45594000000E+02  0.51100000000E-03 0. -1.
    9900012    2    1    2    0    0 -0.32505378703E+01  0.25571320926E+02 -0.34916540912E+02  0.47787270978E+02  0.19999999699E+02 0.  0.
        -12    1    1    2    0    0  0.32505378703E+01 -0.25571320926E+02  0.34916540912E+02  0.43400729022E+02  0.00000000000E+00 0.  1.
         11    1    3    3    0    0 -0.23070946843E+01  0.20543404599E+01 -0.29402201368E+01  0.42647268753E+01  0.51100000000E-03 0. -1.
        -11    1    3    3    0    0 -0.31697585797E+00  0.18042274046E+02 -0.95245566055E+01  0.20404443272E+02  0.51100000000E-03 0.  1.
        -12    1    3    3    0    0 -0.62646732803E+00  0.54747064198E+01 -0.22451764170E+02  0.23118100831E+02  0.00000000000E+00 0.  1.
</event>
<event>
 7    1  0.2497395E-009  0.4778727E+02  0.7816164E-02  0.1312668E+00
        -11   -1    0    0    0    0  0.00000000000E+00  0.00000000000E+00  0.45593999997E+02  0.45594000000E+02  0.51100000000E-03 0.  1.
         11   -1    0    0    0    0 -0.00000000000E+00 -0.00000000000E+00 -0.45593999997E+02  0.45594000000E+02  0.51100000000E-03 0. -1.
    9900012    2    1    2    0    0  0.20892865183E+02  0.15222992652E+02 -0.34862187166E+02  0.47787269420E+02  0.19999992596E+02 0.  0.
        -12    1    1    2    0    0 -0.20892865183E+02 -0.15222992652E+02  0.34862187166E+02  0.43400730580E+02  0.00000000000E+00 0.  1.
         11    1    3    3    0    0  0.12415063988E+02  0.10598822798E+02 -0.23558918760E+02  0.28661673223E+02  0.51100000000E-03 0. -1.
        -11    1    3    3    0    0  0.33580301687E+01 -0.40084191309E+00  0.20590409707E+01  0.39593801072E+01  0.51100000000E-03 0.  1.
        -12    1    3    3    0    0  0.51197710265E+01  0.50250117664E+01 -0.13362309377E+02  0.15166216091E+02  0.00000000000E+00 0.  1.
</event>
<event>
 7    1  0.2497395E-009  0.4778727E+02  0.7816164E-02  0.1312668E+00
        -11   -1    0    0    0    0  0.00000000000E+00  0.00000000000E+00  0.45593999997E+02  0.45594000000E+02  0.51100000000E-03 0. -1.
         11   -1    0    0    0    0 -0.00000000000E+00 -0.00000000000E+00 -0.45593999997E+02  0.45594000000E+02  0.51100000000E-03 0.  1.
    9900012    2    1    2    0    0 -0.33021318365E+02  0.18817314393E+02 -0.20955302027E+02  0.47787268778E+02  0.19999989668E+02 0.  0.
        -12    1    1    2    0    0  0.33021318365E+02 -0.18817314393E+02  0.20955302027E+02  0.43400731222E+02  0.00000000000E+00 0.  1.
         11    1    3    3    0    0 -0.18070420361E+02  0.23033178293E+00 -0.58650380084E+01  0.18999784626E+02  0.51100000000E-03 0. -1.
        -11    1    3    3    0    0 -0.80943971269E+01  0.99683433620E+01 -0.11403662710E+02  0.17173545286E+02  0.51100000000E-03 0.  1.
         12    1    3    3    0    0 -0.68565008772E+01  0.86186392481E+01 -0.36866013084E+01  0.11613938866E+02  0.00000000000E+00 0. -1.
</event>
<event>
 7    1  0.2497395E-009  0.4778731E+02  0.7816164E-02  0.1312668E+00
        -11   -1    0    0    0    0  0.00000000000E+00  0.00000000000E+00  0.45593999997E+02  0.45594000000E+02  0.51100000000E-03 0.  1.
         11   -1    0    0    0    0 -0.00000000000E+00 -0.00000000000E+00 -0.45593999997E+02  0.45594000000E+02  0.51100000000E-03 0. -1.
    9900012    2    1    2    0    0 -0.35350481054E+02 -0.54873195685E+01 -0.24573422498E+02  0.47787305535E+02  0.20000157255E+02 0.  0.
        -12    1    1    2    0    0  0.35350481054E+02  0.54873195685E+01  0.24573422498E+02  0.43400694465E+02  0.00000000000E+00 0.  1.
         11    1    3    3    0    0 -0.16065629637E+02 -0.80001903457E+01 -0.50436934060E+01  0.18642594901E+02  0.51100000000E-03 0. -1.
        -11    1    3    3    0    0 -0.17841891113E+02  0.44347295590E+01 -0.19415454449E+02  0.26738731767E+02  0.51100000000E-03 0.  1.
        -12    1    3    3    0    0 -0.14429603043E+01 -0.19218587819E+01 -0.11427464217E+00  0.24059788675E+01  0.00000000000E+00 0.  1.
</event>
<event>
 7    1  0.2497395E-009  0.4778728E+02  0.7816164E-02  0.1312668E+00
        -11   -1    0    0    0    0  0.00000000000E+00  0.00000000000E+00  0.45593999997E+02  0.45594000000E+02  0.51100000000E-03 0.  1.
         11   -1    0    0    0    0 -0.00000000000E+00 -0.00000000000E+00 -0.45593999997E+02  0.45594000000E+02  0.51100000000E-03 0. -1.
    9900012    2    1    2    0    0  0.24258134883E+02  0.29913491244E+02 -0.20008718972E+02  0.47787275337E+02  0.20000019571E+02 0.  0.
        -12    1    1    2    0    0 -0.24258134883E+02 -0.29913491244E+02  0.20008718972E+02  0.43400724663E+02  0.00000000000E+00 0.  1.
         11    1    3    3    0    0  0.20634612382E+02  0.20390055025E+02 -0.19579420440E+02  0.34998503926E+02  0.51100000000E-03 0. -1.
        -11    1    3    3    0    0 -0.23456425173E+01  0.31936478552E+01  0.67150618192E+00  0.40189981657E+01  0.51100000000E-03 0.  1.
         12    1    3    3    0    0  0.59691650183E+01  0.63297883642E+01 -0.11008047140E+01  0.87697732451E+01  0.00000000000E+00 0. -1.
</event>
<event>
 7    1  0.2497395E-009  0.4778727E+02  0.7816164E-02  0.1312668E+00
        -11   -1    0    0    0    0  0.00000000000E+00  0.00000000000E+00  0.45593999997E+02  0.45594000000E+02  0.51100000000E-03 0. -1.
         11   -1    0    0    0    0 -0.00000000000E+00 -0.00000000000E+00 -0.45593999997E+02  0.45594000000E+02  0.51100000000E-03 0.  1.
    9900012    2    1    2    0    0  0.25466665876E+02  0.17870594787E+02  0.30260769071E+02  0.47787269895E+02  0.19999994760E+02 0.  0.
        -12    1    1    2    0    0 -0.25466665876E+02 -0.17870594787E+02 -0.30260769071E+02  0.43400730105E+02  0.00000000000E+00 0.  1.
         11    1    3    3    0    0 -0.23261545750E+01  0.17228753323E+01  0.49691646830E+01  0.57508166747E+01  0.51100000000E-03 0. -1.
        -11    1    3    3    0    0  0.12096016632E-01  0.70666077142E-01  0.28990548046E+01  0.28999412113E+01  0.51100000000E-03 0.  1.
         12    1    3    3    0    0  0.27780724434E+02  0.16077053378E+02  0.22392549583E+02  0.39136512009E+02  0.00000000000E+00 0. -1.
</event>
<event>
 7    1  0.2497395E-009  0.4778727E+02  0.7816164E-02  0.1312668E+00
        -11   -1    0    0    0    0  0.00000000000E+00  0.00000000000E+00  0.45593999997E+02  0.45594000000E+02  0.51100000000E-03 0.  1.
         11   -1    0    0    0    0 -0.00000000000E+00 -0.00000000000E+00 -0.45593999997E+02  0.45594000000E+02  0.51100000000E-03 0. -1.
    9900012    2    1    2    0    0 -0.19931026995E+02  0.35078708040E+02 -0.15995679342E+02  0.47787270139E+02  0.19999995873E+02 0.  0.
        -12    1    1    2    0    0  0.19931026995E+02 -0.35078708040E+02  0.15995679342E+02  0.43400729861E+02  0.00000000000E+00 0.  1.
         11    1    3    3    0    0 -0.10306756559E+02  0.27947344173E+02 -0.71051324044E+01  0.30622968241E+02  0.51100000000E-03 0. -1.
        -11    1    3    3    0    0 -0.12264334036E+01  0.42004753418E+01 -0.67025988620E+01  0.80045589358E+01  0.51100000000E-03 0.  1.
         12    1    3    3    0    0 -0.83978370321E+01  0.29308885249E+01 -0.21879480760E+01  0.91597429629E+01  0.00000000000E+00 0. -1.
</event>
<event>
 7    1  0.2497395E-009  0.4778727E+02  0.7816164E-02  0.1312668E+00
        -11   -1    0    0    0    0  0.00000000000E+00  0.00000000000E+00  0.45593999997E+02  0.45594000000E+02  0.51100000000E-03 0.  1.
         11   -1    0    0    0    0 -0.00000000000E+00 -0.00000000000E+00 -0.45593999997E+02  0.45594000000E+02  0.51100000000E-03 0. -1.
    9900012    2    1    2    0    0 -0.29386240314E+02 -0.73243164508E+01 -0.31087403152E+02  0.47787269983E+02  0.19999995161E+02 0.  0.
        -12    1    1    2    0    0  0.29386240314E+02  0.73243164508E+01  0.31087403152E+02  0.43400730017E+02  0.00000000000E+00 0.  1.
         11    1    3    3    0    0 -0.11922078827E+02 -0.33633072874E+01 -0.18563339752E+02  0.22316930400E+02  0.51100000000E-03 0. -1.
        -11    1    3    3    0    0 -0.16699875621E+02 -0.62230591840E+00 -0.53942177296E+01  0.17560486770E+02  0.51100000000E-03 0.  1.
        -12    1    3    3    0    0 -0.76428586579E+00 -0.33387032450E+01 -0.71298456705E+01  0.79098528133E+01  0.00000000000E+00 0.  1.
</event>
<event>
 7    1  0.2497395E-009  0.4778727E+02  0.7816164E-02  0.1312668E+00
        -11   -1    0    0    0    0  0.00000000000E+00  0.00000000000E+00  0.45593999997E+02  0.45594000000E+02  0.51100000000E-03 0.  1.
         11   -1    0    0    0    0 -0.00000000000E+00 -0.00000000000E+00 -0.45593999997E+02  0.45594000000E+02  0.51100000000E-03 0. -1.
    9900012    2    1    2    0    0  0.20507723490E+02 -0.21607243301E+02 -0.31562376992E+02  0.47787270430E+02  0.19999997201E+02 0.  0.
        -12    1    1    2    0    0 -0.20507723490E+02  0.21607243301E+02  0.31562376992E+02  0.43400729570E+02  0.00000000000E+00 0.  1.
         11    1    3    3    0    0  0.58976990582E+01 -0.57010100761E+01 -0.65354129413E+01  0.10487897437E+02  0.51100000000E-03 0. -1.
        -11    1    3    3    0    0  0.11880562010E+02 -0.11248268432E+02 -0.26984359261E+02  0.31556725771E+02  0.51100000000E-03 0.  1.
        -12    1    3    3    0    0  0.27294624222E+01 -0.46579647922E+01  0.19573952103E+01  0.57426472231E+01  0.00000000000E+00 0.  1.
</event>
<event>
 7    1  0.2497395E-009  0.4778727E+02  0.7816164E-02  0.1312668E+00
        -11   -1    0    0    0    0  0.00000000000E+00  0.00000000000E+00  0.45593999997E+02  0.45594000000E+02  0.51100000000E-03 0. -1.
         11   -1    0    0    0    0 -0.00000000000E+00 -0.00000000000E+00 -0.45593999997E+02  0.45594000000E+02  0.51100000000E-03 0.  1.
    9900012    2    1    2    0    0  0.35565385290E+02  0.17492104450E+02 -0.17684825595E+02  0.47787269531E+02  0.19999993099E+02 0.  0.
        -12    1    1    2    0    0 -0.35565385290E+02 -0.17492104450E+02  0.17684825595E+02  0.43400730469E+02  0.00000000000E+00 0.  1.
         11    1    3    3    0    0  0.29335460298E+02  0.10822617867E+02 -0.85472514368E+01  0.32415332726E+02  0.51100000000E-03 0. -1.
        -11    1    3    3    0    0  0.39725381479E+01  0.46799086293E+01 -0.10425796029E+02  0.12098753127E+02  0.51100000000E-03 0.  1.
         12    1    3    3    0    0  0.22573868448E+01  0.19895779534E+01  0.12882218712E+01  0.32731836779E+01  0.00000000000E+00 0. -1.
</event>
<event>
 7    1  0.2497395E-009  0.4778727E+02  0.7816164E-02  0.1312668E+00
        -11   -1    0    0    0    0  0.00000000000E+00  0.00000000000E+00  0.45593999997E+02  0.45594000000E+02  0.51100000000E-03 0. -1.
         11   -1    0    0    0    0 -0.00000000000E+00 -0.00000000000E+00 -0.45593999997E+02  0.45594000000E+02  0.51100000000E-03 0.  1.
    9900012    2    1    2    0    0  0.19422836224E+02 -0.35766079543E+02  0.15071968619E+02  0.47787271309E+02  0.20000001207E+02 0.  0.
        -12    1    1    2    0    0 -0.19422836224E+02  0.35766079543E+02 -0.15071968619E+02  0.43400728691E+02  0.00000000000E+00 0.  1.
         11    1    3    3    0    0 -0.14393778540E+01 -0.13740468323E+02  0.77856245280E+01  0.15858380368E+02  0.51100000000E-03 0. -1.
        -11    1    3    3    0    0  0.82030489621E+01 -0.44458522408E+01  0.33325835574E+01  0.99076600592E+01  0.51100000000E-03 0.  1.
         12    1    3    3    0    0  0.12659165116E+02 -0.17579758979E+02  0.39537605332E+01  0.22021230882E+02  0.00000000000E+00 0. -1.
</event>
<event>
 7    1  0.2497395E-009  0.4778727E+02  0.7816164E-02  0.1312668E+00
        -11   -1    0    0    0    0  0.00000000000E+00  0.00000000000E+00  0.45593999997E+02  0.45594000000E+02  0.51100000000E-03 0.  1.
         11   -1    0    0    0    0 -0.00000000000E+00 -0.00000000000E+00 -0.45593999997E+02  0.45594000000E+02  0.51100000000E-03 0. -1.
    9900012    2    1    2    0    0  0.21080477964E+02  0.37083612202E+02  0.80026446063E+01  0.47787272290E+02  0.20000005677E+02 0.  0.
        -12    1    1    2    0    0 -0.21080477964E+02 -0.37083612202E+02 -0.80026446063E+01  0.43400727710E+02  0.00000000000E+00 0.  1.
         11    1    3    3    0    0  0.11605190626E+02  0.24470331931E+02 -0.15920789210E+01  0.27129546805E+02  0.51100000000E-03 0. -1.
        -11    1    3    3    0    0 -0.24420213020E+00  0.71310627641E+01  0.37758856772E+01  0.80727321109E+01  0.51100000000E-03 0.  1.
         12    1    3    3    0    0  0.97194894675E+01  0.54822175069E+01  0.58188378501E+01  0.12584993374E+02  0.00000000000E+00 0. -1.
</event>
<event>
 7    1  0.2497395E-009  0.4778727E+02  0.7816164E-02  0.1312668E+00
        -11   -1    0    0    0    0  0.00000000000E+00  0.00000000000E+00  0.45593999997E+02  0.45594000000E+02  0.51100000000E-03 0.  1.
         11   -1    0    0    0    0 -0.00000000000E+00 -0.00000000000E+00 -0.45593999997E+02  0.45594000000E+02  0.51100000000E-03 0. -1.
    9900012    2    1    2    0    0 -0.17346985212E+01  0.17731589191E+02 -0.39575310656E+02  0.47787266737E+02  0.19999980361E+02 0.  0.
        -12    1    1    2    0    0  0.17346985212E+01 -0.17731589191E+02  0.39575310656E+02  0.43400733263E+02  0.00000000000E+00 0.  1.
         11    1    3    3    0    0 -0.20913302020E+01  0.16619734812E+02 -0.40214616019E+02  0.43563799066E+02  0.51100000000E-03 0. -1.
        -11    1    3    3    0    0  0.14869946704E+01  0.19613381506E+01  0.11544181041E+01  0.27185808634E+01  0.51100000000E-03 0.  1.
         12    1    3    3    0    0 -0.11303629896E+01 -0.84948377180E+00 -0.51511274097E+00  0.15048868073E+01  0.00000000000E+00 0. -1.
</event>
<event>
 7    1  0.2497395E-009  0.4778728E+02  0.7816164E-02  0.1312668E+00
        -11   -1    0    0    0    0  0.00000000000E+00  0.00000000000E+00  0.45593999997E+02  0.45594000000E+02  0.51100000000E-03 0.  1.
         11   -1    0    0    0    0 -0.00000000000E+00 -0.00000000000E+00 -0.45593999997E+02  0.45594000000E+02  0.51100000000E-03 0. -1.
    9900012    2    1    2    0    0  0.17425023191E+02  0.75630500536E+01 -0.39022955929E+02  0.47787282854E+02  0.20000053844E+02 0.  0.
        -12    1    1    2    0    0 -0.17425023191E+02 -0.75630500536E+01  0.39022955929E+02  0.43400717146E+02  0.00000000000E+00 0.  1.
         11    1    3    3    0    0 -0.23133949431E+01  0.23406709578E+01 -0.17499499761E+02  0.17806263753E+02  0.51100000000E-03 0. -1.
        -11    1    3    3    0    0  0.10128125812E+02  0.26221241268E+01 -0.79110906462E+01  0.13116395194E+02  0.51100000000E-03 0.  1.
         12    1    3    3    0    0  0.96102923219E+01  0.26002549690E+01 -0.13612365522E+02  0.16864623907E+02  0.00000000000E+00 0. -1.
</event>
<event>
 7    1  0.2497395E-009  0.4778726E+02  0.7816164E-02  0.1312668E+00
        -11   -1    0    0    0    0  0.00000000000E+00  0.00000000000E+00  0.45593999997E+02  0.45594000000E+02  0.51100000000E-03 0.  1.
         11   -1    0    0    0    0 -0.00000000000E+00 -0.00000000000E+00 -0.45593999997E+02  0.45594000000E+02  0.51100000000E-03 0. -1.
    9900012    2    1    2    0    0 -0.16580824947E+02  0.28464909791E+02 -0.28256843920E+02  0.47787261831E+02  0.19999957993E+02 0.  0.
        -12    1    1    2    0    0  0.16580824947E+02 -0.28464909791E+02  0.28256843920E+02  0.43400738169E+02  0.00000000000E+00 0.  1.
         11    1    3    3    0    0  0.14894926107E+00  0.57272827314E+01 -0.92451800110E+01  0.10876456549E+02  0.51100000000E-03 0. -1.
        -11    1    3    3    0    0  0.11627507703E+01  0.89196986469E+01 -0.62133169040E+01  0.10932443483E+02  0.51100000000E-03 0.  1.
        -12    1    3    3    0    0 -0.17892524978E+02  0.13817928412E+02 -0.12798347005E+02  0.25978361799E+02  0.00000000000E+00 0.  1.
</event>
<event>
 7    1  0.2497395E-009  0.4778725E+02  0.7816164E-02  0.1312668E+00
        -11   -1    0    0    0    0  0.00000000000E+00  0.00000000000E+00  0.45593999997E+02  0.45594000000E+02  0.51100000000E-03 0.  1.
         11   -1    0    0    0    0 -0.00000000000E+00 -0.00000000000E+00 -0.45593999997E+02  0.45594000000E+02  0.51100000000E-03 0. -1.
    9900012    2    1    2    0    0  0.56675740334E+01  0.17975702202E+02 -0.39094471121E+02  0.47787251881E+02  0.19999912625E+02 0.  0.
        -12    1    1    2    0    0 -0.56675740334E+01 -0.17975702202E+02  0.39094471121E+02  0.43400748119E+02  0.00000000000E+00 0.  1.
         11    1    3    3    0    0  0.31326141809E+01  0.84656705034E+01 -0.24528879502E+02  0.26137076703E+02  0.51100000000E-03 0. -1.
        -11    1    3    3    0    0 -0.24880849838E+01 -0.11071811908E+01  0.26009842378E+00  0.27357025656E+01  0.51100000000E-03 0.  1.
        -12    1    3    3    0    0  0.50230448363E+01  0.10617212889E+02 -0.14825690042E+02  0.18914472612E+02  0.00000000000E+00 0.  1.
</event>
<event>
 7    1  0.2497395E-009  0.4778726E+02  0.7816164E-02  0.1312668E+00
        -11   -1    0    0    0    0  0.00000000000E+00  0.00000000000E+00  0.45593999997E+02  0.45594000000E+02  0.51100000000E-03 0.  1.
         11   -1    0    0    0    0 -0.00000000000E+00 -0.00000000000E+00 -0.45593999997E+02  0.45594000000E+02  0.51100000000E-03 0. -1.
    9900012    2    1    2    0    0 -0.21719593573E+02 -0.36251738178E+02  0.98840663677E+01  0.47787262289E+02  0.19999960080E+02 0.  0.
        -12    1    1    2    0    0  0.21719593573E+02  0.36251738178E+02 -0.98840663677E+01  0.43400737711E+02  0.00000000000E+00 0.  1.
         11    1    3    3    0    0 -0.16720359693E+02 -0.13757260366E+02  0.18430582835E+01  0.21730842256E+02  0.51100000000E-03 0. -1.
        -11    1    3    3    0    0 -0.36298851646E+01 -0.25259051528E+01 -0.16204331587E+00  0.44252142826E+01  0.51100000000E-03 0.  1.
         12    1    3    3    0    0 -0.13693487154E+01 -0.19968572659E+02  0.82030514000E+01  0.21631205750E+02  0.00000000000E+00 0. -1.
</event>
<event>
 7    1  0.2497395E-009  0.4778727E+02  0.7816164E-02  0.1312668E+00
        -11   -1    0    0    0    0  0.00000000000E+00  0.00000000000E+00  0.45593999997E+02  0.45594000000E+02  0.51100000000E-03 0.  1.
         11   -1    0    0    0    0 -0.00000000000E+00 -0.00000000000E+00 -0.45593999997E+02  0.45594000000E+02  0.51100000000E-03 0. -1.
    9900012    2    1    2    0    0  0.34280521615E+02  0.44982017579E+01 -0.26234240203E+02  0.47787270279E+02  0.19999996511E+02 0.  0.
        -12    1    1    2    0    0 -0.34280521615E+02 -0.44982017579E+01  0.26234240203E+02  0.43400729721E+02  0.00000000000E+00 0.  1.
         11    1    3    3    0    0  0.28438620928E+02  0.51360270871E+01 -0.21229722823E+02  0.35858542440E+02  0.51100000000E-03 0. -1.
        -11    1    3    3    0    0  0.39086220921E+01 -0.43733522480E+01 -0.50233421725E+01  0.77225321875E+01  0.51100000000E-03 0.  1.
         12    1    3    3    0    0  0.19332785951E+01  0.37355269187E+01  0.18824792141E-01  0.42061956516E+01  0.00000000000E+00 0. -1.
</event>
<event>
 7    1  0.2633041E-009  0.4778727E+02  0.7816164E-02  0.1312668E+00
        -11   -1    0    0    0    0  0.00000000000E+00  0.00000000000E+00  0.45593999997E+02  0.45594000000E+02  0.51100000000E-03 0. -1.
         11   -1    0    0    0    0 -0.00000000000E+00 -0.00000000000E+00 -0.45593999997E+02  0.45594000000E+02  0.51100000000E-03 0.  1.
    9900012    2    1    2    0    0  0.27437716329E+02 -0.33443976785E+02  0.35064822065E+01  0.47787270996E+02  0.19999999781E+02 0.  0.
        -12    1    1    2    0    0 -0.27437716329E+02  0.33443976785E+02 -0.35064822065E+01  0.43400729004E+02  0.00000000000E+00 0.  1.
         11    1    3    3    0    0  0.23550349918E+02 -0.19385276337E+02 -0.28292718038E+01  0.30633522474E+02  0.51100000000E-03 0. -1.
        -11    1    3    3    0    0 -0.59728352104E+00 -0.63826844125E+01  0.31800813839E+00  0.64184528783E+01  0.51100000000E-03 0.  1.
         12    1    3    3    0    0  0.44846499320E+01 -0.76760160354E+01  0.60177458719E+01  0.10735295644E+02  0.00000000000E+00 0. -1.
</event>
<event>
 7    1  0.2497395E-009  0.4778728E+02  0.7816164E-02  0.1312668E+00
        -11   -1    0    0    0    0  0.00000000000E+00  0.00000000000E+00  0.45593999997E+02  0.45594000000E+02  0.51100000000E-03 0.  1.
         11   -1    0    0    0    0 -0.00000000000E+00 -0.00000000000E+00 -0.45593999997E+02  0.45594000000E+02  0.51100000000E-03 0. -1.
    9900012    2    1    2    0    0  0.88198672269E+01  0.94854912780E+01 -0.41422918186E+02  0.47787277037E+02  0.20000027321E+02 0.  0.
        -12    1    1    2    0    0 -0.88198672269E+01 -0.94854912780E+01  0.41422918186E+02  0.43400722963E+02  0.00000000000E+00 0.  1.
         11    1    3    3    0    0 -0.19432073452E+00  0.18789143523E+01 -0.20560588686E+00  0.19000930853E+01  0.51100000000E-03 0. -1.
        -11    1    3    3    0    0  0.39900311723E+01  0.79272683200E+01 -0.70045447719E+01  0.11305997501E+02  0.51100000000E-03 0.  1.
        -12    1    3    3    0    0  0.50241567890E+01 -0.32069139420E+00 -0.34212767527E+02  0.34581186450E+02  0.00000000000E+00 0.  1.
</event>
<event>
 7    1  0.2497395E-009  0.4778734E+02  0.7816164E-02  0.1312667E+00
        -11   -1    0    0    0    0  0.00000000000E+00  0.00000000000E+00  0.45593999997E+02  0.45594000000E+02  0.51100000000E-03 0.  1.
         11   -1    0    0    0    0 -0.00000000000E+00 -0.00000000000E+00 -0.45593999997E+02  0.45594000000E+02  0.51100000000E-03 0. -1.
    9900012    2    1    2    0    0 -0.99902418581E+01  0.34751136695E+02 -0.24003564932E+02  0.47787336832E+02  0.20000299951E+02 0.  0.
        -12    1    1    2    0    0  0.99902418581E+01 -0.34751136695E+02  0.24003564932E+02  0.43400663168E+02  0.00000000000E+00 0.  1.
         11    1    3    3    0    0  0.29415423025E+01  0.72191134618E+01  0.49103587913E+00  0.78108505803E+01  0.51100000000E-03 0.  1.
        -11    1    3    3    0    0 -0.91474053726E+01  0.25343781595E+02 -0.22770968506E+02  0.35277461608E+02  0.51100000000E-03 0. -1.
         12    1    3    3    0    0 -0.37843787881E+01  0.21882416378E+01 -0.17236323053E+01  0.46990246436E+01  0.00000000000E+00 0. -1.
</event>
<event>
 7    1  0.2497395E-009  0.4778727E+02  0.7816164E-02  0.1312668E+00
        -11   -1    0    0    0    0  0.00000000000E+00  0.00000000000E+00  0.45593999997E+02  0.45594000000E+02  0.51100000000E-03 0.  1.
         11   -1    0    0    0    0 -0.00000000000E+00 -0.00000000000E+00 -0.45593999997E+02  0.45594000000E+02  0.51100000000E-03 0. -1.
    9900012    2    1    2    0    0  0.17715551800E+02  0.11395814525E+02 -0.37946256642E+02  0.47787265474E+02  0.19999974603E+02 0.  0.
        -12    1    1    2    0    0 -0.17715551800E+02 -0.11395814525E+02  0.37946256642E+02  0.43400734526E+02  0.00000000000E+00 0.  1.
         11    1    3    3    0    0  0.11330895750E+02  0.15704501301E+02 -0.21644731008E+02  0.29043328671E+02  0.51100000000E-03 0. -1.
        -11    1    3    3    0    0  0.71516471202E+01 -0.33327901488E+01 -0.12883898149E+02  0.15107891265E+02  0.51100000000E-03 0.  1.
        -12    1    3    3    0    0 -0.76699107048E+00 -0.97589662762E+00 -0.34176274849E+01  0.36360455381E+01  0.00000000000E+00 0.  1.
</event>
<event>
 7    1  0.2497395E-009  0.4778727E+02  0.7816164E-02  0.1312668E+00
        -11   -1    0    0    0    0  0.00000000000E+00  0.00000000000E+00  0.45593999997E+02  0.45594000000E+02  0.51100000000E-03 0.  1.
         11   -1    0    0    0    0 -0.00000000000E+00 -0.00000000000E+00 -0.45593999997E+02  0.45594000000E+02  0.51100000000E-03 0. -1.
    9900012    2    1    2    0    0  0.25295527056E+02 -0.71734435796E+01 -0.34529718471E+02  0.47787269136E+02  0.19999991299E+02 0.  0.
        -12    1    1    2    0    0 -0.25295527056E+02  0.71734435796E+01  0.34529718471E+02  0.43400730864E+02  0.00000000000E+00 0.  1.
         11    1    3    3    0    0  0.24087749780E+01 -0.15985206757E+01 -0.12801392508E+02  0.13123761490E+02  0.51100000000E-03 0. -1.
        -11    1    3    3    0    0  0.10295173322E+02  0.18948035712E+01 -0.29955146817E+01  0.10888249757E+02  0.51100000000E-03 0.  1.
        -12    1    3    3    0    0  0.12591578755E+02 -0.74697264752E+01 -0.18732811282E+02  0.23775257889E+02  0.00000000000E+00 0.  1.
</event>
<event>
 7    1  0.2497395E-009  0.4778727E+02  0.7816164E-02  0.1312668E+00
        -11   -1    0    0    0    0  0.00000000000E+00  0.00000000000E+00  0.45593999997E+02  0.45594000000E+02  0.51100000000E-03 0. -1.
         11   -1    0    0    0    0 -0.00000000000E+00 -0.00000000000E+00 -0.45593999997E+02  0.45594000000E+02  0.51100000000E-03 0.  1.
    9900012    2    1    2    0    0 -0.31123980747E+02 -0.20339372376E+02 -0.22388189736E+02  0.47787270906E+02  0.19999999371E+02 0.  0.
        -12    1    1    2    0    0  0.31123980747E+02  0.20339372376E+02  0.22388189736E+02  0.43400729094E+02  0.00000000000E+00 0.  1.
         11    1    3    3    0    0 -0.14593780129E+02 -0.10429101366E+02 -0.40680089449E+01  0.18392750495E+02  0.51100000000E-03 0. -1.
        -11    1    3    3    0    0 -0.15856953380E+02 -0.10894863542E+02 -0.19723481458E+02  0.27552799189E+02  0.51100000000E-03 0.  1.
        -12    1    3    3    0    0 -0.67324723845E+00  0.98459253179E+00  0.14033006666E+01  0.18417212218E+01  0.00000000000E+00 0.  1.
</event>
<event>
 7    1  0.2497395E-009  0.4778727E+02  0.7816164E-02  0.1312668E+00
        -11   -1    0    0    0    0  0.00000000000E+00  0.00000000000E+00  0.45593999997E+02  0.45594000000E+02  0.51100000000E-03 0. -1.
         11   -1    0    0    0    0 -0.00000000000E+00 -0.00000000000E+00 -0.45593999997E+02  0.45594000000E+02  0.51100000000E-03 0.  1.
    9900012    2    1    2    0    0  0.10963744237E+02 -0.74285887068E+01  0.41330807135E+02  0.47787271477E+02  0.20000001971E+02 0.  0.
        -12    1    1    2    0    0 -0.10963744237E+02  0.74285887068E+01 -0.41330807135E+02  0.43400728523E+02  0.00000000000E+00 0.  1.
         11    1    3    3    0    0  0.83657185088E+01 -0.10444245429E+02  0.25153423591E+02  0.28491441300E+02  0.51100000000E-03 0. -1.
        -11    1    3    3    0    0 -0.36149178121E+01  0.20638217887E+01  0.53811180269E+01  0.68031920922E+01  0.51100000000E-03 0.  1.
        -12    1    3    3    0    0  0.62129435408E+01  0.95183493390E+00  0.10796265518E+02  0.12492638084E+02  0.00000000000E+00 0.  1.
</event>
<event>
 7    1  0.2497395E-009  0.4778727E+02  0.7816164E-02  0.1312668E+00
        -11   -1    0    0    0    0  0.00000000000E+00  0.00000000000E+00  0.45593999997E+02  0.45594000000E+02  0.51100000000E-03 0.  1.
         11   -1    0    0    0    0 -0.00000000000E+00 -0.00000000000E+00 -0.45593999997E+02  0.45594000000E+02  0.51100000000E-03 0. -1.
    9900012    2    1    2    0    0 -0.22585837853E+02 -0.35321258806E+02 -0.11221039253E+02  0.47787272851E+02  0.20000008237E+02 0.  0.
        -12    1    1    2    0    0  0.22585837853E+02  0.35321258806E+02  0.11221039253E+02  0.43400727149E+02  0.00000000000E+00 0.  1.
         11    1    3    3    0    0 -0.13031500414E+02 -0.15325207287E+02 -0.11453068246E+02  0.23148536756E+02  0.51100000000E-03 0. -1.
        -11    1    3    3    0    0 -0.44917999436E+01 -0.18881680489E+02  0.79254785485E+00  0.19424784611E+02  0.51100000000E-03 0.  1.
        -12    1    3    3    0    0 -0.50625374952E+01 -0.11143710295E+01 -0.56051886236E+00  0.52139514839E+01  0.00000000000E+00 0.  1.
</event>
<event>
 7    1  0.2497395E-009  0.4778727E+02  0.7816164E-02  0.1312668E+00
        -11   -1    0    0    0    0  0.00000000000E+00  0.00000000000E+00  0.45593999997E+02  0.45594000000E+02  0.51100000000E-03 0.  1.
         11   -1    0    0    0    0 -0.00000000000E+00 -0.00000000000E+00 -0.45593999997E+02  0.45594000000E+02  0.51100000000E-03 0. -1.
    9900012    2    1    2    0    0 -0.37479717092E+02  0.21714811847E+02  0.27131766330E+01  0.47787267583E+02  0.19999984220E+02 0.  0.
        -12    1    1    2    0    0  0.37479717092E+02 -0.21714811847E+02 -0.27131766330E+01  0.43400732417E+02  0.00000000000E+00 0.  1.
         11    1    3    3    0    0 -0.31199979857E+02  0.14085619191E+02 -0.33699244344E+01  0.34397671462E+02  0.51100000000E-03 0. -1.
        -11    1    3    3    0    0 -0.63473357120E+00  0.21201346402E+00  0.37118935447E+01  0.37717357230E+01  0.51100000000E-03 0.  1.
         12    1    3    3    0    0 -0.56450036643E+01  0.74171791915E+01  0.23712075227E+01  0.96178603985E+01  0.00000000000E+00 0. -1.
</event>
<event>
 7    1  0.2497395E-009  0.4778727E+02  0.7816164E-02  0.1312668E+00
        -11   -1    0    0    0    0  0.00000000000E+00  0.00000000000E+00  0.45593999997E+02  0.45594000000E+02  0.51100000000E-03 0. -1.
         11   -1    0    0    0    0 -0.00000000000E+00 -0.00000000000E+00 -0.45593999997E+02  0.45594000000E+02  0.51100000000E-03 0.  1.
    9900012    2    1    2    0    0 -0.11550278607E+02 -0.37048142945E+02  0.19433202701E+02  0.47787271909E+02  0.20000003944E+02 0.  0.
        -12    1    1    2    0    0  0.11550278607E+02  0.37048142945E+02 -0.19433202701E+02  0.43400728091E+02  0.00000000000E+00 0.  1.
         11    1    3    3    0    0 -0.78059519805E+01 -0.28192997079E+02  0.67828924173E+01  0.30029745260E+02  0.51100000000E-03 0. -1.
        -11    1    3    3    0    0 -0.57042874424E+00 -0.32519294011E+01  0.10439129633E+02  0.10948783565E+02  0.51100000000E-03 0.  1.
        -12    1    3    3    0    0 -0.31738978821E+01 -0.56032164653E+01  0.22111806503E+01  0.68087430845E+01  0.00000000000E+00 0.  1.
</event>
<event>
 7    1  0.2497395E-009  0.4778727E+02  0.7816164E-02  0.1312668E+00
        -11   -1    0    0    0    0  0.00000000000E+00  0.00000000000E+00  0.45593999997E+02  0.45594000000E+02  0.51100000000E-03 0. -1.
         11   -1    0    0    0    0 -0.00000000000E+00 -0.00000000000E+00 -0.45593999997E+02  0.45594000000E+02  0.51100000000E-03 0.  1.
    9900012    2    1    2    0    0 -0.26318639929E+02  0.33642447500E+02  0.76901356616E+01  0.47787271112E+02  0.20000000307E+02 0.  0.
        -12    1    1    2    0    0  0.26318639929E+02 -0.33642447500E+02 -0.76901356616E+01  0.43400728888E+02  0.00000000000E+00 0.  1.
         11    1    3    3    0    0 -0.20466252480E+02  0.17636593521E+02  0.65995251896E+01  0.27811340395E+02  0.51100000000E-03 0. -1.
        -11    1    3    3    0    0  0.70874585301E+00  0.10142449069E+02 -0.25035488261E+01  0.10470881090E+02  0.51100000000E-03 0.  1.
        -12    1    3    3    0    0 -0.65611333027E+01  0.58634049098E+01  0.35941592981E+01  0.95050496270E+01  0.00000000000E+00 0.  1.
</event>
<event>
 7    1  0.2497395E-009  0.4778727E+02  0.7816164E-02  0.1312668E+00
        -11   -1    0    0    0    0  0.00000000000E+00  0.00000000000E+00  0.45593999997E+02  0.45594000000E+02  0.51100000000E-03 0.  1.
         11   -1    0    0    0    0 -0.00000000000E+00 -0.00000000000E+00 -0.45593999997E+02  0.45594000000E+02  0.51100000000E-03 0. -1.
    9900012    2    1    2    0    0  0.27941859546E+02  0.32743558953E+02 -0.55439630380E+01  0.47787266204E+02  0.19999977932E+02 0.  0.
        -12    1    1    2    0    0 -0.27941859546E+02 -0.32743558953E+02  0.55439630380E+01  0.43400733796E+02  0.00000000000E+00 0.  1.
         11    1    3    3    0    0  0.71874508227E+01  0.18142385533E+02  0.35664877589E+01  0.19837475579E+02  0.51100000000E-03 0. -1.
        -11    1    3    3    0    0  0.71807275958E+01  0.23826029254E+01 -0.54481011823E+01  0.93231675013E+01  0.51100000000E-03 0.  1.
         12    1    3    3    0    0  0.13573681128E+02  0.12218570495E+02 -0.36623496146E+01  0.18626623124E+02  0.00000000000E+00 0. -1.
</event>
<event>
 7    1  0.2497395E-009  0.4778727E+02  0.7816164E-02  0.1312668E+00
        -11   -1    0    0    0    0  0.00000000000E+00  0.00000000000E+00  0.45593999997E+02  0.45594000000E+02  0.51100000000E-03 0. -1.
         11   -1    0    0    0    0 -0.00000000000E+00 -0.00000000000E+00 -0.45593999997E+02  0.45594000000E+02  0.51100000000E-03 0.  1.
    9900012    2    1    2    0    0  0.20434203966E+02  0.33740988735E+02  0.18100061554E+02  0.47787271426E+02  0.20000001738E+02 0.  0.
        -12    1    1    2    0    0 -0.20434203966E+02 -0.33740988735E+02 -0.18100061554E+02  0.43400728574E+02  0.00000000000E+00 0.  1.
         11    1    3    3    0    0  0.17428478695E+02  0.28645581241E+02  0.14102366008E+02  0.36375787573E+02  0.51100000000E-03 0. -1.
        -11    1    3    3    0    0  0.23072170136E+01  0.21188615163E+01 -0.26444147326E+01  0.40994821639E+01  0.51100000000E-03 0.  1.
         12    1    3    3    0    0  0.69850825714E+00  0.29765459772E+01  0.66421102791E+01  0.73120016889E+01  0.00000000000E+00 0. -1.
</event>
<event>
 7    1  0.2497395E-009  0.4778727E+02  0.7816164E-02  0.1312668E+00
        -11   -1    0    0    0    0  0.00000000000E+00  0.00000000000E+00  0.45593999997E+02  0.45594000000E+02  0.51100000000E-03 0. -1.
         11   -1    0    0    0    0 -0.00000000000E+00 -0.00000000000E+00 -0.45593999997E+02  0.45594000000E+02  0.51100000000E-03 0.  1.
    9900012    2    1    2    0    0  0.22545685622E+02 -0.44968977369E+01  0.36811591633E+02  0.47787270652E+02  0.19999998210E+02 0.  0.
        -12    1    1    2    0    0 -0.22545685622E+02  0.44968977369E+01 -0.36811591633E+02  0.43400729348E+02  0.00000000000E+00 0.  1.
         11    1    3    3    0    0  0.25152450156E+02 -0.75765327036E+01  0.31936392594E+02  0.41351937909E+02  0.51100000000E-03 0. -1.
        -11    1    3    3    0    0 -0.13556108682E+01  0.15926664194E+01  0.16253447411E+01  0.26487757433E+01  0.51100000000E-03 0.  1.
         12    1    3    3    0    0 -0.12511536657E+01  0.14869685473E+01  0.32498542976E+01  0.37865569996E+01  0.00000000000E+00 0. -1.
</event>
<event>
 7    1  0.2497395E-009  0.4778727E+02  0.7816164E-02  0.1312668E+00
        -11   -1    0    0    0    0  0.00000000000E+00  0.00000000000E+00  0.45593999997E+02  0.45594000000E+02  0.51100000000E-03 0.  1.
         11   -1    0    0    0    0 -0.00000000000E+00 -0.00000000000E+00 -0.45593999997E+02  0.45594000000E+02  0.51100000000E-03 0. -1.
    9900012    2    1    2    0    0 -0.28674276428E+02  0.13256468082E+02 -0.29760298901E+02  0.47787268839E+02  0.19999989942E+02 0.  0.
        -12    1    1    2    0    0  0.28674276428E+02 -0.13256468082E+02  0.29760298901E+02  0.43400731161E+02  0.00000000000E+00 0.  1.
         11    1    3    3    0    0 -0.14307470436E+02  0.38216341219E+01 -0.23439950334E+02  0.27726158579E+02  0.51100000000E-03 0. -1.
        -11    1    3    3    0    0 -0.92376803415E+01  0.80050816130E+01 -0.58860880657E+00  0.12237750214E+02  0.51100000000E-03 0.  1.
        -12    1    3    3    0    0 -0.51291256501E+01  0.14297523472E+01 -0.57317397607E+01  0.78233600450E+01  0.00000000000E+00 0.  1.
</event>
<event>
 7    1  0.2497395E-009  0.4778726E+02  0.7816164E-02  0.1312668E+00
        -11   -1    0    0    0    0  0.00000000000E+00  0.00000000000E+00  0.45593999997E+02  0.45594000000E+02  0.51100000000E-03 0.  1.
         11   -1    0    0    0    0 -0.00000000000E+00 -0.00000000000E+00 -0.45593999997E+02  0.45594000000E+02  0.51100000000E-03 0. -1.
    9900012    2    1    2    0    0 -0.17038174568E+02  0.24005902745E+02 -0.31891080913E+02  0.47787264971E+02  0.19999972310E+02 0.  0.
        -12    1    1    2    0    0  0.17038174568E+02 -0.24005902745E+02  0.31891080913E+02  0.43400735029E+02  0.00000000000E+00 0.  1.
         11    1    3    3    0    0 -0.10816707402E+02  0.13586318109E+02 -0.15412748422E+02  0.23219431797E+02  0.51100000000E-03 0. -1.
        -11    1    3    3    0    0  0.21879103637E+01  0.23490383258E+00 -0.92567603559E+01  0.95147119829E+01  0.51100000000E-03 0.  1.
        -12    1    3    3    0    0 -0.84093775297E+01  0.10184680804E+02 -0.72215721355E+01  0.15053121192E+02  0.00000000000E+00 0.  1.
</event>
<event>
 7    1  0.2497395E-009  0.4778729E+02  0.7816164E-02  0.1312668E+00
        -11   -1    0    0    0    0  0.00000000000E+00  0.00000000000E+00  0.45593999997E+02  0.45594000000E+02  0.51100000000E-03 0.  1.
         11   -1    0    0    0    0 -0.00000000000E+00 -0.00000000000E+00 -0.45593999997E+02  0.45594000000E+02  0.51100000000E-03 0. -1.
    9900012    2    1    2    0    0 -0.26515881619E+02 -0.13942378129E+00 -0.34358555631E+02  0.47787288461E+02  0.20000079411E+02 0.  0.
        -12    1    1    2    0    0  0.26515881619E+02  0.13942378129E+00  0.34358555631E+02  0.43400711539E+02  0.00000000000E+00 0.  1.
         11    1    3    3    0    0 -0.37964925952E+01  0.11739207711E+01 -0.89439649558E+01  0.97870299577E+01  0.51100000000E-03 0. -1.
        -11    1    3    3    0    0 -0.24743802399E+02 -0.24149154894E+01 -0.25603383508E+02  0.35687824553E+02  0.51100000000E-03 0.  1.
        -12    1    3    3    0    0  0.20244133751E+01  0.11015709371E+01  0.18879283350E+00  0.23124339508E+01  0.00000000000E+00 0.  1.
</event>
<event>
 7    1  0.2497395E-009  0.4778727E+02  0.7816164E-02  0.1312668E+00
        -11   -1    0    0    0    0  0.00000000000E+00  0.00000000000E+00  0.45593999997E+02  0.45594000000E+02  0.51100000000E-03 0.  1.
         11   -1    0    0    0    0 -0.00000000000E+00 -0.00000000000E+00 -0.45593999997E+02  0.45594000000E+02  0.51100000000E-03 0. -1.
    9900012    2    1    2    0    0 -0.21664774507E+02 -0.37321794717E+02 -0.46199806801E+01  0.47787273776E+02  0.20000012453E+02 0.  0.
        -12    1    1    2    0    0  0.21664774507E+02  0.37321794717E+02  0.46199806801E+01  0.43400726224E+02  0.00000000000E+00 0.  1.
         11    1    3    3    0    0 -0.16232713878E+02 -0.35603305507E+02  0.11088730773E+01  0.39144935338E+02  0.51100000000E-03 0. -1.
        -11    1    3    3    0    0 -0.48045265637E+00  0.47142233892E+00 -0.18871580387E+01  0.20036066232E+01  0.51100000000E-03 0.  1.
         12    1    3    3    0    0 -0.49516079727E+01 -0.21899115487E+01 -0.38416957188E+01  0.66387318143E+01  0.00000000000E+00 0. -1.
</event>
<event>
 7    1  0.2497395E-009  0.4778727E+02  0.7816164E-02  0.1312668E+00
        -11   -1    0    0    0    0  0.00000000000E+00  0.00000000000E+00  0.45593999997E+02  0.45594000000E+02  0.51100000000E-03 0.  1.
         11   -1    0    0    0    0 -0.00000000000E+00 -0.00000000000E+00 -0.45593999997E+02  0.45594000000E+02  0.51100000000E-03 0. -1.
    9900012    2    1    2    0    0  0.24084393559E+02 -0.13690699288E+02 -0.33408532625E+02  0.47787270602E+02  0.19999997985E+02 0.  0.
        -12    1    1    2    0    0 -0.24084393559E+02  0.13690699288E+02  0.33408532625E+02  0.43400729398E+02  0.00000000000E+00 0.  1.
         11    1    3    3    0    0  0.11212155448E+02 -0.77369709642E+01 -0.25530718757E+02  0.28937704642E+02  0.51100000000E-03 0. -1.
        -11    1    3    3    0    0  0.20363831406E+01 -0.54690197813E+01 -0.78191704224E+00  0.58879901652E+01  0.51100000000E-03 0.  1.
         12    1    3    3    0    0  0.10835854971E+02 -0.48470854209E+00 -0.70958968259E+01  0.12961575795E+02  0.00000000000E+00 0. -1.
</event>
<event>
 7    1  0.2497395E-009  0.4778725E+02  0.7816164E-02  0.1312668E+00
        -11   -1    0    0    0    0  0.00000000000E+00  0.00000000000E+00  0.45593999997E+02  0.45594000000E+02  0.51100000000E-03 0.  1.
         11   -1    0    0    0    0 -0.00000000000E+00 -0.00000000000E+00 -0.45593999997E+02  0.45594000000E+02  0.51100000000E-03 0. -1.
    9900012    2    1    2    0    0  0.47875836271E+01  0.34880458814E+02 -0.25378287033E+02  0.47787253269E+02  0.19999918956E+02 0.  0.
        -12    1    1    2    0    0 -0.47875836271E+01 -0.34880458814E+02  0.25378287033E+02  0.43400746731E+02  0.00000000000E+00 0.  1.
         11    1    3    3    0    0  0.55565375904E+01  0.50573008826E+01 -0.10274432232E+02  0.12728525451E+02  0.51100000000E-03 0. -1.
        -11    1    3    3    0    0  0.38161449756E+01  0.23019077150E+02 -0.99263838466E+01  0.25356931436E+02  0.51100000000E-03 0.  1.
        -12    1    3    3    0    0 -0.45850989389E+01  0.68040807812E+01 -0.51774709543E+01  0.97017963820E+01  0.00000000000E+00 0.  1.
</event>
<event>
 7    1  0.2497395E-009  0.4778728E+02  0.7816164E-02  0.1312668E+00
        -11   -1    0    0    0    0  0.00000000000E+00  0.00000000000E+00  0.45593999997E+02  0.45594000000E+02  0.51100000000E-03 0.  1.
         11   -1    0    0    0    0 -0.00000000000E+00 -0.00000000000E+00 -0.45593999997E+02  0.45594000000E+02  0.51100000000E-03 0. -1.
    9900012    2    1    2    0    0 -0.68769800702E+01  0.16566512967E+02 -0.39520633151E+02  0.47787278216E+02  0.20000032696E+02 0.  0.
        -12    1    1    2    0    0  0.68769800702E+01 -0.16566512967E+02  0.39520633151E+02  0.43400721784E+02  0.00000000000E+00 0.  1.
         11    1    3    3    0    0 -0.12544345243E+02  0.10911084209E+02 -0.25792187549E+02  0.30686304682E+02  0.51100000000E-03 0. -1.
        -11    1    3    3    0    0  0.41260588110E+01  0.15465846212E+01 -0.25478315939E+01  0.50899637910E+01  0.51100000000E-03 0.  1.
         12    1    3    3    0    0  0.15413063623E+01  0.41088441367E+01 -0.11180614008E+02  0.12011009743E+02  0.00000000000E+00 0. -1.
</event>
<event>
 7    1  0.2497395E-009  0.4778727E+02  0.7816164E-02  0.1312668E+00
        -11   -1    0    0    0    0  0.00000000000E+00  0.00000000000E+00  0.45593999997E+02  0.45594000000E+02  0.51100000000E-03 0.  1.
         11   -1    0    0    0    0 -0.00000000000E+00 -0.00000000000E+00 -0.45593999997E+02  0.45594000000E+02  0.51100000000E-03 0. -1.
    9900012    2    1    2    0    0 -0.95872935307E+01  0.42204410857E+02  0.32395795947E+01  0.47787269949E+02  0.19999995006E+02 0.  0.
        -12    1    1    2    0    0  0.95872935307E+01 -0.42204410857E+02 -0.32395795947E+01  0.43400730051E+02  0.00000000000E+00 0.  1.
         11    1    3    3    0    0  0.22328183333E+01  0.97252920306E+01 -0.49182273448E+01  0.11124555868E+02  0.51100000000E-03 0. -1.
        -11    1    3    3    0    0 -0.12423623384E+02  0.26990147256E+02  0.90702234509E+01  0.31065791807E+02  0.51100000000E-03 0.  1.
         12    1    3    3    0    0  0.60351151993E+00  0.54889715697E+01 -0.91241651145E+00  0.55969222737E+01  0.00000000000E+00 0. -1.
</event>
<event>
 7    1  0.2497395E-009  0.4778727E+02  0.7816164E-02  0.1312668E+00
        -11   -1    0    0    0    0  0.00000000000E+00  0.00000000000E+00  0.45593999997E+02  0.45594000000E+02  0.51100000000E-03 0.  1.
         11   -1    0    0    0    0 -0.00000000000E+00 -0.00000000000E+00 -0.45593999997E+02  0.45594000000E+02  0.51100000000E-03 0. -1.
    9900012    2    1    2    0    0  0.43210943616E+01  0.14987013568E+02 -0.40501122110E+02  0.47787270463E+02  0.19999997350E+02 0.  0.
        -12    1    1    2    0    0 -0.43210943616E+01 -0.14987013568E+02  0.40501122110E+02  0.43400729537E+02  0.00000000000E+00 0.  1.
         11    1    3    3    0    0 -0.31558906339E+01  0.16031420073E+01  0.65954487467E+00  0.36006540644E+01  0.51100000000E-03 0.  1.
        -11    1    3    3    0    0  0.26042869134E+01  0.94256765563E+01 -0.25951759894E+02  0.27733004358E+02  0.51100000000E-03 0. -1.
        -12    1    3    3    0    0  0.48726980821E+01  0.39581950040E+01 -0.15208907091E+02  0.16453612041E+02  0.00000000000E+00 0.  1.
</event>
<event>
 7    1  0.2497395E-009  0.4778728E+02  0.7816164E-02  0.1312668E+00
        -11   -1    0    0    0    0  0.00000000000E+00  0.00000000000E+00  0.45593999997E+02  0.45594000000E+02  0.51100000000E-03 0.  1.
         11   -1    0    0    0    0 -0.00000000000E+00 -0.00000000000E+00 -0.45593999997E+02  0.45594000000E+02  0.51100000000E-03 0. -1.
    9900012    2    1    2    0    0  0.82564707845E+01  0.28365123810E+02 -0.31794225061E+02  0.47787282197E+02  0.20000050849E+02 0.  0.
        -12    1    1    2    0    0 -0.82564707845E+01 -0.28365123810E+02  0.31794225061E+02  0.43400717803E+02  0.00000000000E+00 0.  1.
         11    1    3    3    0    0  0.98844336442E+01  0.14986748767E+02 -0.11696394797E+02  0.21426859746E+02  0.51100000000E-03 0. -1.
        -11    1    3    3    0    0  0.99806458853E+00  0.44196927605E+01 -0.38326193419E+00  0.45471647201E+01  0.51100000000E-03 0.  1.
         12    1    3    3    0    0 -0.26260274482E+01  0.89586822825E+01 -0.19714568330E+02  0.21813257731E+02  0.00000000000E+00 0. -1.
</event>
<event>
 7    1  0.2497395E-009  0.4778727E+02  0.7816164E-02  0.1312668E+00
        -11   -1    0    0    0    0  0.00000000000E+00  0.00000000000E+00  0.45593999997E+02  0.45594000000E+02  0.51100000000E-03 0.  1.
         11   -1    0    0    0    0 -0.00000000000E+00 -0.00000000000E+00 -0.45593999997E+02  0.45594000000E+02  0.51100000000E-03 0. -1.
    9900012    2    1    2    0    0 -0.28416330923E+02 -0.16552207453E+02 -0.28322425853E+02  0.47787271424E+02  0.20000001732E+02 0.  0.
        -12    1    1    2    0    0  0.28416330923E+02  0.16552207453E+02  0.28322425853E+02  0.43400728576E+02  0.00000000000E+00 0.  1.
         11    1    3    3    0    0 -0.23479819863E+02 -0.67069891277E+01 -0.12716006065E+02  0.27531481153E+02  0.51100000000E-03 0. -1.
        -11    1    3    3    0    0 -0.49505994161E+01 -0.10117405273E+02 -0.11349113739E+02  0.15989768821E+02  0.51100000000E-03 0.  1.
         12    1    3    3    0    0  0.14088356554E-01  0.27218694703E+00 -0.42573060495E+01  0.42660214504E+01  0.00000000000E+00 0. -1.
</event>
<event>
 7    1  0.2497395E-009  0.4778727E+02  0.7816164E-02  0.1312668E+00
        -11   -1    0    0    0    0  0.00000000000E+00  0.00000000000E+00  0.45593999997E+02  0.45594000000E+02  0.51100000000E-03 0. -1.
         11   -1    0    0    0    0 -0.00000000000E+00 -0.00000000000E+00 -0.45593999997E+02  0.45594000000E+02  0.51100000000E-03 0.  1.
    9900012    2    1    2    0    0  0.16117275837E+02  0.37646441904E+02  0.14373666410E+02  0.47787268964E+02  0.19999990513E+02 0.  0.
        -12    1    1    2    0    0 -0.16117275837E+02 -0.37646441904E+02 -0.14373666410E+02  0.43400731036E+02  0.00000000000E+00 0.  1.
         11    1    3    3    0    0  0.21171335276E+01  0.19426536790E+02  0.90133846140E+01  0.21520076405E+02  0.51100000000E-03 0. -1.
        -11    1    3    3    0    0  0.93949396080E+01  0.38895251275E+01 -0.33455425064E+00  0.10173751656E+02  0.51100000000E-03 0.  1.
         12    1    3    3    0    0  0.46052027017E+01  0.14330379987E+02  0.56948360462E+01  0.16093440902E+02  0.00000000000E+00 0. -1.
</event>
<event>
 7    1  0.2497395E-009  0.4778728E+02  0.7816164E-02  0.1312668E+00
        -11   -1    0    0    0    0  0.00000000000E+00  0.00000000000E+00  0.45593999997E+02  0.45594000000E+02  0.51100000000E-03 0.  1.
         11   -1    0    0    0    0 -0.00000000000E+00 -0.00000000000E+00 -0.45593999997E+02  0.45594000000E+02  0.51100000000E-03 0. -1.
    9900012    2    1    2    0    0  0.75764772441E+01 -0.30251271375E+02 -0.30184102601E+02  0.47787280224E+02  0.20000041852E+02 0.  0.
        -12    1    1    2    0    0 -0.75764772441E+01  0.30251271375E+02  0.30184102601E+02  0.43400719776E+02  0.00000000000E+00 0.  1.
         11    1    3    3    0    0 -0.90200791655E+00 -0.18478976802E+02 -0.15345637448E+02  0.24036946372E+02  0.51100000000E-03 0. -1.
        -11    1    3    3    0    0  0.25593624288E+01 -0.89037899009E+01 -0.22294452824E+01  0.95288109001E+01  0.51100000000E-03 0.  1.
         12    1    3    3    0    0  0.59191227319E+01 -0.28685046721E+01 -0.12609019871E+02  0.14221522952E+02  0.00000000000E+00 0. -1.
</event>
<event>
 7    1  0.2497395E-009  0.4778727E+02  0.7816164E-02  0.1312668E+00
        -11   -1    0    0    0    0  0.00000000000E+00  0.00000000000E+00  0.45593999997E+02  0.45594000000E+02  0.51100000000E-03 0.  1.
         11   -1    0    0    0    0 -0.00000000000E+00 -0.00000000000E+00 -0.45593999997E+02  0.45594000000E+02  0.51100000000E-03 0. -1.
    9900012    2    1    2    0    0  0.22130753389E+02 -0.19360575834E+02 -0.31922106495E+02  0.47787273908E+02  0.20000013058E+02 0.  0.
        -12    1    1    2    0    0 -0.22130753389E+02  0.19360575834E+02  0.31922106495E+02  0.43400726092E+02  0.00000000000E+00 0.  1.
         11    1    3    3    0    0  0.10239365001E+02 -0.16054108492E+02 -0.21590827151E+02  0.28787893504E+02  0.51100000000E-03 0. -1.
        -11    1    3    3    0    0  0.50993936259E+01 -0.13953020112E+01  0.12550183618E+01  0.54337606134E+01  0.51100000000E-03 0.  1.
        -12    1    3    3    0    0  0.67919947627E+01 -0.19111653314E+01 -0.11586297706E+02  0.13565619791E+02  0.00000000000E+00 0.  1.
</event>
<event>
 7    1  0.2497395E-009  0.4778727E+02  0.7816164E-02  0.1312668E+00
        -11   -1    0    0    0    0  0.00000000000E+00  0.00000000000E+00  0.45593999997E+02  0.45594000000E+02  0.51100000000E-03 0.  1.
         11   -1    0    0    0    0 -0.00000000000E+00 -0.00000000000E+00 -0.45593999997E+02  0.45594000000E+02  0.51100000000E-03 0. -1.
    9900012    2    1    2    0    0  0.16985412755E+01  0.33802703767E+02 -0.27168284557E+02  0.47787268322E+02  0.19999987588E+02 0.  0.
        -12    1    1    2    0    0 -0.16985412755E+01 -0.33802703767E+02  0.27168284557E+02  0.43400731678E+02  0.00000000000E+00 0.  1.
         11    1    3    3    0    0  0.11047823434E+01  0.14207177744E+02 -0.12177751195E+02  0.18744654382E+02  0.51100000000E-03 0. -1.
        -11    1    3    3    0    0  0.68561231814E+01  0.53529286472E+01 -0.85714658177E+01  0.12211891610E+02  0.51100000000E-03 0.  1.
        -12    1    3    3    0    0 -0.62623642493E+01  0.14242597376E+02 -0.64190675438E+01  0.16830722329E+02  0.00000000000E+00 0.  1.
</event>
<event>
 7    1  0.2497395E-009  0.4778727E+02  0.7816164E-02  0.1312668E+00
        -11   -1    0    0    0    0  0.00000000000E+00  0.00000000000E+00  0.45593999997E+02  0.45594000000E+02  0.51100000000E-03 0.  1.
         11   -1    0    0    0    0 -0.00000000000E+00 -0.00000000000E+00 -0.45593999997E+02  0.45594000000E+02  0.51100000000E-03 0. -1.
    9900012    2    1    2    0    0 -0.18099868085E+02 -0.26194173077E+02 -0.29493785508E+02  0.47787270611E+02  0.19999998023E+02 0.  0.
        -12    1    1    2    0    0  0.18099868085E+02  0.26194173077E+02  0.29493785508E+02  0.43400729389E+02  0.00000000000E+00 0.  1.
         11    1    3    3    0    0 -0.11838918169E+02 -0.26621749406E+02 -0.27140616601E+02  0.39818219380E+02  0.51100000000E-03 0. -1.
        -11    1    3    3    0    0 -0.61763415397E+01  0.69261266630E+00 -0.32616516830E+01  0.70189229290E+01  0.51100000000E-03 0.  1.
        -12    1    3    3    0    0 -0.84608376826E-01 -0.26503633744E+00  0.90848277540E+00  0.95012830228E+00  0.00000000000E+00 0.  1.
</event>
<event>
 7    1  0.2497395E-009  0.4778727E+02  0.7816164E-02  0.1312668E+00
        -11   -1    0    0    0    0  0.00000000000E+00  0.00000000000E+00  0.45593999997E+02  0.45594000000E+02  0.51100000000E-03 0.  1.
         11   -1    0    0    0    0 -0.00000000000E+00 -0.00000000000E+00 -0.45593999997E+02  0.45594000000E+02  0.51100000000E-03 0. -1.
    9900012    2    1    2    0    0 -0.98636447003E+00 -0.28490025565E+02 -0.32725659662E+02  0.47787271068E+02  0.20000000107E+02 0.  0.
        -12    1    1    2    0    0  0.98636447003E+00  0.28490025565E+02  0.32725659662E+02  0.43400728932E+02  0.00000000000E+00 0.  1.
         11    1    3    3    0    0 -0.23157502850E+01 -0.16251856595E+02 -0.30568052002E+02  0.34697137427E+02  0.51100000000E-03 0. -1.
        -11    1    3    3    0    0  0.24013549708E+01 -0.76281268118E+01 -0.29144502203E+00  0.80024849150E+01  0.51100000000E-03 0.  1.
         12    1    3    3    0    0 -0.10719691558E+01 -0.46100421577E+01 -0.18661626372E+01  0.50876487256E+01  0.00000000000E+00 0. -1.
</event>
<event>
 7    1  0.2497395E-009  0.4778727E+02  0.7816164E-02  0.1312668E+00
        -11   -1    0    0    0    0  0.00000000000E+00  0.00000000000E+00  0.45593999997E+02  0.45594000000E+02  0.51100000000E-03 0.  1.
         11   -1    0    0    0    0 -0.00000000000E+00 -0.00000000000E+00 -0.45593999997E+02  0.45594000000E+02  0.51100000000E-03 0. -1.
    9900012    2    1    2    0    0  0.13231804682E+01 -0.15485738836E+02 -0.40522393159E+02  0.47787271191E+02  0.20000000669E+02 0.  0.
        -12    1    1    2    0    0 -0.13231804682E+01  0.15485738836E+02  0.40522393159E+02  0.43400728809E+02  0.00000000000E+00 0.  1.
         11    1    3    3    0    0  0.71888596028E+01 -0.22062948988E+01 -0.15635647958E+02  0.17349954666E+02  0.51100000000E-03 0. -1.
        -11    1    3    3    0    0 -0.50282655238E+01 -0.32120729934E+01 -0.38506834694E+01  0.71013118884E+01  0.51100000000E-03 0.  1.
         12    1    3    3    0    0 -0.83741361084E+00 -0.10067370943E+02 -0.21036061731E+02  0.23336004637E+02  0.00000000000E+00 0. -1.
</event>
<event>
 7    1  0.2660352E-009  0.4778727E+02  0.7816164E-02  0.1312668E+00
        -11   -1    0    0    0    0  0.00000000000E+00  0.00000000000E+00  0.45593999997E+02  0.45594000000E+02  0.51100000000E-03 0.  1.
         11   -1    0    0    0    0 -0.00000000000E+00 -0.00000000000E+00 -0.45593999997E+02  0.45594000000E+02  0.51100000000E-03 0. -1.
    9900012    2    1    2    0    0  0.39785956948E+02 -0.11362296480E+02 -0.13099589237E+02  0.47787269710E+02  0.19999993915E+02 0.  0.
        -12    1    1    2    0    0 -0.39785956948E+02  0.11362296480E+02  0.13099589237E+02  0.43400730290E+02  0.00000000000E+00 0.  1.
         11    1    3    3    0    0  0.14707875812E+02  0.33582443949E+01 -0.64671120428E+01  0.16414108406E+02  0.51100000000E-03 0. -1.
        -11    1    3    3    0    0  0.18489943698E+00  0.53659217940E+00  0.10402993381E+01  0.11850493419E+01  0.51100000000E-03 0.  1.
         12    1    3    3    0    0  0.24893181698E+02 -0.15257133055E+02 -0.76727765322E+01  0.30188111962E+02  0.00000000000E+00 0. -1.
</event>
<event>
 7    1  0.2497395E-009  0.4778728E+02  0.7816164E-02  0.1312668E+00
        -11   -1    0    0    0    0  0.00000000000E+00  0.00000000000E+00  0.45593999997E+02  0.45594000000E+02  0.51100000000E-03 0.  1.
         11   -1    0    0    0    0 -0.00000000000E+00 -0.00000000000E+00 -0.45593999997E+02  0.45594000000E+02  0.51100000000E-03 0. -1.
    9900012    2    1    2    0    0 -0.93989632350E+00 -0.41606105909E+02 -0.12315496697E+02  0.47787275203E+02  0.20000018959E+02 0.  0.
        -12    1    1    2    0    0  0.93989632350E+00  0.41606105909E+02  0.12315496697E+02  0.43400724797E+02  0.00000000000E+00 0.  1.
         11    1    3    3    0    0  0.38590219717E+01 -0.29027988538E+02 -0.10275082581E+02  0.31033747622E+02  0.51100000000E-03 0. -1.
        -11    1    3    3    0    0  0.29956481254E+01 -0.36896909390E+01  0.23599512778E-01  0.47527133424E+01  0.51100000000E-03 0.  1.
         12    1    3    3    0    0 -0.77945664206E+01 -0.88884264322E+01 -0.20640136288E+01  0.12000814238E+02  0.00000000000E+00 0. -1.
</event>
<event>
 7    1  0.2497395E-009  0.4778727E+02  0.7816164E-02  0.1312668E+00
        -11   -1    0    0    0    0  0.00000000000E+00  0.00000000000E+00  0.45593999997E+02  0.45594000000E+02  0.51100000000E-03 0. -1.
         11   -1    0    0    0    0 -0.00000000000E+00 -0.00000000000E+00 -0.45593999997E+02  0.45594000000E+02  0.51100000000E-03 0.  1.
    9900012    2    1    2    0    0 -0.36194272958E+02  0.17621427405E+02  0.16219837900E+02  0.47787271432E+02  0.20000001768E+02 0.  0.
        -12    1    1    2    0    0  0.36194272958E+02 -0.17621427405E+02 -0.16219837900E+02  0.43400728568E+02  0.00000000000E+00 0.  1.
         11    1    3    3    0    0 -0.21666003013E+02  0.67975532705E+01  0.38482188514E+01  0.23031092150E+02  0.51100000000E-03 0. -1.
        -11    1    3    3    0    0 -0.13670913043E+01 -0.15778992814E+00  0.64898099424E+01  0.66341140814E+01  0.51100000000E-03 0.  1.
        -12    1    3    3    0    0 -0.13161178640E+02  0.10981664062E+02  0.58818091067E+01  0.18122065201E+02  0.00000000000E+00 0.  1.
</event>
<event>
 7    1  0.2497395E-009  0.4778727E+02  0.7816164E-02  0.1312668E+00
        -11   -1    0    0    0    0  0.00000000000E+00  0.00000000000E+00  0.45593999997E+02  0.45594000000E+02  0.51100000000E-03 0.  1.
         11   -1    0    0    0    0 -0.00000000000E+00 -0.00000000000E+00 -0.45593999997E+02  0.45594000000E+02  0.51100000000E-03 0. -1.
    9900012    2    1    2    0    0 -0.20478113774E+01  0.43341129881E+02 -0.98797476475E+00  0.47787272299E+02  0.20000005721E+02 0.  0.
        -12    1    1    2    0    0  0.20478113774E+01 -0.43341129881E+02  0.98797476475E+00  0.43400727701E+02  0.00000000000E+00 0.  1.
         11    1    3    3    0    0  0.80648674699E+00  0.29920094619E+02 -0.46318128837E+01  0.30287227898E+02  0.51100000000E-03 0. -1.
        -11    1    3    3    0    0 -0.66493324967E+01  0.69774980041E+01  0.20527571947E+01  0.98545884445E+01  0.51100000000E-03 0.  1.
         12    1    3    3    0    0  0.37950343723E+01  0.64435372583E+01  0.15910809243E+01  0.76454559572E+01  0.00000000000E+00 0. -1.
</event>
<event>
 7    1  0.2497395E-009  0.4778727E+02  0.7816164E-02  0.1312668E+00
        -11   -1    0    0    0    0  0.00000000000E+00  0.00000000000E+00  0.45593999997E+02  0.45594000000E+02  0.51100000000E-03 0.  1.
         11   -1    0    0    0    0 -0.00000000000E+00 -0.00000000000E+00 -0.45593999997E+02  0.45594000000E+02  0.51100000000E-03 0. -1.
    9900012    2    1    2    0    0  0.25599804701E+01  0.35873550922E+02 -0.24293173958E+02  0.47787268937E+02  0.19999990393E+02 0.  0.
        -12    1    1    2    0    0 -0.25599804701E+01 -0.35873550922E+02  0.24293173958E+02  0.43400731063E+02  0.00000000000E+00 0.  1.
         11    1    3    3    0    0  0.26424756673E+01  0.91933065882E+01 -0.16693966137E+02  0.19240272070E+02  0.51100000000E-03 0. -1.
        -11    1    3    3    0    0 -0.52739647046E+00  0.76605887306E-01  0.50357284889E+00  0.73321304836E+00  0.51100000000E-03 0.  1.
         12    1    3    3    0    0  0.44490127327E+00  0.26603638447E+02 -0.81027806703E+01  0.27813783819E+02  0.00000000000E+00 0. -1.
</event>
<event>
 7    1  0.2497395E-009  0.4778727E+02  0.7816164E-02  0.1312668E+00
        -11   -1    0    0    0    0  0.00000000000E+00  0.00000000000E+00  0.45593999997E+02  0.45594000000E+02  0.51100000000E-03 0. -1.
         11   -1    0    0    0    0 -0.00000000000E+00 -0.00000000000E+00 -0.45593999997E+02  0.45594000000E+02  0.51100000000E-03 0.  1.
    9900012    2    1    2    0    0  0.38100441847E+02 -0.28191332400E+00 -0.20782208079E+02  0.47787270551E+02  0.19999997751E+02 0.  0.
        -12    1    1    2    0    0 -0.38100441847E+02  0.28191332400E+00  0.20782208079E+02  0.43400729449E+02  0.00000000000E+00 0.  1.
         11    1    3    3    0    0  0.26442832659E+02 -0.42879657767E+01 -0.11234515470E+02  0.29048655522E+02  0.51100000000E-03 0. -1.
        -11    1    3    3    0    0 -0.55676386266E+00  0.30958533109E+01 -0.45014718440E+01  0.54915883626E+01  0.51100000000E-03 0.  1.
        -12    1    3    3    0    0  0.12214373051E+02  0.91019914176E+00 -0.50462207650E+01  0.13247026667E+02  0.00000000000E+00 0.  1.
</event>
<event>
 7    1  0.2497395E-009  0.4778727E+02  0.7816164E-02  0.1312668E+00
        -11   -1    0    0    0    0  0.00000000000E+00  0.00000000000E+00  0.45593999997E+02  0.45594000000E+02  0.51100000000E-03 0.  1.
         11   -1    0    0    0    0 -0.00000000000E+00 -0.00000000000E+00 -0.45593999997E+02  0.45594000000E+02  0.51100000000E-03 0. -1.
    9900012    2    1    2    0    0  0.90700149769E+01 -0.29369832476E+02 -0.30639371530E+02  0.47787270523E+02  0.19999997623E+02 0.  0.
        -12    1    1    2    0    0 -0.90700149769E+01  0.29369832476E+02  0.30639371530E+02  0.43400729477E+02  0.00000000000E+00 0.  1.
         11    1    3    3    0    0  0.60903392968E+01 -0.16647045538E+02 -0.72829853173E+01  0.19163982710E+02  0.51100000000E-03 0. -1.
        -11    1    3    3    0    0 -0.22592544462E+01 -0.10569017000E+02 -0.16576283990E+02  0.19788419396E+02  0.51100000000E-03 0.  1.
         12    1    3    3    0    0  0.52389301262E+01 -0.21537699383E+01 -0.67801022226E+01  0.88348684180E+01  0.00000000000E+00 0. -1.
</event>
<event>
 7    1  0.2497395E-009  0.4778727E+02  0.7816164E-02  0.1312668E+00
        -11   -1    0    0    0    0  0.00000000000E+00  0.00000000000E+00  0.45593999997E+02  0.45594000000E+02  0.51100000000E-03 0.  1.
         11   -1    0    0    0    0 -0.00000000000E+00 -0.00000000000E+00 -0.45593999997E+02  0.45594000000E+02  0.51100000000E-03 0. -1.
    9900012    2    1    2    0    0  0.22181164734E+02  0.26143653815E+02 -0.26610687109E+02  0.47787269912E+02  0.19999994837E+02 0.  0.
        -12    1    1    2    0    0 -0.22181164734E+02 -0.26143653815E+02  0.26610687109E+02  0.43400730088E+02  0.00000000000E+00 0.  1.
         11    1    3    3    0    0  0.67649116443E+01  0.70878559706E+01 -0.72449014192E+01  0.12185660780E+02  0.51100000000E-03 0. -1.
        -11    1    3    3    0    0  0.13866132672E+02  0.15120967182E+02 -0.56954697565E+01  0.21292056261E+02  0.51100000000E-03 0.  1.
        -12    1    3    3    0    0  0.15501204177E+01  0.39348306622E+01 -0.13670315933E+02  0.14309552871E+02  0.00000000000E+00 0.  1.
</event>
<event>
 7    1  0.2497395E-009  0.4778727E+02  0.7816164E-02  0.1312668E+00
        -11   -1    0    0    0    0  0.00000000000E+00  0.00000000000E+00  0.45593999997E+02  0.45594000000E+02  0.51100000000E-03 0.  1.
         11   -1    0    0    0    0 -0.00000000000E+00 -0.00000000000E+00 -0.45593999997E+02  0.45594000000E+02  0.51100000000E-03 0. -1.
    9900012    2    1    2    0    0 -0.11610699283E+02 -0.41575192854E+02  0.45075805138E+01  0.47787270965E+02  0.19999999637E+02 0.  0.
        -12    1    1    2    0    0  0.11610699283E+02  0.41575192854E+02 -0.45075805138E+01  0.43400729035E+02  0.00000000000E+00 0.  1.
         11    1    3    3    0    0 -0.77313887652E+01 -0.29923296792E+02 -0.29587453930E+01  0.31047258135E+02  0.51100000000E-03 0. -1.
        -11    1    3    3    0    0 -0.13960680927E-01 -0.10827503936E+02  0.42032024234E+01  0.11614729754E+02  0.51100000000E-03 0.  1.
         12    1    3    3    0    0 -0.38653498373E+01 -0.82439212633E+00  0.32631234834E+01  0.51252830761E+01  0.00000000000E+00 0. -1.
</event>
<event>
 7    1  0.2497395E-009  0.4778727E+02  0.7816164E-02  0.1312668E+00
        -11   -1    0    0    0    0  0.00000000000E+00  0.00000000000E+00  0.45593999997E+02  0.45594000000E+02  0.51100000000E-03 0.  1.
         11   -1    0    0    0    0 -0.00000000000E+00 -0.00000000000E+00 -0.45593999997E+02  0.45594000000E+02  0.51100000000E-03 0. -1.
    9900012    2    1    2    0    0  0.15806673412E+02  0.11025621006E+02 -0.38887119164E+02  0.47787270976E+02  0.19999999689E+02 0.  0.
        -12    1    1    2    0    0 -0.15806673412E+02 -0.11025621006E+02  0.38887119164E+02  0.43400729024E+02  0.00000000000E+00 0.  1.
         11    1    3    3    0    0  0.45074473019E+01  0.11109597222E+02 -0.16506814589E+02  0.20401351910E+02  0.51100000000E-03 0. -1.
        -11    1    3    3    0    0  0.10319006761E+02 -0.40006874313E+01 -0.12404576213E+02  0.16624106344E+02  0.51100000000E-03 0.  1.
        -12    1    3    3    0    0  0.98021934995E+00  0.39167112155E+01 -0.99757283625E+01  0.10761812723E+02  0.00000000000E+00 0.  1.
</event>
<event>
 7    1  0.2497395E-009  0.4778728E+02  0.7816164E-02  0.1312668E+00
        -11   -1    0    0    0    0  0.00000000000E+00  0.00000000000E+00  0.45593999997E+02  0.45594000000E+02  0.51100000000E-03 0.  1.
         11   -1    0    0    0    0 -0.00000000000E+00 -0.00000000000E+00 -0.45593999997E+02  0.45594000000E+02  0.51100000000E-03 0. -1.
    9900012    2    1    2    0    0 -0.10727122189E+02  0.20190186868E+02 -0.36890488370E+02  0.47787275025E+02  0.20000018147E+02 0.  0.
        -12    1    1    2    0    0  0.10727122189E+02 -0.20190186868E+02  0.36890488370E+02  0.43400724975E+02  0.00000000000E+00 0.  1.
         11    1    3    3    0    0  0.15803475970E+01 -0.16306289555E+01 -0.12558949768E+02  0.12762588642E+02  0.51100000000E-03 0. -1.
        -11    1    3    3    0    0 -0.62959675776E+01  0.12348900914E+02 -0.11784444360E+02  0.18193616756E+02  0.51100000000E-03 0.  1.
         12    1    3    3    0    0 -0.60115022082E+01  0.94719149093E+01 -0.12547094242E+02  0.16831069626E+02  0.00000000000E+00 0. -1.
</event>
<event>
 7    1  0.2497395E-009  0.4778729E+02  0.7816164E-02  0.1312668E+00
        -11   -1    0    0    0    0  0.00000000000E+00  0.00000000000E+00  0.45593999997E+02  0.45594000000E+02  0.51100000000E-03 0.  1.
         11   -1    0    0    0    0 -0.00000000000E+00 -0.00000000000E+00 -0.45593999997E+02  0.45594000000E+02  0.51100000000E-03 0. -1.
    9900012    2    1    2    0    0 -0.43378429585E+02 -0.55790469624E-01  0.13893840369E+01  0.47787289708E+02  0.20000085094E+02 0.  0.
        -12    1    1    2    0    0  0.43378429585E+02  0.55790469624E-01 -0.13893840369E+01  0.43400710292E+02  0.00000000000E+00 0.  1.
         11    1    3    3    0    0 -0.22652762159E+02 -0.32467964321E+01 -0.71831693217E+01  0.23985146284E+02  0.51100000000E-03 0. -1.
        -11    1    3    3    0    0 -0.82887242270E+01  0.17775071812E+01  0.73602470591E+01  0.11226563059E+02  0.51100000000E-03 0.  1.
         12    1    3    3    0    0 -0.12436943199E+02  0.14134987813E+01  0.12123062996E+01  0.12575580364E+02  0.00000000000E+00 0. -1.
</event>
<event>
 7    1  0.2497395E-009  0.4778728E+02  0.7816164E-02  0.1312668E+00
        -11   -1    0    0    0    0  0.00000000000E+00  0.00000000000E+00  0.45593999997E+02  0.45594000000E+02  0.51100000000E-03 0.  1.
         11   -1    0    0    0    0 -0.00000000000E+00 -0.00000000000E+00 -0.45593999997E+02  0.45594000000E+02  0.51100000000E-03 0. -1.
    9900012    2    1    2    0    0 -0.27009515682E+02 -0.23343783231E+02 -0.24681500815E+02  0.47787278400E+02  0.20000033538E+02 0.  0.
        -12    1    1    2    0    0  0.27009515682E+02  0.23343783231E+02  0.24681500815E+02  0.43400721600E+02  0.00000000000E+00 0.  1.
         11    1    3    3    0    0 -0.23632541656E+01 -0.48279864804E+01 -0.54491743514E+01  0.76542749545E+01  0.51100000000E-03 0. -1.
        -11    1    3    3    0    0 -0.18290985238E+02 -0.21226750639E+02 -0.13256310478E+02  0.30997820107E+02  0.51100000000E-03 0.  1.
        -12    1    3    3    0    0 -0.63552762790E+01  0.27109538886E+01 -0.59760159855E+01  0.91351833385E+01  0.00000000000E+00 0.  1.
</event>
<event>
 7    1  0.2497395E-009  0.4778727E+02  0.7816164E-02  0.1312668E+00
        -11   -1    0    0    0    0  0.00000000000E+00  0.00000000000E+00  0.45593999997E+02  0.45594000000E+02  0.51100000000E-03 0.  1.
         11   -1    0    0    0    0 -0.00000000000E+00 -0.00000000000E+00 -0.45593999997E+02  0.45594000000E+02  0.51100000000E-03 0. -1.
    9900012    2    1    2    0    0 -0.32827876877E+01 -0.20714146804E+02 -0.37996982694E+02  0.47787271127E+02  0.20000000378E+02 0.  0.
        -12    1    1    2    0    0  0.32827876877E+01  0.20714146804E+02  0.37996982694E+02  0.43400728873E+02  0.00000000000E+00 0.  1.
         11    1    3    3    0    0 -0.49574151671E+01 -0.74944883099E+00 -0.14346327732E+02  0.15197195740E+02  0.51100000000E-03 0. -1.
        -11    1    3    3    0    0 -0.22516579070E+01 -0.16318488480E+02 -0.14304970710E+02  0.21817314612E+02  0.51100000000E-03 0.  1.
        -12    1    3    3    0    0  0.39262853864E+01 -0.36462094936E+01 -0.93456842516E+01  0.10772760776E+02  0.00000000000E+00 0.  1.
</event>
<event>
 7    1  0.2497395E-009  0.4778726E+02  0.7816164E-02  0.1312668E+00
        -11   -1    0    0    0    0  0.00000000000E+00  0.00000000000E+00  0.45593999997E+02  0.45594000000E+02  0.51100000000E-03 0. -1.
         11   -1    0    0    0    0 -0.00000000000E+00 -0.00000000000E+00 -0.45593999997E+02  0.45594000000E+02  0.51100000000E-03 0.  1.
    9900012    2    1    2    0    0  0.38820328472E+02  0.17601613314E+02 -0.81724932264E+01  0.47787258768E+02  0.19999944026E+02 0.  0.
        -12    1    1    2    0    0 -0.38820328472E+02 -0.17601613314E+02  0.81724932264E+01  0.43400741232E+02  0.00000000000E+00 0.  1.
         11    1    3    3    0    0  0.37269341936E+02  0.19338676840E+02 -0.10253695634E+02  0.43221829493E+02  0.51100000000E-03 0. -1.
        -11    1    3    3    0    0  0.76498807069E+00 -0.12897762649E+01  0.29513279147E+01  0.33104480487E+01  0.51100000000E-03 0.  1.
         12    1    3    3    0    0  0.78599846535E+00 -0.44728726049E+00 -0.87012550720E+00  0.12549812266E+01  0.00000000000E+00 0. -1.
</event>
<event>
 7    1  0.2497395E-009  0.4778727E+02  0.7816164E-02  0.1312668E+00
        -11   -1    0    0    0    0  0.00000000000E+00  0.00000000000E+00  0.45593999997E+02  0.45594000000E+02  0.51100000000E-03 0. -1.
         11   -1    0    0    0    0 -0.00000000000E+00 -0.00000000000E+00 -0.45593999997E+02  0.45594000000E+02  0.51100000000E-03 0.  1.
    9900012    2    1    2    0    0 -0.12417664562E+02  0.41549834178E+02  0.17425183624E+01  0.47787268628E+02  0.19999988982E+02 0.  0.
        -12    1    1    2    0    0  0.12417664562E+02 -0.41549834178E+02 -0.17425183624E+01  0.43400731372E+02  0.00000000000E+00 0.  1.
         11    1    3    3    0    0 -0.35655937854E+01  0.32877441856E+02  0.46255050758E+01  0.33392138887E+02  0.51100000000E-03 0. -1.
        -11    1    3    3    0    0 -0.50205050749E+01  0.17961723182E+01  0.12896896675E+01  0.54858915322E+01  0.51100000000E-03 0.  1.
         12    1    3    3    0    0 -0.38315657017E+01  0.68762200042E+01 -0.41726763809E+01  0.89092382083E+01  0.00000000000E+00 0. -1.
</event>
<event>
 7    1  0.2497395E-009  0.4778727E+02  0.7816164E-02  0.1312668E+00
        -11   -1    0    0    0    0  0.00000000000E+00  0.00000000000E+00  0.45593999997E+02  0.45594000000E+02  0.51100000000E-03 0.  1.
         11   -1    0    0    0    0 -0.00000000000E+00 -0.00000000000E+00 -0.45593999997E+02  0.45594000000E+02  0.51100000000E-03 0. -1.
    9900012    2    1    2    0    0  0.32417275717E+02 -0.25931020699E+02 -0.12661969718E+02  0.47787273318E+02  0.20000010366E+02 0.  0.
        -12    1    1    2    0    0 -0.32417275717E+02  0.25931020699E+02  0.12661969718E+02  0.43400726682E+02  0.00000000000E+00 0.  1.
         11    1    3    3    0    0  0.19092311137E+02 -0.21002848158E+02 -0.40829814842E+01  0.28675890804E+02  0.51100000000E-03 0. -1.
        -11    1    3    3    0    0  0.23275099824E+01  0.28884072016E+00  0.19245377752E+01  0.30339046770E+01  0.51100000000E-03 0.  1.
         12    1    3    3    0    0  0.10997454598E+02 -0.52170132606E+01 -0.10503526009E+02  0.16077477837E+02  0.00000000000E+00 0. -1.
</event>
<event>
 7    1  0.2497395E-009  0.4778727E+02  0.7816164E-02  0.1312668E+00
        -11   -1    0    0    0    0  0.00000000000E+00  0.00000000000E+00  0.45593999997E+02  0.45594000000E+02  0.51100000000E-03 0.  1.
         11   -1    0    0    0    0 -0.00000000000E+00 -0.00000000000E+00 -0.45593999997E+02  0.45594000000E+02  0.51100000000E-03 0. -1.
    9900012    2    1    2    0    0  0.10918466500E+02  0.37278370269E+02 -0.19358037558E+02  0.47787269375E+02  0.19999992390E+02 0.  0.
        -12    1    1    2    0    0 -0.10918466500E+02 -0.37278370269E+02  0.19358037558E+02  0.43400730625E+02  0.00000000000E+00 0.  1.
         11    1    3    3    0    0  0.38212465314E+01  0.21125319188E+02 -0.16586673455E+02  0.27129297308E+02  0.51100000000E-03 0. -1.
        -11    1    3    3    0    0  0.53229306172E+01  0.24114566569E+01  0.17216535404E+01  0.60920279659E+01  0.51100000000E-03 0.  1.
         12    1    3    3    0    0  0.17742893517E+01  0.13741594424E+02 -0.44930176427E+01  0.14565944101E+02  0.00000000000E+00 0. -1.
</event>
<event>
 7    1  0.2497395E-009  0.4778727E+02  0.7816164E-02  0.1312668E+00
        -11   -1    0    0    0    0  0.00000000000E+00  0.00000000000E+00  0.45593999997E+02  0.45594000000E+02  0.51100000000E-03 0. -1.
         11   -1    0    0    0    0 -0.00000000000E+00 -0.00000000000E+00 -0.45593999997E+02  0.45594000000E+02  0.51100000000E-03 0.  1.
    9900012    2    1    2    0    0  0.28777110922E+02  0.32343455644E+02  0.30663436938E+01  0.47787266139E+02  0.19999977635E+02 0.  0.
        -12    1    1    2    0    0 -0.28777110922E+02 -0.32343455644E+02 -0.30663436938E+01  0.43400733861E+02  0.00000000000E+00 0.  1.
         11    1    3    3    0    0  0.52986982425E+01  0.20102348712E+02  0.54632795453E+00  0.20796131883E+02  0.51100000000E-03 0. -1.
        -11    1    3    3    0    0  0.14360867053E+02  0.87367705626E+01 -0.34034506813E+00  0.16813134669E+02  0.51100000000E-03 0.  1.
         12    1    3    3    0    0  0.91175456273E+01  0.35043363694E+01  0.28603608074E+01  0.10177999588E+02  0.00000000000E+00 0. -1.
</event>
<event>
 7    1  0.2497395E-009  0.4778727E+02  0.7816164E-02  0.1312668E+00
        -11   -1    0    0    0    0  0.00000000000E+00  0.00000000000E+00  0.45593999997E+02  0.45594000000E+02  0.51100000000E-03 0.  1.
         11   -1    0    0    0    0 -0.00000000000E+00 -0.00000000000E+00 -0.45593999997E+02  0.45594000000E+02  0.51100000000E-03 0. -1.
    9900012    2    1    2    0    0 -0.41035097036E+02 -0.82691722059E+01 -0.11461464871E+02  0.47787267578E+02  0.19999984196E+02 0.  0.
        -12    1    1    2    0    0  0.41035097036E+02  0.82691722059E+01  0.11461464871E+02  0.43400732422E+02  0.00000000000E+00 0.  1.
         11    1    3    3    0    0 -0.66825958802E+00  0.51356285298E+00 -0.15194201525E+01  0.17375141847E+01  0.51100000000E-03 0. -1.
        -11    1    3    3    0    0 -0.22235449620E+02 -0.74735793834E+01 -0.14143774375E+02  0.27391895927E+02  0.51100000000E-03 0.  1.
        -12    1    3    3    0    0 -0.18131387828E+02 -0.13091556755E+01  0.42017296562E+01  0.18657857467E+02  0.00000000000E+00 0.  1.
</event>
<event>
 7    1  0.2497395E-009  0.4778727E+02  0.7816164E-02  0.1312668E+00
        -11   -1    0    0    0    0  0.00000000000E+00  0.00000000000E+00  0.45593999997E+02  0.45594000000E+02  0.51100000000E-03 0. -1.
         11   -1    0    0    0    0 -0.00000000000E+00 -0.00000000000E+00 -0.45593999997E+02  0.45594000000E+02  0.51100000000E-03 0.  1.
    9900012    2    1    2    0    0 -0.13956433671E+01 -0.40043235837E+02 -0.16679769410E+02  0.47787271154E+02  0.20000000502E+02 0.  0.
        -12    1    1    2    0    0  0.13956433671E+01  0.40043235837E+02  0.16679769410E+02  0.43400728846E+02  0.00000000000E+00 0.  1.
         11    1    3    3    0    0 -0.31735338852E+01 -0.65641883683E+01  0.34923228269E+01  0.80843184774E+01  0.51100000000E-03 0. -1.
        -11    1    3    3    0    0  0.16696046012E+01 -0.85893330541E+01 -0.22583953271E+01  0.90368452212E+01  0.51100000000E-03 0.  1.
         12    1    3    3    0    0  0.10828591693E+00 -0.24889714415E+02 -0.17913696910E+02  0.30666107456E+02  0.00000000000E+00 0. -1.
</event>
<event>
 7    1  0.2497395E-009  0.4778726E+02  0.7816164E-02  0.1312668E+00
        -11   -1    0    0    0    0  0.00000000000E+00  0.00000000000E+00  0.45593999997E+02  0.45594000000E+02  0.51100000000E-03 0.  1.
         11   -1    0    0    0    0 -0.00000000000E+00 -0.00000000000E+00 -0.45593999997E+02  0.45594000000E+02  0.51100000000E-03 0. -1.
    9900012    2    1    2    0    0  0.43215625255E+02  0.39424135002E+01  0.70065546265E+00  0.47787264886E+02  0.19999971919E+02 0.  0.
        -12    1    1    2    0    0 -0.43215625255E+02 -0.39424135002E+01 -0.70065546265E+00  0.43400735114E+02  0.00000000000E+00 0.  1.
         11    1    3    3    0    0  0.22619296520E+02 -0.87232802782E+00 -0.84605600667E+00  0.22651916966E+02  0.51100000000E-03 0. -1.
        -11    1    3    3    0    0  0.22316429668E+01 -0.30967112983E+01  0.33222506476E+01  0.50603558000E+01  0.51100000000E-03 0.  1.
        -12    1    3    3    0    0  0.18364685769E+02  0.79114528263E+01 -0.17755391782E+01  0.20074992119E+02  0.00000000000E+00 0.  1.
</event>
<event>
 7    1  0.2497395E-009  0.4778727E+02  0.7816164E-02  0.1312668E+00
        -11   -1    0    0    0    0  0.00000000000E+00  0.00000000000E+00  0.45593999997E+02  0.45594000000E+02  0.51100000000E-03 0.  1.
         11   -1    0    0    0    0 -0.00000000000E+00 -0.00000000000E+00 -0.45593999997E+02  0.45594000000E+02  0.51100000000E-03 0. -1.
    9900012    2    1    2    0    0 -0.30119006856E+02 -0.88543937238E+01 -0.29967791182E+02  0.47787269931E+02  0.19999994923E+02 0.  0.
        -12    1    1    2    0    0  0.30119006856E+02  0.88543937238E+01  0.29967791182E+02  0.43400730069E+02  0.00000000000E+00 0.  1.
         11    1    3    3    0    0 -0.11508019242E+02 -0.41321084207E+01 -0.57918444934E+00  0.12241089893E+02  0.51100000000E-03 0. -1.
        -11    1    3    3    0    0 -0.18271251107E+02 -0.33674630799E+01 -0.27717282210E+02  0.33368040967E+02  0.51100000000E-03 0.  1.
        -12    1    3    3    0    0 -0.33973650592E+00 -0.13548222232E+01 -0.16713245226E+01  0.21781390704E+01  0.00000000000E+00 0.  1.
</event>
<event>
 7    1  0.2497395E-009  0.4778728E+02  0.7816164E-02  0.1312668E+00
        -11   -1    0    0    0    0  0.00000000000E+00  0.00000000000E+00  0.45593999997E+02  0.45594000000E+02  0.51100000000E-03 0.  1.
         11   -1    0    0    0    0 -0.00000000000E+00 -0.00000000000E+00 -0.45593999997E+02  0.45594000000E+02  0.51100000000E-03 0. -1.
    9900012    2    1    2    0    0  0.33338121702E+02 -0.18542399293E+02 -0.20697141422E+02  0.47787278886E+02  0.20000035754E+02 0.  0.
        -12    1    1    2    0    0 -0.33338121702E+02  0.18542399293E+02  0.20697141422E+02  0.43400721114E+02  0.00000000000E+00 0.  1.
         11    1    3    3    0    0  0.16975691271E+02 -0.26666573576E+01 -0.37637610799E+01  0.17591220916E+02  0.51100000000E-03 0.  1.
        -11    1    3    3    0    0  0.17379461960E+02 -0.16339123572E+02 -0.16462939954E+02  0.28983461652E+02  0.51100000000E-03 0. -1.
        -12    1    3    3    0    0 -0.10170315291E+01  0.46338163725E+00 -0.47044038867E+00  0.12125963187E+01  0.00000000000E+00 0.  1.
</event>
<event>
 7    1  0.2497395E-009  0.4778727E+02  0.7816164E-02  0.1312668E+00
        -11   -1    0    0    0    0  0.00000000000E+00  0.00000000000E+00  0.45593999997E+02  0.45594000000E+02  0.51100000000E-03 0.  1.
         11   -1    0    0    0    0 -0.00000000000E+00 -0.00000000000E+00 -0.45593999997E+02  0.45594000000E+02  0.51100000000E-03 0. -1.
    9900012    2    1    2    0    0 -0.78508128783E+00 -0.41533121319E+02  0.12570066286E+02  0.47787273214E+02  0.20000009890E+02 0.  0.
        -12    1    1    2    0    0  0.78508128783E+00  0.41533121319E+02 -0.12570066286E+02  0.43400726786E+02  0.00000000000E+00 0.  1.
         11    1    3    3    0    0 -0.59683400695E+01 -0.27740949204E+02  0.13473993332E+02  0.31412256247E+02  0.51100000000E-03 0. -1.
        -11    1    3    3    0    0  0.53306359363E+01 -0.48900396490E+01  0.90359971381E+00  0.72900384058E+01  0.51100000000E-03 0.  1.
         12    1    3    3    0    0 -0.14737715462E+00 -0.89021324660E+01 -0.18075267597E+01  0.90849785611E+01  0.00000000000E+00 0. -1.
</event>
<event>
 7    1  0.2497395E-009  0.4778727E+02  0.7816164E-02  0.1312668E+00
        -11   -1    0    0    0    0  0.00000000000E+00  0.00000000000E+00  0.45593999997E+02  0.45594000000E+02  0.51100000000E-03 0.  1.
         11   -1    0    0    0    0 -0.00000000000E+00 -0.00000000000E+00 -0.45593999997E+02  0.45594000000E+02  0.51100000000E-03 0. -1.
    9900012    2    1    2    0    0 -0.15590791727E+02  0.27362139176E+02 -0.29864086374E+02  0.47787273026E+02  0.20000009033E+02 0.  0.
        -12    1    1    2    0    0  0.15590791727E+02 -0.27362139176E+02  0.29864086374E+02  0.43400726974E+02  0.00000000000E+00 0.  1.
         11    1    3    3    0    0 -0.92527739731E+01  0.76253699808E+01 -0.11523912499E+02  0.16630112840E+02  0.51100000000E-03 0. -1.
        -11    1    3    3    0    0 -0.47984267079E+01  0.17460269274E+02 -0.68776271673E+01  0.19369761426E+02  0.51100000000E-03 0.  1.
        -12    1    3    3    0    0 -0.15395910458E+01  0.22764999210E+01 -0.11462546708E+02  0.11787398759E+02  0.00000000000E+00 0.  1.
</event>
<event>
 7    1  0.2497395E-009  0.4778723E+02  0.7816164E-02  0.1312668E+00
        -11   -1    0    0    0    0  0.00000000000E+00  0.00000000000E+00  0.45593999997E+02  0.45594000000E+02  0.51100000000E-03 0. -1.
         11   -1    0    0    0    0 -0.00000000000E+00 -0.00000000000E+00 -0.45593999997E+02  0.45594000000E+02  0.51100000000E-03 0.  1.
    9900012    2    1    2    0    0 -0.20579611901E+02 -0.25821520122E+02  0.28166566729E+02  0.47787230322E+02  0.19999814327E+02 0.  0.
        -12    1    1    2    0    0  0.20579611901E+02  0.25821520122E+02 -0.28166566729E+02  0.43400769678E+02  0.00000000000E+00 0.  1.
         11    1    3    3    0    0 -0.17333146503E+02 -0.93744805865E+01  0.12184116790E+02  0.23168330889E+02  0.51100000000E-03 0. -1.
        -11    1    3    3    0    0  0.25331225033E+01 -0.35488891742E+01  0.55182745959E+01  0.70329708349E+01  0.51100000000E-03 0.  1.
         12    1    3    3    0    0 -0.57795879016E+01 -0.12898150361E+02  0.10464175343E+02  0.17585928598E+02  0.00000000000E+00 0. -1.
</event>
<event>
 7    1  0.2497395E-009  0.4778727E+02  0.7816164E-02  0.1312668E+00
        -11   -1    0    0    0    0  0.00000000000E+00  0.00000000000E+00  0.45593999997E+02  0.45594000000E+02  0.51100000000E-03 0. -1.
         11   -1    0    0    0    0 -0.00000000000E+00 -0.00000000000E+00 -0.45593999997E+02  0.45594000000E+02  0.51100000000E-03 0.  1.
    9900012    2    1    2    0    0  0.28642486244E+02  0.13552119532E+02  0.29657563925E+02  0.47787273508E+02  0.20000011234E+02 0.  0.
        -12    1    1    2    0    0 -0.28642486244E+02 -0.13552119532E+02 -0.29657563925E+02  0.43400726492E+02  0.00000000000E+00 0.  1.
         11    1    3    3    0    0  0.16683641749E+02  0.66181918383E+01  0.14796160697E+02  0.23260927257E+02  0.51100000000E-03 0. -1.
        -11    1    3    3    0    0  0.15234252163E+01  0.87326516293E+01  0.77103240930E+01  0.11748579776E+02  0.51100000000E-03 0.  1.
        -12    1    3    3    0    0  0.10435419279E+02 -0.17987239353E+01  0.71510791349E+01  0.12777766476E+02  0.00000000000E+00 0.  1.
</event>
<event>
 7    1  0.2497395E-009  0.4778727E+02  0.7816164E-02  0.1312668E+00
        -11   -1    0    0    0    0  0.00000000000E+00  0.00000000000E+00  0.45593999997E+02  0.45594000000E+02  0.51100000000E-03 0. -1.
         11   -1    0    0    0    0 -0.00000000000E+00 -0.00000000000E+00 -0.45593999997E+02  0.45594000000E+02  0.51100000000E-03 0.  1.
    9900012    2    1    2    0    0  0.10205324064E+02  0.37387144821E+02  0.19536528080E+02  0.47787272281E+02  0.20000005637E+02 0.  0.
        -12    1    1    2    0    0 -0.10205324064E+02 -0.37387144821E+02 -0.19536528080E+02  0.43400727719E+02  0.00000000000E+00 0.  1.
         11    1    3    3    0    0  0.22385146721E-01  0.17532694356E+02  0.10265811708E+02  0.20317055958E+02  0.51100000000E-03 0. -1.
        -11    1    3    3    0    0  0.59241255903E+01  0.37076794999E+01 -0.20647482508E+01  0.72873408651E+01  0.51100000000E-03 0.  1.
        -12    1    3    3    0    0  0.42588133270E+01  0.16146770965E+02  0.11335464622E+02  0.20182875458E+02  0.00000000000E+00 0.  1.
</event>
<event>
 7    1  0.2497395E-009  0.4778728E+02  0.7816164E-02  0.1312668E+00
        -11   -1    0    0    0    0  0.00000000000E+00  0.00000000000E+00  0.45593999997E+02  0.45594000000E+02  0.51100000000E-03 0. -1.
         11   -1    0    0    0    0 -0.00000000000E+00 -0.00000000000E+00 -0.45593999997E+02  0.45594000000E+02  0.51100000000E-03 0.  1.
    9900012    2    1    2    0    0 -0.11565550621E+02  0.37546260766E+02 -0.18442853743E+02  0.47787279812E+02  0.20000039974E+02 0.  0.
        -12    1    1    2    0    0  0.11565550621E+02 -0.37546260766E+02  0.18442853743E+02  0.43400720188E+02  0.00000000000E+00 0.  1.
         11    1    3    3    0    0 -0.13560446663E+02  0.25711329142E+02 -0.76315053926E+01  0.30053253314E+02  0.51100000000E-03 0. -1.
        -11    1    3    3    0    0 -0.51202951334E+00  0.95176968990E+01 -0.10684166052E+02  0.14317825707E+02  0.51100000000E-03 0.  1.
         12    1    3    3    0    0  0.25069255547E+01  0.23172347251E+01 -0.12718229831E+00  0.34162007911E+01  0.00000000000E+00 0. -1.
</event>
<event>
 7    1  0.2497395E-009  0.4778727E+02  0.7816164E-02  0.1312668E+00
        -11   -1    0    0    0    0  0.00000000000E+00  0.00000000000E+00  0.45593999997E+02  0.45594000000E+02  0.51100000000E-03 0.  1.
         11   -1    0    0    0    0 -0.00000000000E+00 -0.00000000000E+00 -0.45593999997E+02  0.45594000000E+02  0.51100000000E-03 0. -1.
    9900012    2    1    2    0    0  0.74339619693E+01  0.32314598380E+02 -0.28002254949E+02  0.47787270268E+02  0.19999996462E+02 0.  0.
        -12    1    1    2    0    0 -0.74339619693E+01 -0.32314598380E+02  0.28002254949E+02  0.43400729732E+02  0.00000000000E+00 0.  1.
         11    1    3    3    0    0  0.32581460020E+01  0.15158247438E+02 -0.20903871904E+02  0.26026137662E+02  0.51100000000E-03 0. -1.
        -11    1    3    3    0    0  0.46812509593E+00  0.68363860095E+01  0.23929811262E+01  0.72582142231E+01  0.51100000000E-03 0.  1.
        -12    1    3    3    0    0  0.37076908713E+01  0.10319964932E+02 -0.94913641710E+01  0.14502918383E+02  0.00000000000E+00 0.  1.
</event>
<event>
 7    1  0.2497395E-009  0.4778727E+02  0.7816164E-02  0.1312668E+00
        -11   -1    0    0    0    0  0.00000000000E+00  0.00000000000E+00  0.45593999997E+02  0.45594000000E+02  0.51100000000E-03 0.  1.
         11   -1    0    0    0    0 -0.00000000000E+00 -0.00000000000E+00 -0.45593999997E+02  0.45594000000E+02  0.51100000000E-03 0. -1.
    9900012    2    1    2    0    0  0.10560988152E+02  0.41553315167E+02 -0.67387713418E+01  0.47787268309E+02  0.19999987529E+02 0.  0.
        -12    1    1    2    0    0 -0.10560988152E+02 -0.41553315167E+02  0.67387713418E+01  0.43400731691E+02  0.00000000000E+00 0.  1.
         11    1    3    3    0    0  0.10843231991E+01  0.31018926903E+02 -0.51116610252E+01  0.31455979745E+02  0.51100000000E-03 0. -1.
        -11    1    3    3    0    0  0.11395647850E+01 -0.12276501835E+01  0.52290474299E+00  0.17547542573E+01  0.51100000000E-03 0.  1.
         12    1    3    3    0    0  0.83371001679E+01  0.11762038448E+02 -0.21500150596E+01  0.14576534307E+02  0.00000000000E+00 0. -1.
</event>
<event>
 7    1  0.2497395E-009  0.4778727E+02  0.7816164E-02  0.1312668E+00
        -11   -1    0    0    0    0  0.00000000000E+00  0.00000000000E+00  0.45593999997E+02  0.45594000000E+02  0.51100000000E-03 0.  1.
         11   -1    0    0    0    0 -0.00000000000E+00 -0.00000000000E+00 -0.45593999997E+02  0.45594000000E+02  0.51100000000E-03 0. -1.
    9900012    2    1    2    0    0  0.15672730770E+02 -0.40281966939E+02 -0.39181592558E+01  0.47787270488E+02  0.19999997462E+02 0.  0.
        -12    1    1    2    0    0 -0.15672730770E+02  0.40281966939E+02  0.39181592558E+01  0.43400729512E+02  0.00000000000E+00 0.  1.
         11    1    3    3    0    0  0.13818479523E+02 -0.23527080941E+02 -0.31543507484E+01  0.27466777074E+02  0.51100000000E-03 0. -1.
        -11    1    3    3    0    0 -0.30104859329E+01 -0.11015422389E+02  0.31413914080E+01  0.11843601488E+02  0.51100000000E-03 0.  1.
        -12    1    3    3    0    0  0.48647371801E+01 -0.57394636084E+01 -0.39051999154E+01  0.84768919259E+01  0.00000000000E+00 0.  1.
</event>
<event>
 7    1  0.2497395E-009  0.4778729E+02  0.7816164E-02  0.1312668E+00
        -11   -1    0    0    0    0  0.00000000000E+00  0.00000000000E+00  0.45593999997E+02  0.45594000000E+02  0.51100000000E-03 0.  1.
         11   -1    0    0    0    0 -0.00000000000E+00 -0.00000000000E+00 -0.45593999997E+02  0.45594000000E+02  0.51100000000E-03 0. -1.
    9900012    2    1    2    0    0 -0.16734005461E+02  0.20920801789E+02 -0.34145495424E+02  0.47787288669E+02  0.20000080358E+02 0.  0.
        -12    1    1    2    0    0  0.16734005461E+02 -0.20920801789E+02  0.34145495424E+02  0.43400711331E+02  0.00000000000E+00 0.  1.
         11    1    3    3    0    0 -0.32682274323E+01  0.63989761696E+01 -0.65943080021E+01  0.97525947755E+01  0.51100000000E-03 0. -1.
        -11    1    3    3    0    0 -0.95174437829E+01  0.15254477572E+02 -0.28691893487E+02  0.33860088220E+02  0.51100000000E-03 0.  1.
        -12    1    3    3    0    0 -0.39483342459E+01 -0.73265195279E+00  0.11407060650E+01  0.41746056733E+01  0.00000000000E+00 0.  1.
</event>
<event>
 7    1  0.2497395E-009  0.4778726E+02  0.7816164E-02  0.1312668E+00
        -11   -1    0    0    0    0  0.00000000000E+00  0.00000000000E+00  0.45593999997E+02  0.45594000000E+02  0.51100000000E-03 0. -1.
         11   -1    0    0    0    0 -0.00000000000E+00 -0.00000000000E+00 -0.45593999997E+02  0.45594000000E+02  0.51100000000E-03 0.  1.
    9900012    2    1    2    0    0 -0.20641477014E+02 -0.38045645035E+02  0.31753215065E+01  0.47787258692E+02  0.19999943680E+02 0.  0.
        -12    1    1    2    0    0  0.20641477014E+02  0.38045645035E+02 -0.31753215065E+01  0.43400741308E+02  0.00000000000E+00 0.  1.
         11    1    3    3    0    0 -0.11537490195E+02 -0.85783453801E+01 -0.32641780015E+01  0.14743016915E+02  0.51100000000E-03 0. -1.
        -11    1    3    3    0    0 -0.86620942201E+01 -0.28694655717E+02  0.81970013056E+01  0.31074201095E+02  0.51100000000E-03 0.  1.
        -12    1    3    3    0    0 -0.44189259916E+00 -0.77264393711E+00 -0.17575017976E+01  0.19700406827E+01  0.00000000000E+00 0.  1.
</event>
<event>
 7    1  0.2497395E-009  0.4778728E+02  0.7816164E-02  0.1312668E+00
        -11   -1    0    0    0    0  0.00000000000E+00  0.00000000000E+00  0.45593999997E+02  0.45594000000E+02  0.51100000000E-03 0.  1.
         11   -1    0    0    0    0 -0.00000000000E+00 -0.00000000000E+00 -0.45593999997E+02  0.45594000000E+02  0.51100000000E-03 0. -1.
    9900012    2    1    2    0    0 -0.39999257240E+02  0.70751103829E+01 -0.15284792248E+02  0.47787278339E+02  0.20000033258E+02 0.  0.
        -12    1    1    2    0    0  0.39999257240E+02 -0.70751103829E+01  0.15284792248E+02  0.43400721661E+02  0.00000000000E+00 0.  1.
         11    1    3    3    0    0 -0.24944489763E+02  0.21733816280E+01 -0.87608586479E+01  0.26527416039E+02  0.51100000000E-03 0. -1.
        -11    1    3    3    0    0 -0.12610335511E+01  0.62485063498E+01 -0.19996680663E+01  0.66807716514E+01  0.51100000000E-03 0.  1.
        -12    1    3    3    0    0 -0.13793733926E+02 -0.13467775949E+01 -0.45242655335E+01  0.14579090648E+02  0.00000000000E+00 0.  1.
</event>
<event>
 7    1  0.2497395E-009  0.4778727E+02  0.7816164E-02  0.1312668E+00
        -11   -1    0    0    0    0  0.00000000000E+00  0.00000000000E+00  0.45593999997E+02  0.45594000000E+02  0.51100000000E-03 0.  1.
         11   -1    0    0    0    0 -0.00000000000E+00 -0.00000000000E+00 -0.45593999997E+02  0.45594000000E+02  0.51100000000E-03 0. -1.
    9900012    2    1    2    0    0 -0.25307300073E+02  0.12535078516E+02 -0.32955054965E+02  0.47787270996E+02  0.19999999777E+02 0.  0.
        -12    1    1    2    0    0  0.25307300073E+02 -0.12535078516E+02  0.32955054965E+02  0.43400729004E+02  0.00000000000E+00 0.  1.
         11    1    3    3    0    0 -0.74251231389E+01  0.32485177101E+01 -0.92131274715E+01  0.12270576148E+02  0.51100000000E-03 0. -1.
        -11    1    3    3    0    0 -0.11061388076E+02 -0.37636641400E+01 -0.10871869767E+02  0.15959856716E+02  0.51100000000E-03 0.  1.
        -12    1    3    3    0    0 -0.68207888580E+01  0.13050224946E+02 -0.12870057727E+02  0.19556838131E+02  0.00000000000E+00 0.  1.
</event>
<event>
 7    1  0.2497395E-009  0.4778727E+02  0.7816164E-02  0.1312668E+00
        -11   -1    0    0    0    0  0.00000000000E+00  0.00000000000E+00  0.45593999997E+02  0.45594000000E+02  0.51100000000E-03 0.  1.
         11   -1    0    0    0    0 -0.00000000000E+00 -0.00000000000E+00 -0.45593999997E+02  0.45594000000E+02  0.51100000000E-03 0. -1.
    9900012    2    1    2    0    0 -0.26219942971E+00 -0.43397582738E+02 -0.45222694856E+00  0.47787269070E+02  0.19999990999E+02 0.  0.
        -12    1    1    2    0    0  0.26219942971E+00  0.43397582738E+02  0.45222694856E+00  0.43400730930E+02  0.00000000000E+00 0.  1.
         11    1    3    3    0    0  0.38192690389E+01 -0.15024423895E+02 -0.68037502317E+01  0.16929593818E+02  0.51100000000E-03 0. -1.
        -11    1    3    3    0    0 -0.63839867955E+01 -0.12754321538E+02  0.45320014350E+01  0.14965528476E+02  0.51100000000E-03 0.  1.
         12    1    3    3    0    0  0.23025183270E+01 -0.15618837305E+02  0.18195218481E+01  0.15892146776E+02  0.00000000000E+00 0. -1.
</event>
<event>
 7    1  0.2497395E-009  0.4778727E+02  0.7816164E-02  0.1312668E+00
        -11   -1    0    0    0    0  0.00000000000E+00  0.00000000000E+00  0.45593999997E+02  0.45594000000E+02  0.51100000000E-03 0.  1.
         11   -1    0    0    0    0 -0.00000000000E+00 -0.00000000000E+00 -0.45593999997E+02  0.45594000000E+02  0.51100000000E-03 0. -1.
    9900012    2    1    2    0    0  0.23434572031E+02 -0.33845592360E+02 -0.13744819790E+02  0.47787270058E+02  0.19999995501E+02 0.  0.
        -12    1    1    2    0    0 -0.23434572031E+02  0.33845592360E+02  0.13744819790E+02  0.43400729942E+02  0.00000000000E+00 0.  1.
         11    1    3    3    0    0  0.10849077566E+02 -0.20653662966E+02 -0.99004166064E+01  0.25343530283E+02  0.51100000000E-03 0. -1.
        -11    1    3    3    0    0 -0.20055743300E+01  0.27707496592E+00  0.56656531478E+00  0.21024023038E+01  0.51100000000E-03 0.  1.
        -12    1    3    3    0    0  0.14591068795E+02 -0.13469004359E+02 -0.44109684981E+01  0.20341337471E+02  0.00000000000E+00 0.  1.
</event>
<event>
 7    1  0.2497395E-009  0.4778727E+02  0.7816164E-02  0.1312668E+00
        -11   -1    0    0    0    0  0.00000000000E+00  0.00000000000E+00  0.45593999997E+02  0.45594000000E+02  0.51100000000E-03 0.  1.
         11   -1    0    0    0    0 -0.00000000000E+00 -0.00000000000E+00 -0.45593999997E+02  0.45594000000E+02  0.51100000000E-03 0. -1.
    9900012    2    1    2    0    0 -0.27412904936E+02  0.32652982426E+02  0.81202817747E+01  0.47787267351E+02  0.19999983161E+02 0.  0.
        -12    1    1    2    0    0  0.27412904936E+02 -0.32652982426E+02 -0.81202817747E+01  0.43400732649E+02  0.00000000000E+00 0.  1.
         11    1    3    3    0    0 -0.99468566181E+01  0.14050648627E+02  0.11764058179E+02  0.20850749352E+02  0.51100000000E-03 0. -1.
        -11    1    3    3    0    0 -0.12100789033E+02  0.71845463112E+01 -0.20017745474E+01  0.14214566561E+02  0.51100000000E-03 0.  1.
         12    1    3    3    0    0 -0.53652592848E+01  0.11417787488E+02 -0.16420018566E+01  0.12721951438E+02  0.00000000000E+00 0. -1.
</event>
<event>
 7    1  0.2497395E-009  0.4778727E+02  0.7816164E-02  0.1312668E+00
        -11   -1    0    0    0    0  0.00000000000E+00  0.00000000000E+00  0.45593999997E+02  0.45594000000E+02  0.51100000000E-03 0.  1.
         11   -1    0    0    0    0 -0.00000000000E+00 -0.00000000000E+00 -0.45593999997E+02  0.45594000000E+02  0.51100000000E-03 0. -1.
    9900012    2    1    2    0    0 -0.21377811481E+02 -0.33924960123E+02  0.16604504982E+02  0.47787270412E+02  0.19999997119E+02 0.  0.
        -12    1    1    2    0    0  0.21377811481E+02  0.33924960123E+02 -0.16604504982E+02  0.43400729588E+02  0.00000000000E+00 0.  1.
         11    1    3    3    0    0 -0.70939075645E+01 -0.21792557900E+02  0.75639470598E+01  0.24134050629E+02  0.51100000000E-03 0. -1.
        -11    1    3    3    0    0 -0.85896151467E+01 -0.43576062698E+00  0.18803490138E+01  0.88038110138E+01  0.51100000000E-03 0.  1.
        -12    1    3    3    0    0 -0.56942887695E+01 -0.11696641596E+02  0.71602089080E+01  0.14849408770E+02  0.00000000000E+00 0.  1.
</event>
<event>
 7    1  0.2497395E-009  0.4778727E+02  0.7816164E-02  0.1312668E+00
        -11   -1    0    0    0    0  0.00000000000E+00  0.00000000000E+00  0.45593999997E+02  0.45594000000E+02  0.51100000000E-03 0.  1.
         11   -1    0    0    0    0 -0.00000000000E+00 -0.00000000000E+00 -0.45593999997E+02  0.45594000000E+02  0.51100000000E-03 0. -1.
    9900012    2    1    2    0    0 -0.39525581506E+02 -0.51269769203E+01  0.17177478311E+02  0.47787271356E+02  0.20000001419E+02 0.  0.
        -12    1    1    2    0    0  0.39525581506E+02  0.51269769203E+01 -0.17177478311E+02  0.43400728644E+02  0.00000000000E+00 0.  1.
         11    1    3    3    0    0 -0.32059559144E+02 -0.36578136121E+01  0.52362837080E+01  0.32689655860E+02  0.51100000000E-03 0. -1.
        -11    1    3    3    0    0 -0.26997792828E+00 -0.54698186106E+00  0.50657937257E+01  0.51023860664E+01  0.51100000000E-03 0.  1.
        -12    1    3    3    0    0 -0.71960444341E+01 -0.92218144714E+00  0.68754008775E+01  0.99952294294E+01  0.00000000000E+00 0.  1.
</event>
<event>
 7    1  0.2497395E-009  0.4778727E+02  0.7816164E-02  0.1312668E+00
        -11   -1    0    0    0    0  0.00000000000E+00  0.00000000000E+00  0.45593999997E+02  0.45594000000E+02  0.51100000000E-03 0.  1.
         11   -1    0    0    0    0 -0.00000000000E+00 -0.00000000000E+00 -0.45593999997E+02  0.45594000000E+02  0.51100000000E-03 0. -1.
    9900012    2    1    2    0    0  0.34562590533E+02  0.96409633830E+01 -0.24415208299E+02  0.47787271486E+02  0.20000002012E+02 0.  0.
        -12    1    1    2    0    0 -0.34562590533E+02 -0.96409633830E+01  0.24415208299E+02  0.43400728514E+02  0.00000000000E+00 0.  1.
         11    1    3    3    0    0  0.11172311496E+02  0.99729778796E+01 -0.13604191080E+02  0.20232519546E+02  0.51100000000E-03 0. -1.
        -11    1    3    3    0    0  0.23643456947E+02 -0.75586571048E+00 -0.84139170625E+01  0.25107337373E+02  0.51100000000E-03 0.  1.
        -12    1    3    3    0    0 -0.25317790997E+00  0.42385121383E+00 -0.23971001558E+01  0.24474145670E+01  0.00000000000E+00 0.  1.
</event>
<event>
 7    1  0.2497395E-009  0.4778728E+02  0.7816164E-02  0.1312668E+00
        -11   -1    0    0    0    0  0.00000000000E+00  0.00000000000E+00  0.45593999997E+02  0.45594000000E+02  0.51100000000E-03 0. -1.
         11   -1    0    0    0    0 -0.00000000000E+00 -0.00000000000E+00 -0.45593999997E+02  0.45594000000E+02  0.51100000000E-03 0.  1.
    9900012    2    1    2    0    0  0.22456841338E+02 -0.37010371868E+02  0.30895820720E+01  0.47787275742E+02  0.20000021420E+02 0.  0.
        -12    1    1    2    0    0 -0.22456841338E+02  0.37010371868E+02 -0.30895820720E+01  0.43400724258E+02  0.00000000000E+00 0.  1.
         11    1    3    3    0    0  0.18356331887E+02 -0.24080158123E+02 -0.59240124466E+01  0.30852923027E+02  0.51100000000E-03 0. -1.
        -11    1    3    3    0    0  0.91221871078E+00 -0.16689533114E+01  0.35294251317E+01  0.40092879858E+01  0.51100000000E-03 0.  1.
         12    1    3    3    0    0  0.31882907402E+01 -0.11261260434E+02  0.54841693869E+01  0.12925064729E+02  0.00000000000E+00 0. -1.
</event>
<event>
 7    1  0.2497395E-009  0.4778728E+02  0.7816164E-02  0.1312668E+00
        -11   -1    0    0    0    0  0.00000000000E+00  0.00000000000E+00  0.45593999997E+02  0.45594000000E+02  0.51100000000E-03 0.  1.
         11   -1    0    0    0    0 -0.00000000000E+00 -0.00000000000E+00 -0.45593999997E+02  0.45594000000E+02  0.51100000000E-03 0. -1.
    9900012    2    1    2    0    0 -0.12664821272E+02  0.40098752214E+02 -0.10738479443E+02  0.47787279180E+02  0.20000037092E+02 0.  0.
        -12    1    1    2    0    0  0.12664821272E+02 -0.40098752214E+02  0.10738479443E+02  0.43400720820E+02  0.00000000000E+00 0.  1.
         11    1    3    3    0    0  0.15753185488E+01  0.58831943664E+01  0.45361271544E+00  0.61073209544E+01  0.51100000000E-03 0. -1.
        -11    1    3    3    0    0 -0.77903455604E+01  0.18630292346E+02  0.19639809592E+01  0.20288777645E+02  0.51100000000E-03 0.  1.
        -12    1    3    3    0    0 -0.64497942604E+01  0.15585265502E+02 -0.13156073117E+02  0.21391180581E+02  0.00000000000E+00 0.  1.
</event>
<event>
 7    1  0.2497395E-009  0.4778727E+02  0.7816164E-02  0.1312668E+00
        -11   -1    0    0    0    0  0.00000000000E+00  0.00000000000E+00  0.45593999997E+02  0.45594000000E+02  0.51100000000E-03 0.  1.
         11   -1    0    0    0    0 -0.00000000000E+00 -0.00000000000E+00 -0.45593999997E+02  0.45594000000E+02  0.51100000000E-03 0. -1.
    9900012    2    1    2    0    0  0.17905430528E+02  0.30683698495E+02 -0.24930493773E+02  0.47787270564E+02  0.19999997812E+02 0.  0.
        -12    1    1    2    0    0 -0.17905430528E+02 -0.30683698495E+02  0.24930493773E+02  0.43400729436E+02  0.00000000000E+00 0.  1.
         11    1    3    3    0    0  0.85327044631E+01  0.22868375198E+01 -0.81105215723E+01  0.11992382238E+02  0.51100000000E-03 0. -1.
        -11    1    3    3    0    0  0.10385097133E+01  0.15088237623E+01 -0.48889233523E+01  0.52207876203E+01  0.51100000000E-03 0.  1.
         12    1    3    3    0    0  0.83342163517E+01  0.26888037213E+02 -0.11931048849E+02  0.30574100707E+02  0.00000000000E+00 0. -1.
</event>
<event>
 7    1  0.2497395E-009  0.4778727E+02  0.7816164E-02  0.1312668E+00
        -11   -1    0    0    0    0  0.00000000000E+00  0.00000000000E+00  0.45593999997E+02  0.45594000000E+02  0.51100000000E-03 0.  1.
         11   -1    0    0    0    0 -0.00000000000E+00 -0.00000000000E+00 -0.45593999997E+02  0.45594000000E+02  0.51100000000E-03 0. -1.
    9900012    2    1    2    0    0  0.21555121834E+02 -0.37613985678E+02 -0.20465784865E+01  0.47787266373E+02  0.19999978701E+02 0.  0.
        -12    1    1    2    0    0 -0.21555121834E+02  0.37613985678E+02  0.20465784865E+01  0.43400733627E+02  0.00000000000E+00 0.  1.
         11    1    3    3    0    0  0.56112995135E+01 -0.17791630030E+02  0.75591335401E+01  0.20128817190E+02  0.51100000000E-03 0. -1.
        -11    1    3    3    0    0  0.24884838984E+01 -0.10064184080E+01 -0.21445559472E+00  0.26928463728E+01  0.51100000000E-03 0.  1.
         12    1    3    3    0    0  0.13455338422E+02 -0.18815937240E+02 -0.93912564319E+01  0.24965602810E+02  0.00000000000E+00 0. -1.
</event>
<event>
 7    1  0.2497395E-009  0.4778727E+02  0.7816164E-02  0.1312668E+00
        -11   -1    0    0    0    0  0.00000000000E+00  0.00000000000E+00  0.45593999997E+02  0.45594000000E+02  0.51100000000E-03 0.  1.
         11   -1    0    0    0    0 -0.00000000000E+00 -0.00000000000E+00 -0.45593999997E+02  0.45594000000E+02  0.51100000000E-03 0. -1.
    9900012    2    1    2    0    0  0.26190334367E+02 -0.25265168673E+02  0.23650813948E+02  0.47787270021E+02  0.19999995332E+02 0.  0.
        -12    1    1    2    0    0 -0.26190334367E+02  0.25265168673E+02 -0.23650813948E+02  0.43400729979E+02  0.00000000000E+00 0.  1.
         11    1    3    3    0    0  0.79272059500E+01 -0.26593456771E+01  0.41484606843E+01  0.93339402138E+01  0.51100000000E-03 0. -1.
        -11    1    3    3    0    0  0.15781376289E+02 -0.17572288311E+02  0.68180806243E+01  0.24582989600E+02  0.51100000000E-03 0.  1.
        -12    1    3    3    0    0  0.24817521283E+01 -0.50335346857E+01  0.12684272639E+02  0.13870340206E+02  0.00000000000E+00 0.  1.
</event>
<event>
 7    1  0.2497395E-009  0.4778728E+02  0.7816164E-02  0.1312668E+00
        -11   -1    0    0    0    0  0.00000000000E+00  0.00000000000E+00  0.45593999997E+02  0.45594000000E+02  0.51100000000E-03 0.  1.
         11   -1    0    0    0    0 -0.00000000000E+00 -0.00000000000E+00 -0.45593999997E+02  0.45594000000E+02  0.51100000000E-03 0. -1.
    9900012    2    1    2    0    0  0.25811707322E+02 -0.25489197681E+02 -0.23826015712E+02  0.47787280443E+02  0.20000042853E+02 0.  0.
        -12    1    1    2    0    0 -0.25811707322E+02  0.25489197681E+02  0.23826015712E+02  0.43400719557E+02  0.00000000000E+00 0.  1.
         11    1    3    3    0    0  0.85394400767E+01 -0.68783253432E+01  0.12742747747E+01  0.11038893641E+02  0.51100000000E-03 0. -1.
        -11    1    3    3    0    0  0.14302272392E+02 -0.97039684954E+01 -0.18180319109E+02  0.25084776325E+02  0.51100000000E-03 0.  1.
        -12    1    3    3    0    0  0.29699948537E+01 -0.89069038424E+01 -0.69199713783E+01  0.11663610477E+02  0.00000000000E+00 0.  1.
</event>
<event>
 7    1  0.2497395E-009  0.4778727E+02  0.7816164E-02  0.1312668E+00
        -11   -1    0    0    0    0  0.00000000000E+00  0.00000000000E+00  0.45593999997E+02  0.45594000000E+02  0.51100000000E-03 0.  1.
         11   -1    0    0    0    0 -0.00000000000E+00 -0.00000000000E+00 -0.45593999997E+02  0.45594000000E+02  0.51100000000E-03 0. -1.
    9900012    2    1    2    0    0  0.16192272284E+02 -0.23947125333E+02 -0.32372344372E+02  0.47787272200E+02  0.20000005270E+02 0.  0.
        -12    1    1    2    0    0 -0.16192272284E+02  0.23947125333E+02  0.32372344372E+02  0.43400727800E+02  0.00000000000E+00 0.  1.
         11    1    3    3    0    0  0.16393488944E+02 -0.13702516192E+02 -0.19496011105E+02  0.28924036354E+02  0.51100000000E-03 0. -1.
        -11    1    3    3    0    0 -0.72355974180E+00 -0.11962660746E+02 -0.11030919642E+02  0.16288338750E+02  0.51100000000E-03 0.  1.
        -12    1    3    3    0    0  0.52234308166E+00  0.17180516045E+01 -0.18454136246E+01  0.25748970964E+01  0.00000000000E+00 0.  1.
</event>
<event>
 7    1  0.2497395E-009  0.4778727E+02  0.7816164E-02  0.1312668E+00
        -11   -1    0    0    0    0  0.00000000000E+00  0.00000000000E+00  0.45593999997E+02  0.45594000000E+02  0.51100000000E-03 0.  1.
         11   -1    0    0    0    0 -0.00000000000E+00 -0.00000000000E+00 -0.45593999997E+02  0.45594000000E+02  0.51100000000E-03 0. -1.
    9900012    2    1    2    0    0  0.11385903270E+02 -0.10106268149E+02 -0.40642932400E+02  0.47787269554E+02  0.19999993203E+02 0.  0.
        -12    1    1    2    0    0 -0.11385903270E+02  0.10106268149E+02  0.40642932400E+02  0.43400730446E+02  0.00000000000E+00 0.  1.
         11    1    3    3    0    0  0.14796278713E+02 -0.74652641214E+01 -0.30011249239E+02  0.34283160784E+02  0.51100000000E-03 0. -1.
        -11    1    3    3    0    0  0.16824197554E+01  0.33572623038E+00 -0.51152646821E+00  0.17902256628E+01  0.51100000000E-03 0.  1.
         12    1    3    3    0    0 -0.50927951985E+01 -0.29767302582E+01 -0.10120156693E+02  0.11713883107E+02  0.00000000000E+00 0. -1.
</event>
<event>
 7    1  0.2497395E-009  0.4778728E+02  0.7816164E-02  0.1312668E+00
        -11   -1    0    0    0    0  0.00000000000E+00  0.00000000000E+00  0.45593999997E+02  0.45594000000E+02  0.51100000000E-03 0.  1.
         11   -1    0    0    0    0 -0.00000000000E+00 -0.00000000000E+00 -0.45593999997E+02  0.45594000000E+02  0.51100000000E-03 0. -1.
    9900012    2    1    2    0    0 -0.37696029720E+00 -0.34182897159E+02 -0.26739665866E+02  0.47787282404E+02  0.20000051791E+02 0.  0.
        -12    1    1    2    0    0  0.37696029720E+00  0.34182897159E+02  0.26739665866E+02  0.43400717596E+02  0.00000000000E+00 0.  1.
         11    1    3    3    0    0 -0.61004688934E+00 -0.18044279335E+02 -0.57074921980E+01  0.18935248648E+02  0.51100000000E-03 0. -1.
        -11    1    3    3    0    0  0.27641814825E+00  0.71053099805E+00 -0.66667239350E+01  0.67101765683E+01  0.51100000000E-03 0.  1.
         12    1    3    3    0    0 -0.43331556109E-01 -0.16849148822E+02 -0.14365449733E+02  0.22141857187E+02  0.00000000000E+00 0. -1.
</event>
<event>
 7    1  0.2497395E-009  0.4778727E+02  0.7816164E-02  0.1312668E+00
        -11   -1    0    0    0    0  0.00000000000E+00  0.00000000000E+00  0.45593999997E+02  0.45594000000E+02  0.51100000000E-03 0.  1.
         11   -1    0    0    0    0 -0.00000000000E+00 -0.00000000000E+00 -0.45593999997E+02  0.45594000000E+02  0.51100000000E-03 0. -1.
    9900012    2    1    2    0    0  0.14944229527E+02  0.33180119248E+02 -0.23651067935E+02  0.47787270467E+02  0.19999997369E+02 0.  0.
        -12    1    1    2    0    0 -0.14944229527E+02 -0.33180119248E+02  0.23651067935E+02  0.43400729533E+02  0.00000000000E+00 0.  1.
         11    1    3    3    0    0  0.50152743353E+01  0.26291291318E+02 -0.85950098785E+01  0.28111548710E+02  0.51100000000E-03 0. -1.
        -11    1    3    3    0    0  0.97271750231E+01  0.54700896424E+01 -0.12594257648E+02  0.16827214285E+02  0.51100000000E-03 0.  1.
         12    1    3    3    0    0  0.20178016839E+00  0.14187382882E+01 -0.24618004089E+01  0.28485074723E+01  0.00000000000E+00 0. -1.
</event>
<event>
 7    1  0.2497395E-009  0.4778727E+02  0.7816164E-02  0.1312668E+00
        -11   -1    0    0    0    0  0.00000000000E+00  0.00000000000E+00  0.45593999997E+02  0.45594000000E+02  0.51100000000E-03 0. -1.
         11   -1    0    0    0    0 -0.00000000000E+00 -0.00000000000E+00 -0.45593999997E+02  0.45594000000E+02  0.51100000000E-03 0.  1.
    9900012    2    1    2    0    0  0.34001169203E+02 -0.41946415675E+01  0.26644864656E+02  0.47787270311E+02  0.19999996655E+02 0.  0.
        -12    1    1    2    0    0 -0.34001169203E+02  0.41946415675E+01 -0.26644864656E+02  0.43400729689E+02  0.00000000000E+00 0.  1.
         11    1    3    3    0    0  0.10560850688E+02 -0.57994800492E+01  0.77505708457E+01  0.14326091051E+02  0.51100000000E-03 0. -1.
        -11    1    3    3    0    0  0.10259934521E+02  0.55270201599E+01  0.15327099293E+02  0.19254458736E+02  0.51100000000E-03 0.  1.
        -12    1    3    3    0    0  0.13180383993E+02 -0.39221816781E+01  0.35671945175E+01  0.14206720524E+02  0.00000000000E+00 0.  1.
</event>
<event>
 7    1  0.2497395E-009  0.4778727E+02  0.7816164E-02  0.1312668E+00
        -11   -1    0    0    0    0  0.00000000000E+00  0.00000000000E+00  0.45593999997E+02  0.45594000000E+02  0.51100000000E-03 0.  1.
         11   -1    0    0    0    0 -0.00000000000E+00 -0.00000000000E+00 -0.45593999997E+02  0.45594000000E+02  0.51100000000E-03 0. -1.
    9900012    2    1    2    0    0 -0.10850236712E+02  0.33572773879E+00 -0.42021219580E+02  0.47787271380E+02  0.20000001529E+02 0.  0.
        -12    1    1    2    0    0  0.10850236712E+02 -0.33572773879E+00  0.42021219580E+02  0.43400728620E+02  0.00000000000E+00 0.  1.
         11    1    3    3    0    0  0.32613450959E+01  0.28648276871E+01 -0.66493276277E+01  0.79408543415E+01  0.51100000000E-03 0. -1.
        -11    1    3    3    0    0 -0.12842270462E+02 -0.13479538114E+01 -0.16777362292E+02  0.21171225184E+02  0.51100000000E-03 0.  1.
        -12    1    3    3    0    0 -0.12693113463E+01 -0.11811461369E+01 -0.18594529660E+02  0.18675191854E+02  0.00000000000E+00 0.  1.
</event>
<event>
 7    1  0.2497395E-009  0.4778727E+02  0.7816164E-02  0.1312668E+00
        -11   -1    0    0    0    0  0.00000000000E+00  0.00000000000E+00  0.45593999997E+02  0.45594000000E+02  0.51100000000E-03 0. -1.
         11   -1    0    0    0    0 -0.00000000000E+00 -0.00000000000E+00 -0.45593999997E+02  0.45594000000E+02  0.51100000000E-03 0.  1.
    9900012    2    1    2    0    0  0.39176793965E+02  0.16328137273E+02  0.90660934860E+01  0.47787270705E+02  0.19999998453E+02 0.  0.
        -12    1    1    2    0    0 -0.39176793965E+02 -0.16328137273E+02 -0.90660934860E+01  0.43400729295E+02  0.00000000000E+00 0.  1.
         11    1    3    3    0    0  0.15064126596E+02  0.42849179490E+01  0.96773278316E+01  0.18410298915E+02  0.51100000000E-03 0. -1.
        -11    1    3    3    0    0  0.23759377170E+02  0.78222696481E+01 -0.14622514890E+01  0.25056617602E+02  0.51100000000E-03 0.  1.
        -12    1    3    3    0    0  0.35329019944E+00  0.42209496761E+01  0.85101714340E+00  0.43203541882E+01  0.00000000000E+00 0.  1.
</event>
<event>
 7    1  0.2497395E-009  0.4778727E+02  0.7816164E-02  0.1312668E+00
        -11   -1    0    0    0    0  0.00000000000E+00  0.00000000000E+00  0.45593999997E+02  0.45594000000E+02  0.51100000000E-03 0. -1.
         11   -1    0    0    0    0 -0.00000000000E+00 -0.00000000000E+00 -0.45593999997E+02  0.45594000000E+02  0.51100000000E-03 0.  1.
    9900012    2    1    2    0    0 -0.42384208352E+02 -0.37249159592E+01 -0.85631291649E+01  0.47787270771E+02  0.19999998752E+02 0.  0.
        -12    1    1    2    0    0  0.42384208352E+02  0.37249159592E+01  0.85631291649E+01  0.43400729229E+02  0.00000000000E+00 0.  1.
         11    1    3    3    0    0 -0.42653305949E+02 -0.12619497394E+01 -0.64432835362E+01  0.43155682459E+02  0.51100000000E-03 0. -1.
        -11    1    3    3    0    0 -0.39214342439E+00  0.22779435230E+00 -0.17837068346E+01  0.18404556678E+01  0.51100000000E-03 0.  1.
         12    1    3    3    0    0  0.66124102172E+00 -0.26907605721E+01 -0.33613879415E+00  0.27911326435E+01  0.00000000000E+00 0. -1.
</event>
<event>
 7    1  0.2497395E-009  0.4778727E+02  0.7816164E-02  0.1312668E+00
        -11   -1    0    0    0    0  0.00000000000E+00  0.00000000000E+00  0.45593999997E+02  0.45594000000E+02  0.51100000000E-03 0. -1.
         11   -1    0    0    0    0 -0.00000000000E+00 -0.00000000000E+00 -0.45593999997E+02  0.45594000000E+02  0.51100000000E-03 0.  1.
    9900012    2    1    2    0    0  0.12145226776E+02  0.22123017501E+02  0.35308482842E+02  0.47787269621E+02  0.19999993511E+02 0.  0.
        -12    1    1    2    0    0 -0.12145226776E+02 -0.22123017501E+02 -0.35308482842E+02  0.43400730379E+02  0.00000000000E+00 0.  1.
         11    1    3    3    0    0 -0.31986680208E+01  0.88271881498E+01  0.14725362403E+02  0.17463877745E+02  0.51100000000E-03 0. -1.
        -11    1    3    3    0    0  0.14931002560E+02  0.14356925034E+02  0.17780784271E+02  0.27298579147E+02  0.51100000000E-03 0.  1.
        -12    1    3    3    0    0  0.41289223720E+00 -0.10610956829E+01  0.28023361679E+01  0.30248127290E+01  0.00000000000E+00 0.  1.
</event>
<event>
 7    1  0.2497395E-009  0.4778727E+02  0.7816164E-02  0.1312668E+00
        -11   -1    0    0    0    0  0.00000000000E+00  0.00000000000E+00  0.45593999997E+02  0.45594000000E+02  0.51100000000E-03 0.  1.
         11   -1    0    0    0    0 -0.00000000000E+00 -0.00000000000E+00 -0.45593999997E+02  0.45594000000E+02  0.51100000000E-03 0. -1.
    9900012    2    1    2    0    0  0.37338022468E+02 -0.19330049576E+02 -0.10763109304E+02  0.47787271200E+02  0.20000000711E+02 0.  0.
        -12    1    1    2    0    0 -0.37338022468E+02  0.19330049576E+02  0.10763109304E+02  0.43400728800E+02  0.00000000000E+00 0.  1.
         11    1    3    3    0    0  0.11836483975E+02 -0.18552860878E+01 -0.11307815968E+02  0.16474560437E+02  0.51100000000E-03 0. -1.
        -11    1    3    3    0    0  0.21401693298E+02 -0.13542553205E+02  0.21270435306E+01  0.25415694713E+02  0.51100000000E-03 0.  1.
         12    1    3    3    0    0  0.40998451953E+01 -0.39322102826E+01 -0.15823368668E+01  0.58970160499E+01  0.00000000000E+00 0. -1.
</event>
<event>
 7    1  0.2497395E-009  0.4778727E+02  0.7816164E-02  0.1312668E+00
        -11   -1    0    0    0    0  0.00000000000E+00  0.00000000000E+00  0.45593999997E+02  0.45594000000E+02  0.51100000000E-03 0.  1.
         11   -1    0    0    0    0 -0.00000000000E+00 -0.00000000000E+00 -0.45593999997E+02  0.45594000000E+02  0.51100000000E-03 0. -1.
    9900012    2    1    2    0    0  0.22929742962E+02 -0.36686362929E+02  0.34584994887E+01  0.47787267794E+02  0.19999985180E+02 0.  0.
        -12    1    1    2    0    0 -0.22929742962E+02  0.36686362929E+02 -0.34584994887E+01  0.43400732206E+02  0.00000000000E+00 0.  1.
         11    1    3    3    0    0  0.18772741803E+02 -0.17433912720E+02 -0.14270130310E+01  0.25659179917E+02  0.51100000000E-03 0. -1.
        -11    1    3    3    0    0 -0.21395733821E+01 -0.74978558396E+01  0.40015138361E+01  0.87640019221E+01  0.51100000000E-03 0.  1.
         12    1    3    3    0    0  0.62965745412E+01 -0.11754594370E+02  0.88399868367E+00  0.13364085955E+02  0.00000000000E+00 0. -1.
</event>
<event>
 7    1  0.2497395E-009  0.4778728E+02  0.7816164E-02  0.1312668E+00
        -11   -1    0    0    0    0  0.00000000000E+00  0.00000000000E+00  0.45593999997E+02  0.45594000000E+02  0.51100000000E-03 0. -1.
         11   -1    0    0    0    0 -0.00000000000E+00 -0.00000000000E+00 -0.45593999997E+02  0.45594000000E+02  0.51100000000E-03 0.  1.
    9900012    2    1    2    0    0 -0.37582488124E+02  0.10001508886E+02 -0.19265228738E+02  0.47787278440E+02  0.20000033719E+02 0.  0.
        -12    1    1    2    0    0  0.37582488124E+02 -0.10001508886E+02  0.19265228738E+02  0.43400721560E+02  0.00000000000E+00 0.  1.
         11    1    3    3    0    0 -0.31476804512E+02  0.98837580178E+01 -0.18796149994E+02  0.37970688033E+02  0.51100000000E-03 0. -1.
        -11    1    3    3    0    0 -0.62512922354E+01 -0.87935446146E+00  0.24169482446E+01  0.67597010259E+01  0.51100000000E-03 0.  1.
        -12    1    3    3    0    0  0.14560862315E+00  0.99710532958E+00 -0.28860269882E+01  0.30568893807E+01  0.00000000000E+00 0.  1.
</event>
<event>
 7    1  0.2497395E-009  0.4778727E+02  0.7816164E-02  0.1312668E+00
        -11   -1    0    0    0    0  0.00000000000E+00  0.00000000000E+00  0.45593999997E+02  0.45594000000E+02  0.51100000000E-03 0. -1.
         11   -1    0    0    0    0 -0.00000000000E+00 -0.00000000000E+00 -0.45593999997E+02  0.45594000000E+02  0.51100000000E-03 0.  1.
    9900012    2    1    2    0    0 -0.95340284479E+01 -0.81239038716E+01  0.41553913212E+02  0.47787271714E+02  0.20000003051E+02 0.  0.
        -12    1    1    2    0    0  0.95340284479E+01  0.81239038716E+01 -0.41553913212E+02  0.43400728286E+02  0.00000000000E+00 0.  1.
         11    1    3    3    0    0 -0.10767861110E+02 -0.39942164543E+01  0.39251043253E+02  0.40896760198E+02  0.51100000000E-03 0. -1.
        -11    1    3    3    0    0  0.47301890858E+00  0.33128909186E+00  0.22935251242E+01  0.23651124935E+01  0.51100000000E-03 0.  1.
         12    1    3    3    0    0  0.76081375302E+00 -0.44609765092E+01  0.93448344285E-02  0.45253990220E+01  0.00000000000E+00 0. -1.
</event>
<event>
 7    1  0.2497395E-009  0.4778725E+02  0.7816164E-02  0.1312668E+00
        -11   -1    0    0    0    0  0.00000000000E+00  0.00000000000E+00  0.45593999997E+02  0.45594000000E+02  0.51100000000E-03 0.  1.
         11   -1    0    0    0    0 -0.00000000000E+00 -0.00000000000E+00 -0.45593999997E+02  0.45594000000E+02  0.51100000000E-03 0. -1.
    9900012    2    1    2    0    0 -0.11263035180E+02  0.28520677115E+02 -0.30713840708E+02  0.47787251210E+02  0.19999909564E+02 0.  0.
        -12    1    1    2    0    0  0.11263035180E+02 -0.28520677115E+02  0.30713840708E+02  0.43400748790E+02  0.00000000000E+00 0.  1.
         11    1    3    3    0    0 -0.74769616353E+01  0.67134079342E+01 -0.12442710927E+02  0.15993619254E+02  0.51100000000E-03 0. -1.
        -11    1    3    3    0    0 -0.35443194374E+01  0.74621458224E+01  0.37145932966E+00  0.82694499723E+01  0.51100000000E-03 0.  1.
        -12    1    3    3    0    0 -0.24175410694E+00  0.14345123359E+02 -0.18642589111E+02  0.23524181983E+02  0.00000000000E+00 0.  1.
</event>
<event>
 7    1  0.2497395E-009  0.4778727E+02  0.7816164E-02  0.1312668E+00
        -11   -1    0    0    0    0  0.00000000000E+00  0.00000000000E+00  0.45593999997E+02  0.45594000000E+02  0.51100000000E-03 0.  1.
         11   -1    0    0    0    0 -0.00000000000E+00 -0.00000000000E+00 -0.45593999997E+02  0.45594000000E+02  0.51100000000E-03 0. -1.
    9900012    2    1    2    0    0 -0.89494878968E+01  0.15242758047E+02 -0.39638219372E+02  0.47787269114E+02  0.19999991198E+02 0.  0.
        -12    1    1    2    0    0  0.89494878968E+01 -0.15242758047E+02  0.39638219372E+02  0.43400730886E+02  0.00000000000E+00 0.  1.
         11    1    3    3    0    0  0.12056687244E+01  0.12282735033E+02 -0.17842896410E+02  0.21695349029E+02  0.51100000000E-03 0. -1.
        -11    1    3    3    0    0 -0.53565958732E+01  0.17251815292E+01 -0.24775036576E+01  0.61487718524E+01  0.51100000000E-03 0.  1.
         12    1    3    3    0    0 -0.47985607479E+01  0.12348414850E+01 -0.19317819304E+02  0.19943148232E+02  0.00000000000E+00 0. -1.
</event>
<event>
 7    1  0.2497395E-009  0.4778727E+02  0.7816164E-02  0.1312668E+00
        -11   -1    0    0    0    0  0.00000000000E+00  0.00000000000E+00  0.45593999997E+02  0.45594000000E+02  0.51100000000E-03 0.  1.
         11   -1    0    0    0    0 -0.00000000000E+00 -0.00000000000E+00 -0.45593999997E+02  0.45594000000E+02  0.51100000000E-03 0. -1.
    9900012    2    1    2    0    0  0.21629109868E+02  0.17794053010E+02 -0.33153830805E+02  0.47787271742E+02  0.20000003182E+02 0.  0.
        -12    1    1    2    0    0 -0.21629109868E+02 -0.17794053010E+02  0.33153830805E+02  0.43400728258E+02  0.00000000000E+00 0.  1.
         11    1    3    3    0    0  0.45401923645E+01  0.20724915555E+01 -0.47326960412E+01  0.68780069812E+01  0.51100000000E-03 0.  1.
        -11    1    3    3    0    0  0.15004892699E+02  0.39405724022E+01 -0.85480165246E+01  0.17712806173E+02  0.51100000000E-03 0. -1.
        -12    1    3    3    0    0  0.20840248048E+01  0.11780989052E+02 -0.19873118240E+02  0.23196458588E+02  0.00000000000E+00 0.  1.
</event>
<event>
 7    1  0.2497395E-009  0.4778727E+02  0.7816164E-02  0.1312668E+00
        -11   -1    0    0    0    0  0.00000000000E+00  0.00000000000E+00  0.45593999997E+02  0.45594000000E+02  0.51100000000E-03 0.  1.
         11   -1    0    0    0    0 -0.00000000000E+00 -0.00000000000E+00 -0.45593999997E+02  0.45594000000E+02  0.51100000000E-03 0. -1.
    9900012    2    1    2    0    0  0.24145554718E+02  0.12403016195E+02 -0.33864149454E+02  0.47787271416E+02  0.20000001695E+02 0.  0.
        -12    1    1    2    0    0 -0.24145554718E+02 -0.12403016195E+02  0.33864149454E+02  0.43400728584E+02  0.00000000000E+00 0.  1.
         11    1    3    3    0    0  0.11962119489E+02  0.11229297743E+02 -0.24840868595E+02  0.29770088735E+02  0.51100000000E-03 0. -1.
        -11    1    3    3    0    0  0.54905458346E+01 -0.20234656368E+01  0.58306665868E+00  0.58805164513E+01  0.51100000000E-03 0.  1.
         12    1    3    3    0    0  0.66928893950E+01  0.31971840881E+01 -0.96063475179E+01  0.12136666230E+02  0.00000000000E+00 0. -1.
</event>
<event>
 7    1  0.2497395E-009  0.4778727E+02  0.7816164E-02  0.1312668E+00
        -11   -1    0    0    0    0  0.00000000000E+00  0.00000000000E+00  0.45593999997E+02  0.45594000000E+02  0.51100000000E-03 0.  1.
         11   -1    0    0    0    0 -0.00000000000E+00 -0.00000000000E+00 -0.45593999997E+02  0.45594000000E+02  0.51100000000E-03 0. -1.
    9900012    2    1    2    0    0 -0.13245312522E+02  0.16521534481E+01 -0.41297160183E+02  0.47787270122E+02  0.19999995792E+02 0.  0.
        -12    1    1    2    0    0  0.13245312522E+02 -0.16521534481E+01  0.41297160183E+02  0.43400729878E+02  0.00000000000E+00 0.  1.
         11    1    3    3    0    0 -0.11458128612E+02  0.41408083621E+01 -0.30089549763E+02  0.32462532409E+02  0.51100000000E-03 0. -1.
        -11    1    3    3    0    0  0.41601326830E+00  0.32990132979E+01 -0.72477585870E+01  0.79741181691E+01  0.51100000000E-03 0.  1.
         12    1    3    3    0    0 -0.22031971785E+01 -0.57876682119E+01 -0.39598518325E+01  0.73506195435E+01  0.00000000000E+00 0. -1.
</event>
<event>
 7    1  0.2497395E-009  0.4778727E+02  0.7816164E-02  0.1312668E+00
        -11   -1    0    0    0    0  0.00000000000E+00  0.00000000000E+00  0.45593999997E+02  0.45594000000E+02  0.51100000000E-03 0.  1.
         11   -1    0    0    0    0 -0.00000000000E+00 -0.00000000000E+00 -0.45593999997E+02  0.45594000000E+02  0.51100000000E-03 0. -1.
    9900012    2    1    2    0    0 -0.31049642641E+02 -0.20980263120E+02 -0.21894558870E+02  0.47787268937E+02  0.19999990390E+02 0.  0.
        -12    1    1    2    0    0  0.31049642641E+02  0.20980263120E+02  0.21894558870E+02  0.43400731063E+02  0.00000000000E+00 0.  1.
         11    1    3    3    0    0 -0.96680681745E+01 -0.27307468001E+01 -0.14473055810E+02  0.17618111847E+02  0.51100000000E-03 0. -1.
        -11    1    3    3    0    0 -0.18730043485E+02 -0.15731412521E+02 -0.91616876293E+01  0.26119502088E+02  0.51100000000E-03 0.  1.
        -12    1    3    3    0    0 -0.26515309817E+01 -0.25181037996E+01  0.17401845700E+01  0.40496550014E+01  0.00000000000E+00 0.  1.
</event>
<event>
 7    1  0.2497395E-009  0.4778731E+02  0.7816164E-02  0.1312668E+00
        -11   -1    0    0    0    0  0.00000000000E+00  0.00000000000E+00  0.45593999997E+02  0.45594000000E+02  0.51100000000E-03 0.  1.
         11   -1    0    0    0    0 -0.00000000000E+00 -0.00000000000E+00 -0.45593999997E+02  0.45594000000E+02  0.51100000000E-03 0. -1.
    9900012    2    1    2    0    0  0.17237165498E+02 -0.23543051644E+02 -0.32128253375E+02  0.47787310834E+02  0.20000181416E+02 0.  0.
        -12    1    1    2    0    0 -0.17237165498E+02  0.23543051644E+02  0.32128253375E+02  0.43400689166E+02  0.00000000000E+00 0.  1.
         11    1    3    3    0    0  0.65308647751E+00 -0.87347589841E+01 -0.83229600048E+01  0.12082805964E+02  0.51100000000E-03 0. -1.
        -11    1    3    3    0    0  0.12889419208E+02 -0.11292384177E+02 -0.76557348735E+01  0.18768733165E+02  0.51100000000E-03 0.  1.
        -12    1    3    3    0    0  0.36946598122E+01 -0.35159084834E+01 -0.16149558497E+02  0.16935771705E+02  0.00000000000E+00 0.  1.
</event>
<event>
 7    1  0.2497395E-009  0.4778727E+02  0.7816164E-02  0.1312668E+00
        -11   -1    0    0    0    0  0.00000000000E+00  0.00000000000E+00  0.45593999997E+02  0.45594000000E+02  0.51100000000E-03 0. -1.
         11   -1    0    0    0    0 -0.00000000000E+00 -0.00000000000E+00 -0.45593999997E+02  0.45594000000E+02  0.51100000000E-03 0.  1.
    9900012    2    1    2    0    0  0.34779278656E+02 -0.25843702353E+02  0.24754847002E+01  0.47787271900E+02  0.20000003900E+02 0.  0.
        -12    1    1    2    0    0 -0.34779278656E+02  0.25843702353E+02 -0.24754847002E+01  0.43400728100E+02  0.00000000000E+00 0.  1.
         11    1    3    3    0    0  0.17094222413E+02 -0.17155299861E+02  0.38000473340E+01  0.24514426635E+02  0.51100000000E-03 0. -1.
        -11    1    3    3    0    0 -0.16076935636E+01  0.41944204558E+00 -0.99318079693E+00  0.19357217208E+01  0.51100000000E-03 0.  1.
        -12    1    3    3    0    0  0.19292749807E+02 -0.91078445369E+01 -0.33138183693E+00  0.21337123544E+02  0.00000000000E+00 0.  1.
</event>
<event>
 7    1  0.2497395E-009  0.4778727E+02  0.7816164E-02  0.1312668E+00
        -11   -1    0    0    0    0  0.00000000000E+00  0.00000000000E+00  0.45593999997E+02  0.45594000000E+02  0.51100000000E-03 0. -1.
         11   -1    0    0    0    0 -0.00000000000E+00 -0.00000000000E+00 -0.45593999997E+02  0.45594000000E+02  0.51100000000E-03 0.  1.
    9900012    2    1    2    0    0  0.11611474902E+02  0.41797120780E+02  0.13408435530E+01  0.47787268251E+02  0.19999987263E+02 0.  0.
        -12    1    1    2    0    0 -0.11611474902E+02 -0.41797120780E+02 -0.13408435530E+01  0.43400731749E+02  0.00000000000E+00 0.  1.
         11    1    3    3    0    0 -0.47133095084E+00  0.28373353964E+02 -0.20836836891E+01  0.28453665950E+02  0.51100000000E-03 0. -1.
        -11    1    3    3    0    0  0.32888188447E+01  0.40215383539E+00  0.69269853602E+00  0.33849503133E+01  0.51100000000E-03 0.  1.
         12    1    3    3    0    0  0.87939870084E+01  0.13021612981E+02  0.27318287062E+01  0.15948651987E+02  0.00000000000E+00 0. -1.
</event>
<event>
 7    1  0.2497395E-009  0.4778727E+02  0.7816164E-02  0.1312668E+00
        -11   -1    0    0    0    0  0.00000000000E+00  0.00000000000E+00  0.45593999997E+02  0.45594000000E+02  0.51100000000E-03 0.  1.
         11   -1    0    0    0    0 -0.00000000000E+00 -0.00000000000E+00 -0.45593999997E+02  0.45594000000E+02  0.51100000000E-03 0. -1.
    9900012    2    1    2    0    0 -0.29254584397E+02 -0.31664657421E+02  0.50141841833E+01  0.47787270964E+02  0.19999999634E+02 0.  0.
        -12    1    1    2    0    0  0.29254584397E+02  0.31664657421E+02 -0.50141841833E+01  0.43400729036E+02  0.00000000000E+00 0.  1.
         11    1    3    3    0    0 -0.18591959004E+01 -0.15922870541E+00 -0.11145157132E+01  0.21735014867E+01  0.51100000000E-03 0. -1.
        -11    1    3    3    0    0 -0.19650054511E+02 -0.12923292283E+02  0.91900755833E+01  0.25250616135E+02  0.51100000000E-03 0.  1.
        -12    1    3    3    0    0 -0.77453339855E+01 -0.18582136433E+02 -0.30613756868E+01  0.20363153342E+02  0.00000000000E+00 0.  1.
</event>
<event>
 7    1  0.2497395E-009  0.4778728E+02  0.7816164E-02  0.1312668E+00
        -11   -1    0    0    0    0  0.00000000000E+00  0.00000000000E+00  0.45593999997E+02  0.45594000000E+02  0.51100000000E-03 0.  1.
         11   -1    0    0    0    0 -0.00000000000E+00 -0.00000000000E+00 -0.45593999997E+02  0.45594000000E+02  0.51100000000E-03 0. -1.
    9900012    2    1    2    0    0  0.92824763287E+01  0.23982542287E+02 -0.34961353093E+02  0.47787275220E+02  0.20000019038E+02 0.  0.
        -12    1    1    2    0    0 -0.92824763287E+01 -0.23982542287E+02  0.34961353093E+02  0.43400724780E+02  0.00000000000E+00 0.  1.
         11    1    3    3    0    0  0.59953056038E+01  0.13222687401E+02 -0.28833052723E+02  0.32282008627E+02  0.51100000000E-03 0. -1.
        -11    1    3    3    0    0 -0.25718778890E+01  0.65108793282E+01 -0.28118908081E+01  0.75440596287E+01  0.51100000000E-03 0.  1.
         12    1    3    3    0    0  0.58590486140E+01  0.42489755576E+01 -0.33164095620E+01  0.79612069646E+01  0.00000000000E+00 0. -1.
</event>
<event>
 7    1  0.2497395E-009  0.4778727E+02  0.7816164E-02  0.1312668E+00
        -11   -1    0    0    0    0  0.00000000000E+00  0.00000000000E+00  0.45593999997E+02  0.45594000000E+02  0.51100000000E-03 0. -1.
         11   -1    0    0    0    0 -0.00000000000E+00 -0.00000000000E+00 -0.45593999997E+02  0.45594000000E+02  0.51100000000E-03 0.  1.
    9900012    2    1    2    0    0  0.14856229642E+02 -0.38128638355E+02 -0.14461071289E+02  0.47787271840E+02  0.20000003629E+02 0.  0.
        -12    1    1    2    0    0 -0.14856229642E+02  0.38128638355E+02  0.14461071289E+02  0.43400728160E+02  0.00000000000E+00 0.  1.
         11    1    3    3    0    0  0.18134132844E+01  0.86609629020E+00  0.15979058898E+01  0.25674684064E+01  0.51100000000E-03 0. -1.
        -11    1    3    3    0    0  0.12155681201E+02 -0.21142776012E+02 -0.97563357992E+01  0.26267159181E+02  0.51100000000E-03 0.  1.
         12    1    3    3    0    0  0.88713515638E+00 -0.17851958633E+02 -0.63026413798E+01  0.18952644253E+02  0.00000000000E+00 0. -1.
</event>
<event>
 7    1  0.2497395E-009  0.4778725E+02  0.7816164E-02  0.1312668E+00
        -11   -1    0    0    0    0  0.00000000000E+00  0.00000000000E+00  0.45593999997E+02  0.45594000000E+02  0.51100000000E-03 0.  1.
         11   -1    0    0    0    0 -0.00000000000E+00 -0.00000000000E+00 -0.45593999997E+02  0.45594000000E+02  0.51100000000E-03 0. -1.
    9900012    2    1    2    0    0 -0.24100606487E+01  0.27615113920E+02 -0.33394938592E+02  0.47787253086E+02  0.19999918118E+02 0.  0.
        -12    1    1    2    0    0  0.24100606487E+01 -0.27615113920E+02  0.33394938592E+02  0.43400746914E+02  0.00000000000E+00 0.  1.
         11    1    3    3    0    0  0.28745193530E+01  0.19243623923E+02 -0.20192403849E+02  0.28041274876E+02  0.51100000000E-03 0. -1.
        -11    1    3    3    0    0 -0.44817603803E+01 -0.14610614258E+01 -0.32030819344E+01  0.56991763209E+01  0.51100000000E-03 0.  1.
        -12    1    3    3    0    0 -0.80281962133E+00  0.98325514230E+01 -0.99994528091E+01  0.14046801889E+02  0.00000000000E+00 0.  1.
</event>
<event>
 7    1  0.2497395E-009  0.4778727E+02  0.7816164E-02  0.1312668E+00
        -11   -1    0    0    0    0  0.00000000000E+00  0.00000000000E+00  0.45593999997E+02  0.45594000000E+02  0.51100000000E-03 0. -1.
         11   -1    0    0    0    0 -0.00000000000E+00 -0.00000000000E+00 -0.45593999997E+02  0.45594000000E+02  0.51100000000E-03 0.  1.
    9900012    2    1    2    0    0  0.55513951007E+01  0.52446909351E+01  0.42723516006E+02  0.47787267397E+02  0.19999983369E+02 0.  0.
        -12    1    1    2    0    0 -0.55513951007E+01 -0.52446909351E+01 -0.42723516006E+02  0.43400732603E+02  0.00000000000E+00 0.  1.
         11    1    3    3    0    0  0.39215838767E+01  0.11934932864E+02  0.29945004773E+02  0.32473446902E+02  0.51100000000E-03 0. -1.
        -11    1    3    3    0    0  0.22198891199E+00 -0.26172366956E+01  0.10678515520E+01  0.28354037096E+01  0.51100000000E-03 0.  1.
         12    1    3    3    0    0  0.14078223120E+01 -0.40730052337E+01  0.11710659681E+02  0.12478416785E+02  0.00000000000E+00 0. -1.
</event>
<event>
 7    1  0.2497395E-009  0.4778727E+02  0.7816164E-02  0.1312668E+00
        -11   -1    0    0    0    0  0.00000000000E+00  0.00000000000E+00  0.45593999997E+02  0.45594000000E+02  0.51100000000E-03 0. -1.
         11   -1    0    0    0    0 -0.00000000000E+00 -0.00000000000E+00 -0.45593999997E+02  0.45594000000E+02  0.51100000000E-03 0.  1.
    9900012    2    1    2    0    0 -0.24292260881E+02 -0.13315296567E+02  0.33409762536E+02  0.47787270812E+02  0.19999998938E+02 0.  0.
        -12    1    1    2    0    0  0.24292260881E+02  0.13315296567E+02 -0.33409762536E+02  0.43400729188E+02  0.00000000000E+00 0.  1.
         11    1    3    3    0    0 -0.23020353684E+02 -0.11943324921E+02  0.19954293682E+02  0.32722370490E+02  0.51100000000E-03 0. -1.
        -11    1    3    3    0    0 -0.13468159685E+01  0.18335750848E+01  0.10364385151E+02  0.10611144644E+02  0.51100000000E-03 0.  1.
         12    1    3    3    0    0  0.74908771901E-01 -0.32055467312E+01  0.30910837039E+01  0.44537556775E+01  0.00000000000E+00 0. -1.
</event>
<event>
 7    1  0.2497395E-009  0.4778727E+02  0.7816164E-02  0.1312668E+00
        -11   -1    0    0    0    0  0.00000000000E+00  0.00000000000E+00  0.45593999997E+02  0.45594000000E+02  0.51100000000E-03 0.  1.
         11   -1    0    0    0    0 -0.00000000000E+00 -0.00000000000E+00 -0.45593999997E+02  0.45594000000E+02  0.51100000000E-03 0. -1.
    9900012    2    1    2    0    0 -0.38022839548E+02 -0.18123054724E+02  0.10461449808E+02  0.47787269915E+02  0.19999994849E+02 0.  0.
        -12    1    1    2    0    0  0.38022839548E+02  0.18123054724E+02 -0.10461449808E+02  0.43400730085E+02  0.00000000000E+00 0.  1.
         11    1    3    3    0    0 -0.11974118311E+02 -0.15345850004E+02  0.40108215971E+01  0.19873633583E+02  0.51100000000E-03 0. -1.
        -11    1    3    3    0    0 -0.26651275283E+01 -0.26663874942E+01  0.10672539296E+01  0.39181064588E+01  0.51100000000E-03 0.  1.
         12    1    3    3    0    0 -0.23383593709E+02 -0.11081722582E+00  0.53833742809E+01  0.23995529872E+02  0.00000000000E+00 0. -1.
</event>
<event>
 7    1  0.2497395E-009  0.4778728E+02  0.7816164E-02  0.1312668E+00
        -11   -1    0    0    0    0  0.00000000000E+00  0.00000000000E+00  0.45593999997E+02  0.45594000000E+02  0.51100000000E-03 0.  1.
         11   -1    0    0    0    0 -0.00000000000E+00 -0.00000000000E+00 -0.45593999997E+02  0.45594000000E+02  0.51100000000E-03 0. -1.
    9900012    2    1    2    0    0  0.15270512133E+02  0.40501635281E+02 -0.31704280151E+01  0.47787278634E+02  0.20000034605E+02 0.  0.
        -12    1    1    2    0    0 -0.15270512133E+02 -0.40501635281E+02  0.31704280151E+01  0.43400721366E+02  0.00000000000E+00 0.  1.
         11    1    3    3    0    0  0.72091062283E+01  0.12307490165E+02  0.21864008911E+00  0.14265108851E+02  0.51100000000E-03 0. -1.
        -11    1    3    3    0    0 -0.11908887988E+01  0.22337604286E+02 -0.29532334091E+01  0.22563429907E+02  0.51100000000E-03 0.  1.
        -12    1    3    3    0    0  0.92522947040E+01  0.58565408305E+01 -0.43583469510E+00  0.10958739876E+02  0.00000000000E+00 0.  1.
</event>
<event>
 7    1  0.2497395E-009  0.4778727E+02  0.7816164E-02  0.1312668E+00
        -11   -1    0    0    0    0  0.00000000000E+00  0.00000000000E+00  0.45593999997E+02  0.45594000000E+02  0.51100000000E-03 0. -1.
         11   -1    0    0    0    0 -0.00000000000E+00 -0.00000000000E+00 -0.45593999997E+02  0.45594000000E+02  0.51100000000E-03 0.  1.
    9900012    2    1    2    0    0 -0.25420153300E+02  0.15959320610E+02  0.31348670933E+02  0.47787271004E+02  0.19999999817E+02 0.  0.
        -12    1    1    2    0    0  0.25420153300E+02 -0.15959320610E+02 -0.31348670933E+02  0.43400728996E+02  0.00000000000E+00 0.  1.
         11    1    3    3    0    0 -0.10914102212E+02 -0.15226713558E+01  0.34583417019E+01  0.11549730851E+02  0.51100000000E-03 0. -1.
        -11    1    3    3    0    0 -0.12031063870E+02  0.11627783965E+02  0.19136186049E+02  0.25419391703E+02  0.51100000000E-03 0.  1.
        -12    1    3    3    0    0 -0.24749872178E+01  0.58542080009E+01  0.87541431815E+01  0.10818148450E+02  0.00000000000E+00 0.  1.
</event>
<event>
 7    1  0.2497395E-009  0.4778727E+02  0.7816164E-02  0.1312668E+00
        -11   -1    0    0    0    0  0.00000000000E+00  0.00000000000E+00  0.45593999997E+02  0.45594000000E+02  0.51100000000E-03 0. -1.
         11   -1    0    0    0    0 -0.00000000000E+00 -0.00000000000E+00 -0.45593999997E+02  0.45594000000E+02  0.51100000000E-03 0.  1.
    9900012    2    1    2    0    0  0.76702534841E+01  0.17358674149E+02  0.39031611302E+02  0.47787273767E+02  0.20000012414E+02 0.  0.
        -12    1    1    2    0    0 -0.76702534841E+01 -0.17358674149E+02 -0.39031611302E+02  0.43400726233E+02  0.00000000000E+00 0.  1.
         11    1    3    3    0    0  0.56518183280E+01 -0.22991336688E+01  0.12539184148E+02  0.13944898902E+02  0.51100000000E-03 0. -1.
        -11    1    3    3    0    0  0.40875563185E+01  0.17534293717E+02  0.23754843622E+02  0.29806914778E+02  0.51100000000E-03 0.  1.
        -12    1    3    3    0    0 -0.20691211623E+01  0.21235141012E+01  0.27375835323E+01  0.40354600876E+01  0.00000000000E+00 0.  1.
</event>
<event>
 7    1  0.2497395E-009  0.4778727E+02  0.7816164E-02  0.1312668E+00
        -11   -1    0    0    0    0  0.00000000000E+00  0.00000000000E+00  0.45593999997E+02  0.45594000000E+02  0.51100000000E-03 0. -1.
         11   -1    0    0    0    0 -0.00000000000E+00 -0.00000000000E+00 -0.45593999997E+02  0.45594000000E+02  0.51100000000E-03 0.  1.
    9900012    2    1    2    0    0 -0.24801558070E+02  0.17043885218E+02  0.31273180853E+02  0.47787272510E+02  0.20000006683E+02 0.  0.
        -12    1    1    2    0    0  0.24801558070E+02 -0.17043885218E+02 -0.31273180853E+02  0.43400727490E+02  0.00000000000E+00 0.  1.
         11    1    3    3    0    0  0.88810192205E+00 -0.91595269142E+00  0.21167168190E+01  0.24714741977E+01  0.51100000000E-03 0.  1.
        -11    1    3    3    0    0 -0.22291025842E+02  0.17115428983E+02  0.30582581124E+02  0.41534588126E+02  0.51100000000E-03 0. -1.
        -12    1    3    3    0    0 -0.33986341500E+01  0.84440892583E+00 -0.14261170899E+01  0.37812101865E+01  0.00000000000E+00 0.  1.
</event>
<event>
 7    1  0.2497395E-009  0.4778727E+02  0.7816164E-02  0.1312668E+00
        -11   -1    0    0    0    0  0.00000000000E+00  0.00000000000E+00  0.45593999997E+02  0.45594000000E+02  0.51100000000E-03 0. -1.
         11   -1    0    0    0    0 -0.00000000000E+00 -0.00000000000E+00 -0.45593999997E+02  0.45594000000E+02  0.51100000000E-03 0.  1.
    9900012    2    1    2    0    0  0.35980374191E+02  0.22272736324E+02  0.96416344617E+01  0.47787271603E+02  0.20000002546E+02 0.  0.
        -12    1    1    2    0    0 -0.35980374191E+02 -0.22272736324E+02 -0.96416344617E+01  0.43400728397E+02  0.00000000000E+00 0.  1.
         11    1    3    3    0    0  0.12902025749E+02 -0.34117507823E+00  0.13221600713E+01  0.12974080946E+02  0.51100000000E-03 0. -1.
        -11    1    3    3    0    0  0.17917732920E+00  0.45442930349E+01  0.28365360758E+00  0.45566614239E+01  0.51100000000E-03 0.  1.
         12    1    3    3    0    0  0.22899171113E+02  0.18069618367E+02  0.80358207828E+01  0.30256529233E+02  0.00000000000E+00 0. -1.
</event>
<event>
 7    1  0.2497395E-009  0.4778727E+02  0.7816164E-02  0.1312668E+00
        -11   -1    0    0    0    0  0.00000000000E+00  0.00000000000E+00  0.45593999997E+02  0.45594000000E+02  0.51100000000E-03 0.  1.
         11   -1    0    0    0    0 -0.00000000000E+00 -0.00000000000E+00 -0.45593999997E+02  0.45594000000E+02  0.51100000000E-03 0. -1.
    9900012    2    1    2    0    0 -0.27998670931E+01 -0.24604569438E+02 -0.35642660024E+02  0.47787270668E+02  0.19999998282E+02 0.  0.
        -12    1    1    2    0    0  0.27998670931E+01  0.24604569438E+02  0.35642660024E+02  0.43400729332E+02  0.00000000000E+00 0.  1.
         11    1    3    3    0    0 -0.24786906966E+01 -0.13190602329E+02 -0.30135909242E+02  0.32989527482E+02  0.51100000000E-03 0. -1.
        -11    1    3    3    0    0 -0.39281692527E+01 -0.59076293190E+01 -0.21768917018E+01  0.74208797047E+01  0.51100000000E-03 0.  1.
         12    1    3    3    0    0  0.36069928562E+01 -0.55063377900E+01 -0.33298590807E+01  0.73768634812E+01  0.00000000000E+00 0. -1.
</event>
<event>
 7    1  0.2497395E-009  0.4778730E+02  0.7816164E-02  0.1312668E+00
        -11   -1    0    0    0    0  0.00000000000E+00  0.00000000000E+00  0.45593999997E+02  0.45594000000E+02  0.51100000000E-03 0.  1.
         11   -1    0    0    0    0 -0.00000000000E+00 -0.00000000000E+00 -0.45593999997E+02  0.45594000000E+02  0.51100000000E-03 0. -1.
    9900012    2    1    2    0    0 -0.16846345148E+02 -0.35324228049E+02 -0.18762193622E+02  0.47787304826E+02  0.20000154021E+02 0.  0.
        -12    1    1    2    0    0  0.16846345148E+02  0.35324228049E+02  0.18762193622E+02  0.43400695174E+02  0.00000000000E+00 0.  1.
         11    1    3    3    0    0 -0.64032715928E+00 -0.15061784146E+02 -0.20175033851E+01  0.15209788976E+02  0.51100000000E-03 0. -1.
        -11    1    3    3    0    0 -0.11764823454E+02 -0.15993085910E+02 -0.17377009398E+02  0.26384660765E+02  0.51100000000E-03 0.  1.
        -12    1    3    3    0    0 -0.44411945345E+01 -0.42693579938E+01  0.63231916116E+00  0.61928550842E+01  0.00000000000E+00 0.  1.
</event>
<event>
 7    1  0.2497395E-009  0.4778727E+02  0.7816164E-02  0.1312668E+00
        -11   -1    0    0    0    0  0.00000000000E+00  0.00000000000E+00  0.45593999997E+02  0.45594000000E+02  0.51100000000E-03 0.  1.
         11   -1    0    0    0    0 -0.00000000000E+00 -0.00000000000E+00 -0.45593999997E+02  0.45594000000E+02  0.51100000000E-03 0. -1.
    9900012    2    1    2    0    0  0.13849328513E+02  0.37015739660E+02 -0.17934727650E+02  0.47787270297E+02  0.19999996594E+02 0.  0.
        -12    1    1    2    0    0 -0.13849328513E+02 -0.37015739660E+02  0.17934727650E+02  0.43400729703E+02  0.00000000000E+00 0.  1.
         11    1    3    3    0    0  0.10583566523E+02  0.30182741627E+02 -0.61038134982E+01  0.32561730789E+02  0.51100000000E-03 0. -1.
        -11    1    3    3    0    0 -0.13009224737E+01  0.20568794765E+01 -0.57562350320E+01  0.62495915441E+01  0.51100000000E-03 0.  1.
         12    1    3    3    0    0  0.45666844638E+01  0.47761185565E+01 -0.60746791197E+01  0.89759479647E+01  0.00000000000E+00 0. -1.
</event>
<event>
 7    1  0.2497395E-009  0.4778727E+02  0.7816164E-02  0.1312668E+00
        -11   -1    0    0    0    0  0.00000000000E+00  0.00000000000E+00  0.45593999997E+02  0.45594000000E+02  0.51100000000E-03 0. -1.
         11   -1    0    0    0    0 -0.00000000000E+00 -0.00000000000E+00 -0.45593999997E+02  0.45594000000E+02  0.51100000000E-03 0.  1.
    9900012    2    1    2    0    0 -0.32405372276E+02  0.23348965606E+02  0.16980595943E+02  0.47787274363E+02  0.20000015131E+02 0.  0.
        -12    1    1    2    0    0  0.32405372276E+02 -0.23348965606E+02 -0.16980595943E+02  0.43400725637E+02  0.00000000000E+00 0.  1.
         11    1    3    3    0    0 -0.22929033488E+02  0.24221869520E+02  0.14606158890E+02  0.36411253995E+02  0.51100000000E-03 0. -1.
        -11    1    3    3    0    0 -0.35275622949E+01  0.21651129656E+01 -0.36797103315E+00  0.41553354667E+01  0.51100000000E-03 0.  1.
         12    1    3    3    0    0 -0.59487764931E+01 -0.30380168794E+01  0.27424080865E+01  0.72206849008E+01  0.00000000000E+00 0. -1.
</event>
<event>
 7    1  0.2497395E-009  0.4778727E+02  0.7816164E-02  0.1312668E+00
        -11   -1    0    0    0    0  0.00000000000E+00  0.00000000000E+00  0.45593999997E+02  0.45594000000E+02  0.51100000000E-03 0. -1.
         11   -1    0    0    0    0 -0.00000000000E+00 -0.00000000000E+00 -0.45593999997E+02  0.45594000000E+02  0.51100000000E-03 0.  1.
    9900012    2    1    2    0    0 -0.16930170400E+02  0.32985898755E+02  0.22559323941E+02  0.47787270938E+02  0.19999999513E+02 0.  0.
        -12    1    1    2    0    0  0.16930170400E+02 -0.32985898755E+02 -0.22559323941E+02  0.43400729062E+02  0.00000000000E+00 0.  1.
         11    1    3    3    0    0 -0.50060962369E+01  0.10924370550E+02  0.53041578605E+01  0.13135332592E+02  0.51100000000E-03 0. -1.
        -11    1    3    3    0    0 -0.14485076290E+02  0.11283722855E+02  0.14048518328E+02  0.23119271270E+02  0.51100000000E-03 0.  1.
        -12    1    3    3    0    0  0.25610021263E+01  0.10777805351E+02  0.32066477532E+01  0.11532667076E+02  0.00000000000E+00 0.  1.
</event>
<event>
 7    1  0.2497395E-009  0.4778727E+02  0.7816164E-02  0.1312668E+00
        -11   -1    0    0    0    0  0.00000000000E+00  0.00000000000E+00  0.45593999997E+02  0.45594000000E+02  0.51100000000E-03 0. -1.
         11   -1    0    0    0    0 -0.00000000000E+00 -0.00000000000E+00 -0.45593999997E+02  0.45594000000E+02  0.51100000000E-03 0.  1.
    9900012    2    1    2    0    0 -0.21803962900E+02  0.12837378338E+02  0.35262049896E+02  0.47787271393E+02  0.20000001588E+02 0.  0.
        -12    1    1    2    0    0  0.21803962900E+02 -0.12837378338E+02 -0.35262049896E+02  0.43400728607E+02  0.00000000000E+00 0.  1.
         11    1    3    3    0    0 -0.23849605722E+02  0.10383474713E+02  0.23847772879E+02  0.35289325749E+02  0.51100000000E-03 0.  1.
        -11    1    3    3    0    0  0.15037920887E+01  0.34668443590E+01  0.99037870856E+01  0.10600254683E+02  0.51100000000E-03 0. -1.
        -12    1    3    3    0    0  0.54185073360E+00 -0.10129407343E+01  0.15104899317E+01  0.18976909607E+01  0.00000000000E+00 0.  1.
</event>
<event>
 7    1  0.2497395E-009  0.4778725E+02  0.7816164E-02  0.1312668E+00
        -11   -1    0    0    0    0  0.00000000000E+00  0.00000000000E+00  0.45593999997E+02  0.45594000000E+02  0.51100000000E-03 0. -1.
         11   -1    0    0    0    0 -0.00000000000E+00 -0.00000000000E+00 -0.45593999997E+02  0.45594000000E+02  0.51100000000E-03 0.  1.
    9900012    2    1    2    0    0 -0.40102082229E+02 -0.12125326664E+02  0.11332439761E+02  0.47787254191E+02  0.19999923160E+02 0.  0.
        -12    1    1    2    0    0  0.40102082229E+02  0.12125326664E+02 -0.11332439761E+02  0.43400745809E+02  0.00000000000E+00 0.  1.
         11    1    3    3    0    0 -0.25700575282E+01 -0.71507388063E+01  0.50308753151E+01  0.91130657779E+01  0.51100000000E-03 0. -1.
        -11    1    3    3    0    0 -0.29332202446E+02 -0.55591473555E+01  0.59793302896E+01  0.30447243071E+02  0.51100000000E-03 0.  1.
        -12    1    3    3    0    0 -0.81998222549E+01  0.58455949754E+00  0.32223415624E+00  0.82269453426E+01  0.00000000000E+00 0.  1.
</event>
<event>
 7    1  0.2497395E-009  0.4778727E+02  0.7816164E-02  0.1312668E+00
        -11   -1    0    0    0    0  0.00000000000E+00  0.00000000000E+00  0.45593999997E+02  0.45594000000E+02  0.51100000000E-03 0.  1.
         11   -1    0    0    0    0 -0.00000000000E+00 -0.00000000000E+00 -0.45593999997E+02  0.45594000000E+02  0.51100000000E-03 0. -1.
    9900012    2    1    2    0    0  0.34775657937E+02  0.17154065039E+02 -0.19493972565E+02  0.47787270759E+02  0.19999998698E+02 0.  0.
        -12    1    1    2    0    0 -0.34775657937E+02 -0.17154065039E+02  0.19493972565E+02  0.43400729241E+02  0.00000000000E+00 0.  1.
         11    1    3    3    0    0  0.21567327233E+02  0.59506774617E+00 -0.13705533667E+02  0.25560621334E+02  0.51100000000E-03 0. -1.
        -11    1    3    3    0    0  0.61157937892E+01  0.63465789833E+01 -0.87412304282E+00  0.88569797232E+01  0.51100000000E-03 0.  1.
         12    1    3    3    0    0  0.70925369143E+01  0.10212418310E+02 -0.49143158545E+01  0.13369669702E+02  0.00000000000E+00 0. -1.
</event>
<event>
 7    1  0.2497395E-009  0.4778727E+02  0.7816164E-02  0.1312668E+00
        -11   -1    0    0    0    0  0.00000000000E+00  0.00000000000E+00  0.45593999997E+02  0.45594000000E+02  0.51100000000E-03 0. -1.
         11   -1    0    0    0    0 -0.00000000000E+00 -0.00000000000E+00 -0.45593999997E+02  0.45594000000E+02  0.51100000000E-03 0.  1.
    9900012    2    1    2    0    0 -0.96775045966E+01  0.19341039187E+02  0.37628355120E+02  0.47787274187E+02  0.20000014330E+02 0.  0.
        -12    1    1    2    0    0  0.96775045966E+01 -0.19341039187E+02 -0.37628355120E+02  0.43400725813E+02  0.00000000000E+00 0.  1.
         11    1    3    3    0    0 -0.84288594521E+01  0.15939254732E+02  0.36645173555E+02  0.40840840567E+02  0.51100000000E-03 0. -1.
        -11    1    3    3    0    0 -0.41143339999E+00 -0.82347510038E+00  0.22711303236E+01  0.24505962319E+01  0.51100000000E-03 0.  1.
         12    1    3    3    0    0 -0.83721174445E+00  0.42252595554E+01 -0.12879487592E+01  0.44958373883E+01  0.00000000000E+00 0. -1.
</event>
<event>
 7    1  0.2497395E-009  0.4778727E+02  0.7816164E-02  0.1312668E+00
        -11   -1    0    0    0    0  0.00000000000E+00  0.00000000000E+00  0.45593999997E+02  0.45594000000E+02  0.51100000000E-03 0.  1.
         11   -1    0    0    0    0 -0.00000000000E+00 -0.00000000000E+00 -0.45593999997E+02  0.45594000000E+02  0.51100000000E-03 0. -1.
    9900012    2    1    2    0    0 -0.17830163951E+02 -0.18068652715E+01 -0.39527757420E+02  0.47787272871E+02  0.20000008330E+02 0.  0.
        -12    1    1    2    0    0  0.17830163951E+02  0.18068652715E+01  0.39527757420E+02  0.43400727129E+02  0.00000000000E+00 0.  1.
         11    1    3    3    0    0 -0.31894979497E+01  0.65329111130E+00 -0.42847718364E+01  0.53813526551E+01  0.51100000000E-03 0. -1.
        -11    1    3    3    0    0 -0.18026259621E+02 -0.28203229884E+00 -0.21361359982E+02  0.27952339414E+02  0.51100000000E-03 0.  1.
        -12    1    3    3    0    0  0.33855936195E+01 -0.21781240839E+01 -0.13881625601E+02  0.14453580803E+02  0.00000000000E+00 0.  1.
</event>
<event>
 7    1  0.2497395E-009  0.4778727E+02  0.7816164E-02  0.1312668E+00
        -11   -1    0    0    0    0  0.00000000000E+00  0.00000000000E+00  0.45593999997E+02  0.45594000000E+02  0.51100000000E-03 0.  1.
         11   -1    0    0    0    0 -0.00000000000E+00 -0.00000000000E+00 -0.45593999997E+02  0.45594000000E+02  0.51100000000E-03 0. -1.
    9900012    2    1    2    0    0  0.26715455291E+02  0.21172905786E+02 -0.26862903310E+02  0.47787273450E+02  0.20000010967E+02 0.  0.
        -12    1    1    2    0    0 -0.26715455291E+02 -0.21172905786E+02  0.26862903310E+02  0.43400726550E+02  0.00000000000E+00 0.  1.
         11    1    3    3    0    0  0.17441096765E+02  0.58357450872E+01 -0.13404916600E+02  0.22758285665E+02  0.51100000000E-03 0. -1.
        -11    1    3    3    0    0  0.25852933734E+01  0.71359582065E+01  0.39016087897E+00  0.75998596779E+01  0.51100000000E-03 0.  1.
         12    1    3    3    0    0  0.66890651531E+01  0.82012024924E+01 -0.13848147589E+02  0.17429128107E+02  0.00000000000E+00 0. -1.
</event>
<event>
 7    1  0.2497395E-009  0.4778729E+02  0.7816164E-02  0.1312668E+00
        -11   -1    0    0    0    0  0.00000000000E+00  0.00000000000E+00  0.45593999997E+02  0.45594000000E+02  0.51100000000E-03 0. -1.
         11   -1    0    0    0    0 -0.00000000000E+00 -0.00000000000E+00 -0.45593999997E+02  0.45594000000E+02  0.51100000000E-03 0.  1.
    9900012    2    1    2    0    0  0.23997070039E+02 -0.19693150181E+02  0.30330548527E+02  0.47787289079E+02  0.20000082226E+02 0.  0.
        -12    1    1    2    0    0 -0.23997070039E+02  0.19693150181E+02 -0.30330548527E+02  0.43400710921E+02  0.00000000000E+00 0.  1.
         11    1    3    3    0    0  0.42853200463E+01 -0.48002274285E+01  0.49279477205E+01  0.81049873696E+01  0.51100000000E-03 0. -1.
        -11    1    3    3    0    0  0.14005806364E+02 -0.12360020826E+02  0.27369941064E+02  0.33136783200E+02  0.51100000000E-03 0.  1.
        -12    1    3    3    0    0  0.57059436286E+01 -0.25329019261E+01 -0.19673402579E+01  0.65455185089E+01  0.00000000000E+00 0.  1.
</event>
<event>
 7    1  0.2497395E-009  0.4778727E+02  0.7816164E-02  0.1312668E+00
        -11   -1    0    0    0    0  0.00000000000E+00  0.00000000000E+00  0.45593999997E+02  0.45594000000E+02  0.51100000000E-03 0.  1.
         11   -1    0    0    0    0 -0.00000000000E+00 -0.00000000000E+00 -0.45593999997E+02  0.45594000000E+02  0.51100000000E-03 0. -1.
    9900012    2    1    2    0    0 -0.86169322581E+01 -0.38587401803E+02 -0.17899273072E+02  0.47787273325E+02  0.20000010397E+02 0.  0.
        -12    1    1    2    0    0  0.86169322581E+01  0.38587401803E+02  0.17899273072E+02  0.43400726675E+02  0.00000000000E+00 0.  1.
         11    1    3    3    0    0  0.48978966812E+01 -0.19074725332E+02 -0.57345567189E+01  0.20511452396E+02  0.51100000000E-03 0. -1.
        -11    1    3    3    0    0 -0.13579725589E+02 -0.17938260050E+02 -0.10056851962E+02  0.24644074183E+02  0.51100000000E-03 0.  1.
        -12    1    3    3    0    0  0.64896649572E-01 -0.15744164212E+01 -0.21078643909E+01  0.26317467455E+01  0.00000000000E+00 0.  1.
</event>
<event>
 7    1  0.2497395E-009  0.4778727E+02  0.7816164E-02  0.1312668E+00
        -11   -1    0    0    0    0  0.00000000000E+00  0.00000000000E+00  0.45593999997E+02  0.45594000000E+02  0.51100000000E-03 0.  1.
         11   -1    0    0    0    0 -0.00000000000E+00 -0.00000000000E+00 -0.45593999997E+02  0.45594000000E+02  0.51100000000E-03 0. -1.
    9900012    2    1    2    0    0 -0.38089821064E+02 -0.20514216403E+02 -0.34577025376E+01  0.47787271318E+02  0.20000001247E+02 0.  0.
        -12    1    1    2    0    0  0.38089821064E+02  0.20514216403E+02  0.34577025376E+01  0.43400728682E+02  0.00000000000E+00 0.  1.
         11    1    3    3    0    0 -0.30595861482E+02 -0.15756925788E+02  0.37952943237E+01  0.34623571586E+02  0.51100000000E-03 0. -1.
        -11    1    3    3    0    0  0.91181348269E-02 -0.26628980946E+01 -0.38063510986E+01  0.46453652547E+01  0.51100000000E-03 0.  1.
         12    1    3    3    0    0 -0.75030777165E+01 -0.20943925207E+01 -0.34466457627E+01  0.85183344771E+01  0.00000000000E+00 0. -1.
</event>
<event>
 7    1  0.2497395E-009  0.4778727E+02  0.7816164E-02  0.1312668E+00
        -11   -1    0    0    0    0  0.00000000000E+00  0.00000000000E+00  0.45593999997E+02  0.45594000000E+02  0.51100000000E-03 0.  1.
         11   -1    0    0    0    0 -0.00000000000E+00 -0.00000000000E+00 -0.45593999997E+02  0.45594000000E+02  0.51100000000E-03 0. -1.
    9900012    2    1    2    0    0 -0.14041723511E+02 -0.17444129108E+02 -0.37177352715E+02  0.47787271960E+02  0.20000004176E+02 0.  0.
        -12    1    1    2    0    0  0.14041723511E+02  0.17444129108E+02  0.37177352715E+02  0.43400728040E+02  0.00000000000E+00 0.  1.
         11    1    3    3    0    0 -0.73367237150E+01 -0.15148236616E+02 -0.34656555180E+02  0.38527566815E+02  0.51100000000E-03 0. -1.
        -11    1    3    3    0    0 -0.66031914351E+01 -0.85839444845E-01 -0.24581610451E+01  0.70464218951E+01  0.51100000000E-03 0.  1.
         12    1    3    3    0    0 -0.10180836075E+00 -0.22100530479E+01 -0.62636489106E-01  0.22132832505E+01  0.00000000000E+00 0. -1.
</event>
<event>
 7    1  0.2497395E-009  0.4778727E+02  0.7816164E-02  0.1312668E+00
        -11   -1    0    0    0    0  0.00000000000E+00  0.00000000000E+00  0.45593999997E+02  0.45594000000E+02  0.51100000000E-03 0. -1.
         11   -1    0    0    0    0 -0.00000000000E+00 -0.00000000000E+00 -0.45593999997E+02  0.45594000000E+02  0.51100000000E-03 0.  1.
    9900012    2    1    2    0    0 -0.15161642409E+02 -0.34972153161E+02  0.20753226938E+02  0.47787270449E+02  0.19999997285E+02 0.  0.
        -12    1    1    2    0    0  0.15161642409E+02  0.34972153161E+02 -0.20753226938E+02  0.43400729551E+02  0.00000000000E+00 0.  1.
         11    1    3    3    0    0 -0.14939074581E+02 -0.27229142770E+02  0.11317894057E+02  0.33055966049E+02  0.51100000000E-03 0. -1.
        -11    1    3    3    0    0  0.24605811777E+01 -0.26703524287E+01 -0.65673506165E-01  0.36317427079E+01  0.51100000000E-03 0.  1.
         12    1    3    3    0    0 -0.26831490058E+01 -0.50726579622E+01  0.95010063867E+01  0.11099561692E+02  0.00000000000E+00 0. -1.
</event>
<event>
 7    1  0.2497395E-009  0.4778727E+02  0.7816164E-02  0.1312668E+00
        -11   -1    0    0    0    0  0.00000000000E+00  0.00000000000E+00  0.45593999997E+02  0.45594000000E+02  0.51100000000E-03 0.  1.
         11   -1    0    0    0    0 -0.00000000000E+00 -0.00000000000E+00 -0.45593999997E+02  0.45594000000E+02  0.51100000000E-03 0. -1.
    9900012    2    1    2    0    0 -0.19331546386E+02  0.26229598481E+02 -0.28669195114E+02  0.47787271082E+02  0.20000000170E+02 0.  0.
        -12    1    1    2    0    0  0.19331546386E+02 -0.26229598481E+02  0.28669195114E+02  0.43400728918E+02  0.00000000000E+00 0.  1.
         11    1    3    3    0    0  0.27315797635E+01  0.65458612410E+01 -0.85885274684E+01  0.11138789509E+02  0.51100000000E-03 0. -1.
        -11    1    3    3    0    0 -0.13446301889E+02  0.67579740080E+01 -0.86114720111E+01  0.17338705189E+02  0.51100000000E-03 0.  1.
         12    1    3    3    0    0 -0.86168242609E+01  0.12925763232E+02 -0.11469195635E+02  0.19309776383E+02  0.00000000000E+00 0. -1.
</event>
<event>
 7    1  0.2497395E-009  0.4778727E+02  0.7816164E-02  0.1312668E+00
        -11   -1    0    0    0    0  0.00000000000E+00  0.00000000000E+00  0.45593999997E+02  0.45594000000E+02  0.51100000000E-03 0.  1.
         11   -1    0    0    0    0 -0.00000000000E+00 -0.00000000000E+00 -0.45593999997E+02  0.45594000000E+02  0.51100000000E-03 0. -1.
    9900012    2    1    2    0    0 -0.31409629580E+02 -0.29950893452E+02  0.49261502532E-01  0.47787271025E+02  0.19999999910E+02 0.  0.
        -12    1    1    2    0    0  0.31409629580E+02  0.29950893452E+02 -0.49261502532E-01  0.43400728975E+02  0.00000000000E+00 0.  1.
         11    1    3    3    0    0 -0.18587828770E+02 -0.26454517990E+02 -0.19779336293E+01  0.32392300353E+02  0.51100000000E-03 0. -1.
        -11    1    3    3    0    0 -0.60638531985E+01 -0.19369100644E+01  0.47515878811E+01  0.79435208732E+01  0.51100000000E-03 0.  1.
         12    1    3    3    0    0 -0.67579476111E+01 -0.15594653970E+01 -0.27243927493E+01  0.74514497979E+01  0.00000000000E+00 0. -1.
</event>
<event>
 7    1  0.2497395E-009  0.4778727E+02  0.7816164E-02  0.1312668E+00
        -11   -1    0    0    0    0  0.00000000000E+00  0.00000000000E+00  0.45593999997E+02  0.45594000000E+02  0.51100000000E-03 0.  1.
         11   -1    0    0    0    0 -0.00000000000E+00 -0.00000000000E+00 -0.45593999997E+02  0.45594000000E+02  0.51100000000E-03 0. -1.
    9900012    2    1    2    0    0  0.25307090783E+02  0.33518708209E+02 -0.10939409456E+02  0.47787270477E+02  0.19999997413E+02 0.  0.
        -12    1    1    2    0    0 -0.25307090783E+02 -0.33518708209E+02  0.10939409456E+02  0.43400729523E+02  0.00000000000E+00 0.  1.
         11    1    3    3    0    0  0.18399573594E+02  0.12264580232E+02 -0.33437563487E+01  0.22363920575E+02  0.51100000000E-03 0.  1.
        -11    1    3    3    0    0  0.13545740727E+01  0.56926893329E+01 -0.66727366830E+01  0.88750773439E+01  0.51100000000E-03 0. -1.
         12    1    3    3    0    0  0.55529431165E+01  0.15561438645E+02 -0.92291642428E+00  0.16548272558E+02  0.00000000000E+00 0. -1.
</event>
<event>
 7    1  0.2497395E-009  0.4778725E+02  0.7816164E-02  0.1312668E+00
        -11   -1    0    0    0    0  0.00000000000E+00  0.00000000000E+00  0.45593999997E+02  0.45594000000E+02  0.51100000000E-03 0.  1.
         11   -1    0    0    0    0 -0.00000000000E+00 -0.00000000000E+00 -0.45593999997E+02  0.45594000000E+02  0.51100000000E-03 0. -1.
    9900012    2    1    2    0    0 -0.23430462122E+02  0.26675036953E+02  0.24961582918E+02  0.47787253769E+02  0.19999921232E+02 0.  0.
        -12    1    1    2    0    0  0.23430462122E+02 -0.26675036953E+02 -0.24961582918E+02  0.43400746231E+02  0.00000000000E+00 0.  1.
         11    1    3    3    0    0 -0.15195352755E+02  0.11764623670E+02  0.76728813545E+01  0.20692467808E+02  0.51100000000E-03 0. -1.
        -11    1    3    3    0    0  0.12204073012E+01  0.15097080648E+00  0.62727509529E+01  0.63921507291E+01  0.51100000000E-03 0.  1.
        -12    1    3    3    0    0 -0.94555166678E+01  0.14759442476E+02  0.11015950611E+02  0.20702635231E+02  0.00000000000E+00 0.  1.
</event>
<event>
 7    1  0.2497395E-009  0.4778727E+02  0.7816164E-02  0.1312668E+00
        -11   -1    0    0    0    0  0.00000000000E+00  0.00000000000E+00  0.45593999997E+02  0.45594000000E+02  0.51100000000E-03 0. -1.
         11   -1    0    0    0    0 -0.00000000000E+00 -0.00000000000E+00 -0.45593999997E+02  0.45594000000E+02  0.51100000000E-03 0.  1.
    9900012    2    1    2    0    0 -0.21529784310E+02  0.24241010156E+02  0.28852469442E+02  0.47787272141E+02  0.20000005000E+02 0.  0.
        -12    1    1    2    0    0  0.21529784310E+02 -0.24241010156E+02 -0.28852469442E+02  0.43400727859E+02  0.00000000000E+00 0.  1.
         11    1    3    3    0    0 -0.71087510791E+01  0.47965261386E+01  0.87424731052E+01  0.12246299080E+02  0.51100000000E-03 0. -1.
        -11    1    3    3    0    0 -0.10867058744E+02  0.15185343556E+01  0.64822229977E+01  0.12744337079E+02  0.51100000000E-03 0.  1.
        -12    1    3    3    0    0 -0.35539744871E+01  0.17925949661E+02  0.13627773339E+02  0.22796635982E+02  0.00000000000E+00 0.  1.
</event>
<event>
 7    1  0.2497395E-009  0.4778727E+02  0.7816164E-02  0.1312668E+00
        -11   -1    0    0    0    0  0.00000000000E+00  0.00000000000E+00  0.45593999997E+02  0.45594000000E+02  0.51100000000E-03 0.  1.
         11   -1    0    0    0    0 -0.00000000000E+00 -0.00000000000E+00 -0.45593999997E+02  0.45594000000E+02  0.51100000000E-03 0. -1.
    9900012    2    1    2    0    0  0.42003923201E+02 -0.10418051829E+02  0.32799480929E+01  0.47787269273E+02  0.19999991921E+02 0.  0.
        -12    1    1    2    0    0 -0.42003923201E+02  0.10418051829E+02 -0.32799480929E+01  0.43400730727E+02  0.00000000000E+00 0.  1.
         11    1    3    3    0    0  0.89651000621E+01 -0.17993050998E+01 -0.10802078934E+00  0.91445167569E+01  0.51100000000E-03 0. -1.
        -11    1    3    3    0    0  0.29050626221E+02 -0.13117637007E+02  0.28302749199E+00  0.31876188437E+02  0.51100000000E-03 0.  1.
        -12    1    3    3    0    0  0.39881969179E+01  0.44988902777E+01  0.31049413903E+01  0.67665640782E+01  0.00000000000E+00 0.  1.
</event>
<event>
 7    1  0.2497395E-009  0.4778727E+02  0.7816164E-02  0.1312668E+00
        -11   -1    0    0    0    0  0.00000000000E+00  0.00000000000E+00  0.45593999997E+02  0.45594000000E+02  0.51100000000E-03 0. -1.
         11   -1    0    0    0    0 -0.00000000000E+00 -0.00000000000E+00 -0.45593999997E+02  0.45594000000E+02  0.51100000000E-03 0.  1.
    9900012    2    1    2    0    0  0.42838295477E+02  0.66364599156E+01  0.21122483796E+01  0.47787265526E+02  0.19999974841E+02 0.  0.
        -12    1    1    2    0    0 -0.42838295477E+02 -0.66364599156E+01 -0.21122483796E+01  0.43400734474E+02  0.00000000000E+00 0.  1.
         11    1    3    3    0    0  0.24629094574E+02  0.17218039260E+01  0.71359417335E+01  0.25699777684E+02  0.51100000000E-03 0. -1.
        -11    1    3    3    0    0  0.40287542789E+01 -0.22421636259E+01  0.15961629238E+01  0.48791285191E+01  0.51100000000E-03 0.  1.
         12    1    3    3    0    0  0.14180446624E+02  0.71568196156E+01 -0.66198562777E+01  0.17208359323E+02  0.00000000000E+00 0. -1.
</event>
<event>
 7    1  0.2497395E-009  0.4778728E+02  0.7816164E-02  0.1312668E+00
        -11   -1    0    0    0    0  0.00000000000E+00  0.00000000000E+00  0.45593999997E+02  0.45594000000E+02  0.51100000000E-03 0. -1.
         11   -1    0    0    0    0 -0.00000000000E+00 -0.00000000000E+00 -0.45593999997E+02  0.45594000000E+02  0.51100000000E-03 0.  1.
    9900012    2    1    2    0    0 -0.26536160840E+02  0.33233903706E+02  0.86581000880E+01  0.47787275527E+02  0.20000020438E+02 0.  0.
        -12    1    1    2    0    0  0.26536160840E+02 -0.33233903706E+02 -0.86581000880E+01  0.43400724473E+02  0.00000000000E+00 0.  1.
         11    1    3    3    0    0  0.16487972280E+01  0.44288302095E+00  0.27620425829E+01  0.32470844092E+01  0.51100000000E-03 0. -1.
        -11    1    3    3    0    0 -0.21795926870E+00  0.32411294134E+01 -0.69995304403E+00  0.33230047611E+01  0.51100000000E-03 0.  1.
         12    1    3    3    0    0 -0.27966998799E+02  0.29549891271E+02  0.65960105491E+01  0.41217186357E+02  0.00000000000E+00 0. -1.
</event>
<event>
 7    1  0.2497395E-009  0.4778727E+02  0.7816164E-02  0.1312668E+00
        -11   -1    0    0    0    0  0.00000000000E+00  0.00000000000E+00  0.45593999997E+02  0.45594000000E+02  0.51100000000E-03 0.  1.
         11   -1    0    0    0    0 -0.00000000000E+00 -0.00000000000E+00 -0.45593999997E+02  0.45594000000E+02  0.51100000000E-03 0. -1.
    9900012    2    1    2    0    0 -0.38987217987E+02  0.15237239830E+02 -0.11465039477E+02  0.47787265280E+02  0.19999973717E+02 0.  0.
        -12    1    1    2    0    0  0.38987217987E+02 -0.15237239830E+02  0.11465039477E+02  0.43400734720E+02  0.00000000000E+00 0.  1.
         11    1    3    3    0    0 -0.28046553088E+01 -0.36674582002E+01 -0.17897118828E+01  0.49517077797E+01  0.51100000000E-03 0. -1.
        -11    1    3    3    0    0 -0.13284151515E+02  0.59485413215E+01  0.65632801920E+00  0.14569989432E+02  0.51100000000E-03 0.  1.
         12    1    3    3    0    0 -0.22898411164E+02  0.12956156709E+02 -0.10331655613E+02  0.28265568068E+02  0.00000000000E+00 0. -1.
</event>
<event>
 7    1  0.2497395E-009  0.4778726E+02  0.7816164E-02  0.1312668E+00
        -11   -1    0    0    0    0  0.00000000000E+00  0.00000000000E+00  0.45593999997E+02  0.45594000000E+02  0.51100000000E-03 0.  1.
         11   -1    0    0    0    0 -0.00000000000E+00 -0.00000000000E+00 -0.45593999997E+02  0.45594000000E+02  0.51100000000E-03 0. -1.
    9900012    2    1    2    0    0 -0.27503585936E+02  0.25451501192E+00 -0.33572485487E+02  0.47787264995E+02  0.19999972418E+02 0.  0.
        -12    1    1    2    0    0  0.27503585936E+02 -0.25451501192E+00  0.33572485487E+02  0.43400735005E+02  0.00000000000E+00 0.  1.
         11    1    3    3    0    0 -0.12117109088E+02 -0.35647804021E+01 -0.26543749770E+02  0.29395622873E+02  0.51100000000E-03 0. -1.
        -11    1    3    3    0    0 -0.12581603678E+02  0.42194749725E+01 -0.78795924957E+01  0.15433363156E+02  0.51100000000E-03 0.  1.
        -12    1    3    3    0    0 -0.28048731700E+01 -0.40017955846E+00  0.85085677932E+00  0.29582789655E+01  0.00000000000E+00 0.  1.
</event>
<event>
 7    1  0.2497395E-009  0.4778727E+02  0.7816164E-02  0.1312668E+00
        -11   -1    0    0    0    0  0.00000000000E+00  0.00000000000E+00  0.45593999997E+02  0.45594000000E+02  0.51100000000E-03 0.  1.
         11   -1    0    0    0    0 -0.00000000000E+00 -0.00000000000E+00 -0.45593999997E+02  0.45594000000E+02  0.51100000000E-03 0. -1.
    9900012    2    1    2    0    0  0.27015590178E+02  0.19534653405E+02 -0.27788095685E+02  0.47787273531E+02  0.20000011335E+02 0.  0.
        -12    1    1    2    0    0 -0.27015590178E+02 -0.19534653405E+02  0.27788095685E+02  0.43400726469E+02  0.00000000000E+00 0.  1.
         11    1    3    3    0    0  0.24995704978E+02  0.11714932153E+02 -0.18445665266E+02  0.33200413703E+02  0.51100000000E-03 0. -1.
        -11    1    3    3    0    0 -0.18809267045E+01 -0.21782453851E+00 -0.37839592486E+00  0.19309366987E+01  0.51100000000E-03 0.  1.
         12    1    3    3    0    0  0.39008119045E+01  0.80375457902E+01 -0.89640344934E+01  0.12655923129E+02  0.00000000000E+00 0. -1.
</event>
<event>
 7    1  0.2497395E-009  0.4778727E+02  0.7816164E-02  0.1312668E+00
        -11   -1    0    0    0    0  0.00000000000E+00  0.00000000000E+00  0.45593999997E+02  0.45594000000E+02  0.51100000000E-03 0.  1.
         11   -1    0    0    0    0 -0.00000000000E+00 -0.00000000000E+00 -0.45593999997E+02  0.45594000000E+02  0.51100000000E-03 0. -1.
    9900012    2    1    2    0    0 -0.33677185884E+02  0.25299248783E+02 -0.10460317160E+02  0.47787273357E+02  0.20000010542E+02 0.  0.
        -12    1    1    2    0    0  0.33677185884E+02 -0.25299248783E+02  0.10460317160E+02  0.43400726643E+02  0.00000000000E+00 0.  1.
         11    1    3    3    0    0 -0.14747763551E+02  0.92897416555E+01 -0.81079250602E+01  0.19223274404E+02  0.51100000000E-03 0. -1.
        -11    1    3    3    0    0 -0.46078009303E+01 -0.49945056223E+00  0.36499377392E+01  0.58994343829E+01  0.51100000000E-03 0.  1.
        -12    1    3    3    0    0 -0.14321621403E+02  0.16508957690E+02 -0.60023298389E+01  0.22664564569E+02  0.00000000000E+00 0.  1.
</event>
<event>
 7    1  0.2497395E-009  0.4778727E+02  0.7816164E-02  0.1312668E+00
        -11   -1    0    0    0    0  0.00000000000E+00  0.00000000000E+00  0.45593999997E+02  0.45594000000E+02  0.51100000000E-03 0.  1.
         11   -1    0    0    0    0 -0.00000000000E+00 -0.00000000000E+00 -0.45593999997E+02  0.45594000000E+02  0.51100000000E-03 0. -1.
    9900012    2    1    2    0    0  0.30035961276E+02  0.30222246838E+02 -0.82510485460E+01  0.47787274478E+02  0.20000015656E+02 0.  0.
        -12    1    1    2    0    0 -0.30035961276E+02 -0.30222246838E+02  0.82510485460E+01  0.43400725522E+02  0.00000000000E+00 0.  1.
         11    1    3    3    0    0  0.18522151260E+02  0.18085386852E+02 -0.12191478150E+02  0.28614392263E+02  0.51100000000E-03 0. -1.
        -11    1    3    3    0    0  0.10945851943E+02  0.12657318015E+02  0.17192038604E+01  0.16821861855E+02  0.51100000000E-03 0.  1.
         12    1    3    3    0    0  0.56795807367E+00 -0.52045802863E+00  0.22212257432E+01  0.23510203604E+01  0.00000000000E+00 0. -1.
</event>
<event>
 7    1  0.2497395E-009  0.4778727E+02  0.7816164E-02  0.1312668E+00
        -11   -1    0    0    0    0  0.00000000000E+00  0.00000000000E+00  0.45593999997E+02  0.45594000000E+02  0.51100000000E-03 0.  1.
         11   -1    0    0    0    0 -0.00000000000E+00 -0.00000000000E+00 -0.45593999997E+02  0.45594000000E+02  0.51100000000E-03 0. -1.
    9900012    2    1    2    0    0  0.97862987462E+01 -0.25530136658E+02 -0.33705547425E+02  0.47787269037E+02  0.19999990848E+02 0.  0.
        -12    1    1    2    0    0 -0.97862987462E+01  0.25530136658E+02  0.33705547425E+02  0.43400730963E+02  0.00000000000E+00 0.  1.
         11    1    3    3    0    0 -0.87112375968E-01 -0.14539564536E+02 -0.12063653339E+02  0.18892809680E+02  0.51100000000E-03 0.  1.
        -11    1    3    3    0    0  0.38594084253E+01 -0.11353141401E+01 -0.15095423653E+02  0.15622284952E+02  0.51100000000E-03 0. -1.
        -12    1    3    3    0    0  0.60140026969E+01 -0.98552579813E+01 -0.65464704330E+01  0.13272174405E+02  0.00000000000E+00 0.  1.
</event>
<event>
 7    1  0.2497395E-009  0.4778729E+02  0.7816164E-02  0.1312668E+00
        -11   -1    0    0    0    0  0.00000000000E+00  0.00000000000E+00  0.45593999997E+02  0.45594000000E+02  0.51100000000E-03 0. -1.
         11   -1    0    0    0    0 -0.00000000000E+00 -0.00000000000E+00 -0.45593999997E+02  0.45594000000E+02  0.51100000000E-03 0.  1.
    9900012    2    1    2    0    0 -0.17831455897E+02 -0.12695220752E+01  0.39548064313E+02  0.47787286911E+02  0.20000072343E+02 0.  0.
        -12    1    1    2    0    0  0.17831455897E+02  0.12695220752E+01 -0.39548064313E+02  0.43400713089E+02  0.00000000000E+00 0.  1.
         11    1    3    3    0    0 -0.29823950088E+01  0.70876025658E+01  0.12666469774E+02  0.14817835433E+02  0.51100000000E-03 0. -1.
        -11    1    3    3    0    0  0.46486362849E+00 -0.42209676338E+00 -0.36228084497E+00  0.72492174923E+00  0.51100000000E-03 0.  1.
         12    1    3    3    0    0 -0.15313924517E+02 -0.79350278776E+01  0.27243875383E+02  0.32244529729E+02  0.00000000000E+00 0. -1.
</event>
<event>
 7    1  0.2497395E-009  0.4778727E+02  0.7816164E-02  0.1312668E+00
        -11   -1    0    0    0    0  0.00000000000E+00  0.00000000000E+00  0.45593999997E+02  0.45594000000E+02  0.51100000000E-03 0. -1.
         11   -1    0    0    0    0 -0.00000000000E+00 -0.00000000000E+00 -0.45593999997E+02  0.45594000000E+02  0.51100000000E-03 0.  1.
    9900012    2    1    2    0    0  0.39235710650E+02  0.17487319068E+02 -0.61948286439E+01  0.47787271661E+02  0.20000002812E+02 0.  0.
        -12    1    1    2    0    0 -0.39235710650E+02 -0.17487319068E+02  0.61948286439E+01  0.43400728339E+02  0.00000000000E+00 0.  1.
         11    1    3    3    0    0  0.26966267012E+02  0.69266681854E+01 -0.10854746691E+02  0.29882834783E+02  0.51100000000E-03 0.  1.
        -11    1    3    3    0    0  0.52352628645E+01  0.82316968768E+01  0.36967673497E+01  0.10432396648E+02  0.51100000000E-03 0. -1.
        -12    1    3    3    0    0  0.70341807741E+01  0.23289540055E+01  0.96315069781E+00  0.74720402294E+01  0.00000000000E+00 0.  1.
</event>
<event>
 7    1  0.2497395E-009  0.4778727E+02  0.7816164E-02  0.1312668E+00
        -11   -1    0    0    0    0  0.00000000000E+00  0.00000000000E+00  0.45593999997E+02  0.45594000000E+02  0.51100000000E-03 0.  1.
         11   -1    0    0    0    0 -0.00000000000E+00 -0.00000000000E+00 -0.45593999997E+02  0.45594000000E+02  0.51100000000E-03 0. -1.
    9900012    2    1    2    0    0  0.14218231713E+02  0.57778628803E+01 -0.40596570900E+02  0.47787269806E+02  0.19999994353E+02 0.  0.
        -12    1    1    2    0    0 -0.14218231713E+02 -0.57778628803E+01  0.40596570900E+02  0.43400730194E+02  0.00000000000E+00 0.  1.
         11    1    3    3    0    0 -0.34539496527E+01 -0.23257494281E+01 -0.97977363622E+01  0.10645868527E+02  0.51100000000E-03 0. -1.
        -11    1    3    3    0    0  0.89838759369E+01  0.78958640568E+01 -0.19673579617E+02  0.23023996857E+02  0.51100000000E-03 0.  1.
         12    1    3    3    0    0  0.86883054292E+01  0.20774825158E+00 -0.11125254921E+02  0.14117404422E+02  0.00000000000E+00 0. -1.
</event>
<event>
 7    1  0.2497395E-009  0.4778726E+02  0.7816164E-02  0.1312668E+00
        -11   -1    0    0    0    0  0.00000000000E+00  0.00000000000E+00  0.45593999997E+02  0.45594000000E+02  0.51100000000E-03 0. -1.
         11   -1    0    0    0    0 -0.00000000000E+00 -0.00000000000E+00 -0.45593999997E+02  0.45594000000E+02  0.51100000000E-03 0.  1.
    9900012    2    1    2    0    0 -0.19215679390E+01 -0.41094231856E+02  0.13827346088E+02  0.47787264810E+02  0.19999971574E+02 0.  0.
        -12    1    1    2    0    0  0.19215679390E+01  0.41094231856E+02 -0.13827346088E+02  0.43400735190E+02  0.00000000000E+00 0.  1.
         11    1    3    3    0    0 -0.39977204235E+01 -0.26834316189E+02  0.32996305705E+01  0.27330383387E+02  0.51100000000E-03 0. -1.
        -11    1    3    3    0    0 -0.15703148462E+01  0.25930862514E+00  0.36510347683E+01  0.39828613860E+01  0.51100000000E-03 0.  1.
        -12    1    3    3    0    0  0.36464673307E+01 -0.14519224293E+02  0.68766807495E+01  0.16474020037E+02  0.00000000000E+00 0.  1.
</event>
<event>
 7    1  0.2497395E-009  0.4778727E+02  0.7816164E-02  0.1312668E+00
        -11   -1    0    0    0    0  0.00000000000E+00  0.00000000000E+00  0.45593999997E+02  0.45594000000E+02  0.51100000000E-03 0. -1.
         11   -1    0    0    0    0 -0.00000000000E+00 -0.00000000000E+00 -0.45593999997E+02  0.45594000000E+02  0.51100000000E-03 0.  1.
    9900012    2    1    2    0    0 -0.11881496547E+02  0.18424320189E+02  0.37456614681E+02  0.47787268233E+02  0.19999987180E+02 0.  0.
        -12    1    1    2    0    0  0.11881496547E+02 -0.18424320189E+02 -0.37456614681E+02  0.43400731767E+02  0.00000000000E+00 0.  1.
         11    1    3    3    0    0 -0.51170852044E+01  0.14345995683E+01  0.13316491016E+02  0.14337767265E+02  0.51100000000E-03 0. -1.
        -11    1    3    3    0    0 -0.10846442297E+02  0.11734805380E+02  0.13594384084E+02  0.20979948682E+02  0.51100000000E-03 0.  1.
        -12    1    3    3    0    0  0.40820309543E+01  0.52549152404E+01  0.10545739580E+02  0.12469552285E+02  0.00000000000E+00 0.  1.
</event>
<event>
 7    1  0.2497395E-009  0.4778726E+02  0.7816164E-02  0.1312668E+00
        -11   -1    0    0    0    0  0.00000000000E+00  0.00000000000E+00  0.45593999997E+02  0.45594000000E+02  0.51100000000E-03 0. -1.
         11   -1    0    0    0    0 -0.00000000000E+00 -0.00000000000E+00 -0.45593999997E+02  0.45594000000E+02  0.51100000000E-03 0.  1.
    9900012    2    1    2    0    0  0.39903069091E+02 -0.90478296427E+01  0.14474314769E+02  0.47787263461E+02  0.19999965424E+02 0.  0.
        -12    1    1    2    0    0 -0.39903069091E+02  0.90478296427E+01 -0.14474314769E+02  0.43400736539E+02  0.00000000000E+00 0.  1.
         11    1    3    3    0    0  0.28017306497E+02 -0.20271524182E+01  0.12857758640E+02  0.30893377410E+02  0.51100000000E-03 0. -1.
        -11    1    3    3    0    0  0.15542056819E+01 -0.30937617682E+01 -0.33127872572E+01  0.47918135244E+01  0.51100000000E-03 0.  1.
        -12    1    3    3    0    0  0.10331556912E+02 -0.39269154562E+01  0.49293433856E+01  0.12102072527E+02  0.00000000000E+00 0.  1.
</event>
<event>
 7    1  0.2497395E-009  0.4778727E+02  0.7816164E-02  0.1312668E+00
        -11   -1    0    0    0    0  0.00000000000E+00  0.00000000000E+00  0.45593999997E+02  0.45594000000E+02  0.51100000000E-03 0.  1.
         11   -1    0    0    0    0 -0.00000000000E+00 -0.00000000000E+00 -0.45593999997E+02  0.45594000000E+02  0.51100000000E-03 0. -1.
    9900012    2    1    2    0    0  0.41809572513E+02 -0.55625323753E+01 -0.10229430438E+02  0.47787269969E+02  0.19999995096E+02 0.  0.
        -12    1    1    2    0    0 -0.41809572513E+02  0.55625323753E+01  0.10229430438E+02  0.43400730031E+02  0.00000000000E+00 0.  1.
         11    1    3    3    0    0  0.31950676797E+02 -0.85662657604E+01 -0.32947883601E+01  0.33242777974E+02  0.51100000000E-03 0. -1.
        -11    1    3    3    0    0  0.53018971355E+01  0.21020961166E+01 -0.79551006143E+01  0.97883883946E+01  0.51100000000E-03 0.  1.
         12    1    3    3    0    0  0.45569985810E+01  0.90163726850E+00  0.10204585362E+01  0.47561036002E+01  0.00000000000E+00 0. -1.
</event>
<event>
 7    1  0.2497395E-009  0.4778727E+02  0.7816164E-02  0.1312668E+00
        -11   -1    0    0    0    0  0.00000000000E+00  0.00000000000E+00  0.45593999997E+02  0.45594000000E+02  0.51100000000E-03 0.  1.
         11   -1    0    0    0    0 -0.00000000000E+00 -0.00000000000E+00 -0.45593999997E+02  0.45594000000E+02  0.51100000000E-03 0. -1.
    9900012    2    1    2    0    0 -0.37976288085E+02 -0.13337076847E+02 -0.16234132861E+02  0.47787272525E+02  0.20000006752E+02 0.  0.
        -12    1    1    2    0    0  0.37976288085E+02  0.13337076847E+02  0.16234132861E+02  0.43400727475E+02  0.00000000000E+00 0.  1.
         11    1    3    3    0    0 -0.95991154901E+01 -0.52133367621E+00  0.31980431727E+01  0.10131253002E+02  0.51100000000E-03 0.  1.
        -11    1    3    3    0    0 -0.15978989923E+02 -0.33137598750E+01 -0.12549317908E+02  0.20586269786E+02  0.51100000000E-03 0. -1.
         12    1    3    3    0    0 -0.12398182672E+02 -0.95019832961E+01 -0.68828581257E+01  0.17069749738E+02  0.00000000000E+00 0. -1.
</event>
<event>
 7    1  0.2497395E-009  0.4778728E+02  0.7816164E-02  0.1312668E+00
        -11   -1    0    0    0    0  0.00000000000E+00  0.00000000000E+00  0.45593999997E+02  0.45594000000E+02  0.51100000000E-03 0.  1.
         11   -1    0    0    0    0 -0.00000000000E+00 -0.00000000000E+00 -0.45593999997E+02  0.45594000000E+02  0.51100000000E-03 0. -1.
    9900012    2    1    2    0    0  0.11666378768E+02 -0.70099221420E+01 -0.41211390645E+02  0.47787284327E+02  0.20000060561E+02 0.  0.
        -12    1    1    2    0    0 -0.11666378768E+02  0.70099221420E+01  0.41211390645E+02  0.43400715673E+02  0.00000000000E+00 0.  1.
         11    1    3    3    0    0  0.31985698724E+01  0.15144096038E+01 -0.13016255071E+02  0.13488779856E+02  0.51100000000E-03 0. -1.
        -11    1    3    3    0    0 -0.14672687567E+01  0.30793980877E+01 -0.19437736589E+01  0.39260446361E+01  0.51100000000E-03 0.  1.
        -12    1    3    3    0    0  0.99350776521E+01 -0.11603729833E+02 -0.26251361916E+02  0.30372459835E+02  0.00000000000E+00 0.  1.
</event>
<event>
 7    1  0.2497395E-009  0.4778727E+02  0.7816164E-02  0.1312668E+00
        -11   -1    0    0    0    0  0.00000000000E+00  0.00000000000E+00  0.45593999997E+02  0.45594000000E+02  0.51100000000E-03 0.  1.
         11   -1    0    0    0    0 -0.00000000000E+00 -0.00000000000E+00 -0.45593999997E+02  0.45594000000E+02  0.51100000000E-03 0. -1.
    9900012    2    1    2    0    0 -0.27375126941E+01 -0.13869716724E+02 -0.41033648701E+02  0.47787270242E+02  0.19999996343E+02 0.  0.
        -12    1    1    2    0    0  0.27375126941E+01  0.13869716724E+02  0.41033648701E+02  0.43400729758E+02  0.00000000000E+00 0.  1.
         11    1    3    3    0    0 -0.51951823590E+01 -0.75264393540E+01 -0.35218595838E+02  0.36386628068E+02  0.51100000000E-03 0. -1.
        -11    1    3    3    0    0  0.21513581215E+01 -0.38363974790E+01  0.66260001166E+00  0.44480699658E+01  0.51100000000E-03 0.  1.
         12    1    3    3    0    0  0.30631154346E+00 -0.25068798906E+01 -0.64776528753E+01  0.69525722089E+01  0.00000000000E+00 0. -1.
</event>
<event>
 7    1  0.2497395E-009  0.4778727E+02  0.7816164E-02  0.1312668E+00
        -11   -1    0    0    0    0  0.00000000000E+00  0.00000000000E+00  0.45593999997E+02  0.45594000000E+02  0.51100000000E-03 0. -1.
         11   -1    0    0    0    0 -0.00000000000E+00 -0.00000000000E+00 -0.45593999997E+02  0.45594000000E+02  0.51100000000E-03 0.  1.
    9900012    2    1    2    0    0 -0.42781101374E+02  0.63007362715E+01 -0.37015468764E+01  0.47787270034E+02  0.19999995393E+02 0.  0.
        -12    1    1    2    0    0  0.42781101374E+02 -0.63007362715E+01  0.37015468764E+01  0.43400729966E+02  0.00000000000E+00 0.  1.
         11    1    3    3    0    0 -0.23836857864E+02  0.80691397999E+01  0.64091031437E+01  0.25968893186E+02  0.51100000000E-03 0. -1.
        -11    1    3    3    0    0 -0.11638992760E+02 -0.15162938787E+01 -0.43717014390E+01  0.12525057818E+02  0.51100000000E-03 0.  1.
         12    1    3    3    0    0 -0.73052507495E+01 -0.25210964970E+00 -0.57389485812E+01  0.92933190307E+01  0.00000000000E+00 0. -1.
</event>
<event>
 7    1  0.2497395E-009  0.4778727E+02  0.7816164E-02  0.1312668E+00
        -11   -1    0    0    0    0  0.00000000000E+00  0.00000000000E+00  0.45593999997E+02  0.45594000000E+02  0.51100000000E-03 0.  1.
         11   -1    0    0    0    0 -0.00000000000E+00 -0.00000000000E+00 -0.45593999997E+02  0.45594000000E+02  0.51100000000E-03 0. -1.
    9900012    2    1    2    0    0 -0.32692723128E+02  0.13336418110E+02 -0.25237848366E+02  0.47787272083E+02  0.20000004736E+02 0.  0.
        -12    1    1    2    0    0  0.32692723128E+02 -0.13336418110E+02  0.25237848366E+02  0.43400727917E+02  0.00000000000E+00 0.  1.
         11    1    3    3    0    0 -0.85896529737E+01  0.63438502923E+01 -0.17836903036E+01  0.10826270184E+02  0.51100000000E-03 0. -1.
        -11    1    3    3    0    0 -0.14361851783E+02 -0.18359810923E+01 -0.16954198928E+02  0.22295256777E+02  0.51100000000E-03 0.  1.
        -12    1    3    3    0    0 -0.97412183717E+01  0.88285489103E+01 -0.64999591340E+01  0.14665745122E+02  0.00000000000E+00 0.  1.
</event>
<event>
 7    1  0.2497395E-009  0.4778728E+02  0.7816164E-02  0.1312668E+00
        -11   -1    0    0    0    0  0.00000000000E+00  0.00000000000E+00  0.45593999997E+02  0.45594000000E+02  0.51100000000E-03 0. -1.
         11   -1    0    0    0    0 -0.00000000000E+00 -0.00000000000E+00 -0.45593999997E+02  0.45594000000E+02  0.51100000000E-03 0.  1.
    9900012    2    1    2    0    0  0.17084470708E+02 -0.39678507964E+02 -0.41664515213E+01  0.47787280514E+02  0.20000043176E+02 0.  0.
        -12    1    1    2    0    0 -0.17084470708E+02  0.39678507964E+02  0.41664515213E+01  0.43400719486E+02  0.00000000000E+00 0.  1.
         11    1    3    3    0    0  0.16897497363E+02 -0.23091546928E+02 -0.23094644786E+01  0.28706768942E+02  0.51100000000E-03 0. -1.
        -11    1    3    3    0    0 -0.26134398008E+01 -0.46122011370E+01  0.27203537422E+01  0.59584219106E+01  0.51100000000E-03 0.  1.
         12    1    3    3    0    0  0.28004131460E+01 -0.11974759899E+02 -0.45773407849E+01  0.13122089662E+02  0.00000000000E+00 0. -1.
</event>
<event>
 7    1  0.2497395E-009  0.4778727E+02  0.7816164E-02  0.1312668E+00
        -11   -1    0    0    0    0  0.00000000000E+00  0.00000000000E+00  0.45593999997E+02  0.45594000000E+02  0.51100000000E-03 0. -1.
         11   -1    0    0    0    0 -0.00000000000E+00 -0.00000000000E+00 -0.45593999997E+02  0.45594000000E+02  0.51100000000E-03 0.  1.
    9900012    2    1    2    0    0  0.31019807297E+02 -0.28011082587E+02 -0.11695043045E+02  0.47787271616E+02  0.20000002604E+02 0.  0.
        -12    1    1    2    0    0 -0.31019807297E+02  0.28011082587E+02  0.11695043045E+02  0.43400728384E+02  0.00000000000E+00 0.  1.
         11    1    3    3    0    0 -0.46186440783E-01 -0.64827288557E+01  0.16942438051E+01  0.67006245184E+01  0.51100000000E-03 0. -1.
        -11    1    3    3    0    0  0.15283162911E+02 -0.14847411973E+02 -0.10319927143E+02  0.23675337534E+02  0.51100000000E-03 0.  1.
         12    1    3    3    0    0  0.15782830827E+02 -0.66809417588E+01 -0.30693597074E+01  0.17411309563E+02  0.00000000000E+00 0. -1.
</event>
<event>
 7    1  0.2497395E-009  0.4778727E+02  0.7816164E-02  0.1312668E+00
        -11   -1    0    0    0    0  0.00000000000E+00  0.00000000000E+00  0.45593999997E+02  0.45594000000E+02  0.51100000000E-03 0. -1.
         11   -1    0    0    0    0 -0.00000000000E+00 -0.00000000000E+00 -0.45593999997E+02  0.45594000000E+02  0.51100000000E-03 0.  1.
    9900012    2    1    2    0    0  0.21154827337E+01  0.28565302216E+02  0.32606307128E+02  0.47787273942E+02  0.20000013211E+02 0.  0.
        -12    1    1    2    0    0 -0.21154827337E+01 -0.28565302216E+02 -0.32606307128E+02  0.43400726058E+02  0.00000000000E+00 0.  1.
         11    1    3    3    0    0  0.56741404613E+01  0.23224430657E+02  0.26878877542E+02  0.35972824569E+02  0.51100000000E-03 0. -1.
        -11    1    3    3    0    0 -0.36062446465E+01  0.81750653586E+00  0.62487769031E+01  0.72608904710E+01  0.51100000000E-03 0.  1.
         12    1    3    3    0    0  0.47586918883E-01  0.45233650231E+01 -0.52134731747E+00  0.45535589018E+01  0.00000000000E+00 0. -1.
</event>
<event>
 7    1  0.2497395E-009  0.4778728E+02  0.7816164E-02  0.1312668E+00
        -11   -1    0    0    0    0  0.00000000000E+00  0.00000000000E+00  0.45593999997E+02  0.45594000000E+02  0.51100000000E-03 0.  1.
         11   -1    0    0    0    0 -0.00000000000E+00 -0.00000000000E+00 -0.45593999997E+02  0.45594000000E+02  0.51100000000E-03 0. -1.
    9900012    2    1    2    0    0  0.22684497700E+02  0.12741099003E+02 -0.34737593520E+02  0.47787280614E+02  0.20000043631E+02 0.  0.
        -12    1    1    2    0    0 -0.22684497700E+02 -0.12741099003E+02  0.34737593520E+02  0.43400719386E+02  0.00000000000E+00 0.  1.
         11    1    3    3    0    0  0.16631488897E+02  0.10490810151E+02 -0.21174363955E+02  0.28896664335E+02  0.51100000000E-03 0. -1.
        -11    1    3    3    0    0 -0.36219758628E+00  0.36271994436E+00 -0.12015858878E+02  0.12026787505E+02  0.51100000000E-03 0.  1.
        -12    1    3    3    0    0  0.64152063893E+01  0.18875689077E+01 -0.15473706870E+01  0.68638287742E+01  0.00000000000E+00 0.  1.
</event>
<event>
 7    1  0.2497395E-009  0.4778727E+02  0.7816164E-02  0.1312668E+00
        -11   -1    0    0    0    0  0.00000000000E+00  0.00000000000E+00  0.45593999997E+02  0.45594000000E+02  0.51100000000E-03 0. -1.
         11   -1    0    0    0    0 -0.00000000000E+00 -0.00000000000E+00 -0.45593999997E+02  0.45594000000E+02  0.51100000000E-03 0.  1.
    9900012    2    1    2    0    0  0.22533961220E+02 -0.33172681898E+02  0.16595690586E+02  0.47787272142E+02  0.20000005003E+02 0.  0.
        -12    1    1    2    0    0 -0.22533961220E+02  0.33172681898E+02 -0.16595690586E+02  0.43400727858E+02  0.00000000000E+00 0.  1.
         11    1    3    3    0    0  0.17786296795E+02 -0.11874130469E+02  0.10398425401E+02  0.23779709400E+02  0.51100000000E-03 0. -1.
        -11    1    3    3    0    0  0.60608221147E+00  0.59674935671E+00  0.57183167648E+00  0.10249083711E+01  0.51100000000E-03 0.  1.
         12    1    3    3    0    0  0.41415822133E+01 -0.21895300786E+02  0.56254335088E+01  0.22982654370E+02  0.00000000000E+00 0. -1.
</event>
<event>
 7    1  0.2497395E-009  0.4778728E+02  0.7816164E-02  0.1312668E+00
        -11   -1    0    0    0    0  0.00000000000E+00  0.00000000000E+00  0.45593999997E+02  0.45594000000E+02  0.51100000000E-03 0.  1.
         11   -1    0    0    0    0 -0.00000000000E+00 -0.00000000000E+00 -0.45593999997E+02  0.45594000000E+02  0.51100000000E-03 0. -1.
    9900012    2    1    2    0    0 -0.97594824188E+01  0.38899379080E+02 -0.16589557579E+02  0.47787278687E+02  0.20000034844E+02 0.  0.
        -12    1    1    2    0    0  0.97594824188E+01 -0.38899379080E+02  0.16589557579E+02  0.43400721313E+02  0.00000000000E+00 0.  1.
         11    1    3    3    0    0 -0.14263519908E+02  0.27173217244E+02 -0.11567131811E+02  0.32796802804E+02  0.51100000000E-03 0. -1.
        -11    1    3    3    0    0  0.24267457723E+01  0.18539564417E+01 -0.37283570659E+01  0.48194290329E+01  0.51100000000E-03 0.  1.
        -12    1    3    3    0    0  0.20772917172E+01  0.98722053936E+01 -0.12940687022E+01  0.10171046850E+02  0.00000000000E+00 0.  1.
</event>
<event>
 7    1  0.2497395E-009  0.4778727E+02  0.7816164E-02  0.1312668E+00
        -11   -1    0    0    0    0  0.00000000000E+00  0.00000000000E+00  0.45593999997E+02  0.45594000000E+02  0.51100000000E-03 0.  1.
         11   -1    0    0    0    0 -0.00000000000E+00 -0.00000000000E+00 -0.45593999997E+02  0.45594000000E+02  0.51100000000E-03 0. -1.
    9900012    2    1    2    0    0  0.32227912338E+02  0.28967775350E+02 -0.24193160341E+01  0.47787269217E+02  0.19999991668E+02 0.  0.
        -12    1    1    2    0    0 -0.32227912338E+02 -0.28967775350E+02  0.24193160341E+01  0.43400730783E+02  0.00000000000E+00 0.  1.
         11    1    3    3    0    0  0.25149440797E+01 -0.23418068082E+01  0.31295355009E+00  0.34506438583E+01  0.51100000000E-03 0. -1.
        -11    1    3    3    0    0  0.19121181483E+02  0.17633942469E+02  0.28350387362E+01  0.26165109463E+02  0.51100000000E-03 0.  1.
         12    1    3    3    0    0  0.10591786775E+02  0.13675639690E+02 -0.55673083204E+01  0.18171515896E+02  0.00000000000E+00 0. -1.
</event>
<event>
 7    1  0.2497395E-009  0.4778729E+02  0.7816164E-02  0.1312668E+00
        -11   -1    0    0    0    0  0.00000000000E+00  0.00000000000E+00  0.45593999997E+02  0.45594000000E+02  0.51100000000E-03 0.  1.
         11   -1    0    0    0    0 -0.00000000000E+00 -0.00000000000E+00 -0.45593999997E+02  0.45594000000E+02  0.51100000000E-03 0. -1.
    9900012    2    1    2    0    0  0.40193129087E+01 -0.26385315093E+02 -0.34223998577E+02  0.47787287939E+02  0.20000077029E+02 0.  0.
        -12    1    1    2    0    0 -0.40193129087E+01  0.26385315093E+02  0.34223998577E+02  0.43400712061E+02  0.00000000000E+00 0.  1.
         11    1    3    3    0    0  0.54123970539E+01 -0.17699503140E+02 -0.98252028564E+01  0.20954738478E+02  0.51100000000E-03 0. -1.
        -11    1    3    3    0    0  0.14107478235E+01 -0.68616246745E+01 -0.20662456507E+02  0.21817635338E+02  0.51100000000E-03 0.  1.
        -12    1    3    3    0    0 -0.28038319686E+01 -0.18241872789E+01 -0.37363392136E+01  0.50149141225E+01  0.00000000000E+00 0.  1.
</event>
<event>
 7    1  0.2497395E-009  0.4778727E+02  0.7816164E-02  0.1312668E+00
        -11   -1    0    0    0    0  0.00000000000E+00  0.00000000000E+00  0.45593999997E+02  0.45594000000E+02  0.51100000000E-03 0.  1.
         11   -1    0    0    0    0 -0.00000000000E+00 -0.00000000000E+00 -0.45593999997E+02  0.45594000000E+02  0.51100000000E-03 0. -1.
    9900012    2    1    2    0    0  0.12810550618E+02  0.30694795853E+02 -0.27880859848E+02  0.47787273676E+02  0.20000011999E+02 0.  0.
        -12    1    1    2    0    0 -0.12810550618E+02 -0.30694795853E+02  0.27880859848E+02  0.43400726324E+02  0.00000000000E+00 0.  1.
         11    1    3    3    0    0  0.94336112438E+01  0.13858088278E+02 -0.24713938332E+02  0.29863328347E+02  0.51100000000E-03 0. -1.
        -11    1    3    3    0    0  0.38457111198E+01  0.90381725964E+01 -0.15127113656E+01  0.99381262739E+01  0.51100000000E-03 0.  1.
         12    1    3    3    0    0 -0.46877174565E+00  0.77985349786E+01 -0.16542101505E+01  0.79858190553E+01  0.00000000000E+00 0. -1.
</event>
<event>
 7    1  0.2497395E-009  0.4778728E+02  0.7816164E-02  0.1312668E+00
        -11   -1    0    0    0    0  0.00000000000E+00  0.00000000000E+00  0.45593999997E+02  0.45594000000E+02  0.51100000000E-03 0.  1.
         11   -1    0    0    0    0 -0.00000000000E+00 -0.00000000000E+00 -0.45593999997E+02  0.45594000000E+02  0.51100000000E-03 0. -1.
    9900012    2    1    2    0    0 -0.14960904920E+02  0.21183628517E+02 -0.34800116513E+02  0.47787275323E+02  0.20000019508E+02 0.  0.
        -12    1    1    2    0    0  0.14960904920E+02 -0.21183628517E+02  0.34800116513E+02  0.43400724677E+02  0.00000000000E+00 0.  1.
         11    1    3    3    0    0  0.16634098560E+01  0.48753142832E+01 -0.80897148110E+01  0.95905738980E+01  0.51100000000E-03 0. -1.
        -11    1    3    3    0    0 -0.17157536184E+02  0.11347601390E+02 -0.26005706012E+02  0.33157892735E+02  0.51100000000E-03 0.  1.
        -12    1    3    3    0    0  0.53322140801E+00  0.49607128444E+01 -0.70469568974E+00  0.50388086895E+01  0.00000000000E+00 0.  1.
</event>
<event>
 7    1  0.2497395E-009  0.4778727E+02  0.7816164E-02  0.1312668E+00
        -11   -1    0    0    0    0  0.00000000000E+00  0.00000000000E+00  0.45593999997E+02  0.45594000000E+02  0.51100000000E-03 0.  1.
         11   -1    0    0    0    0 -0.00000000000E+00 -0.00000000000E+00 -0.45593999997E+02  0.45594000000E+02  0.51100000000E-03 0. -1.
    9900012    2    1    2    0    0  0.16273387053E+02  0.21282118099E+02 -0.34144863162E+02  0.47787270083E+02  0.19999995617E+02 0.  0.
        -12    1    1    2    0    0 -0.16273387053E+02 -0.21282118099E+02  0.34144863162E+02  0.43400729917E+02  0.00000000000E+00 0.  1.
         11    1    3    3    0    0  0.62402744150E+00  0.47437022435E+01 -0.50886036686E+01  0.69846981881E+01  0.51100000000E-03 0. -1.
        -11    1    3    3    0    0  0.11846030176E+01  0.71590459535E+01 -0.28529631436E+00  0.72619981769E+01  0.51100000000E-03 0.  1.
        -12    1    3    3    0    0  0.14464756593E+02  0.93793699022E+01 -0.28770963179E+02  0.33540573718E+02  0.00000000000E+00 0.  1.
</event>
<event>
 7    1  0.2497395E-009  0.4778727E+02  0.7816164E-02  0.1312668E+00
        -11   -1    0    0    0    0  0.00000000000E+00  0.00000000000E+00  0.45593999997E+02  0.45594000000E+02  0.51100000000E-03 0. -1.
         11   -1    0    0    0    0 -0.00000000000E+00 -0.00000000000E+00 -0.45593999997E+02  0.45594000000E+02  0.51100000000E-03 0.  1.
    9900012    2    1    2    0    0  0.42219928596E+02 -0.66193363584E+00  0.10033082259E+02  0.47787271130E+02  0.20000000391E+02 0.  0.
        -12    1    1    2    0    0 -0.42219928596E+02  0.66193363584E+00 -0.10033082259E+02  0.43400728870E+02  0.00000000000E+00 0.  1.
         11    1    3    3    0    0  0.19603915384E+02 -0.28641403393E+01  0.81924400110E+01  0.21439050162E+02  0.51100000000E-03 0. -1.
        -11    1    3    3    0    0  0.12195881752E+02 -0.22183483333E+01 -0.47212984820E+01  0.13264662101E+02  0.51100000000E-03 0.  1.
        -12    1    3    3    0    0  0.10420131460E+02  0.44205550367E+01  0.65619407298E+01  0.13083558867E+02  0.00000000000E+00 0.  1.
</event>
<event>
 7    1  0.2497395E-009  0.4778726E+02  0.7816164E-02  0.1312668E+00
        -11   -1    0    0    0    0  0.00000000000E+00  0.00000000000E+00  0.45593999997E+02  0.45594000000E+02  0.51100000000E-03 0.  1.
         11   -1    0    0    0    0 -0.00000000000E+00 -0.00000000000E+00 -0.45593999997E+02  0.45594000000E+02  0.51100000000E-03 0. -1.
    9900012    2    1    2    0    0  0.99549083208E+01  0.85657839328E+01 -0.41366064773E+02  0.47787260734E+02  0.19999952989E+02 0.  0.
        -12    1    1    2    0    0 -0.99549083208E+01 -0.85657839328E+01  0.41366064773E+02  0.43400739266E+02  0.00000000000E+00 0.  1.
         11    1    3    3    0    0  0.85880566336E+00  0.35327800103E+01 -0.21818841248E+02  0.22119672589E+02  0.51100000000E-03 0. -1.
        -11    1    3    3    0    0  0.50344102973E+01  0.13040764575E+01  0.16052387068E+00  0.52030443610E+01  0.51100000000E-03 0.  1.
        -12    1    3    3    0    0  0.40616923601E+01  0.37289274650E+01 -0.19707747396E+02  0.20464543784E+02  0.00000000000E+00 0.  1.
</event>
<event>
 7    1  0.2497395E-009  0.4778727E+02  0.7816164E-02  0.1312668E+00
        -11   -1    0    0    0    0  0.00000000000E+00  0.00000000000E+00  0.45593999997E+02  0.45594000000E+02  0.51100000000E-03 0.  1.
         11   -1    0    0    0    0 -0.00000000000E+00 -0.00000000000E+00 -0.45593999997E+02  0.45594000000E+02  0.51100000000E-03 0. -1.
    9900012    2    1    2    0    0  0.37282807873E+01 -0.29766940142E+02 -0.31363234313E+02  0.47787271094E+02  0.20000000225E+02 0.  0.
        -12    1    1    2    0    0 -0.37282807873E+01  0.29766940142E+02  0.31363234313E+02  0.43400728906E+02  0.00000000000E+00 0.  1.
         11    1    3    3    0    0 -0.20826461513E+01 -0.11513954117E+02 -0.10154757564E+01  0.11744775250E+02  0.51100000000E-03 0. -1.
        -11    1    3    3    0    0  0.72544137916E+00 -0.55312533005E+01 -0.11018006010E+02  0.12349796960E+02  0.51100000000E-03 0.  1.
         12    1    3    3    0    0  0.50854855594E+01 -0.12721732725E+02 -0.19329752547E+02  0.23692698884E+02  0.00000000000E+00 0. -1.
</event>
<event>
 7    1  0.2497395E-009  0.4778727E+02  0.7816164E-02  0.1312668E+00
        -11   -1    0    0    0    0  0.00000000000E+00  0.00000000000E+00  0.45593999997E+02  0.45594000000E+02  0.51100000000E-03 0. -1.
         11   -1    0    0    0    0 -0.00000000000E+00 -0.00000000000E+00 -0.45593999997E+02  0.45594000000E+02  0.51100000000E-03 0.  1.
    9900012    2    1    2    0    0  0.41678759452E+01 -0.43118448422E+02  0.26554814713E+01  0.47787269982E+02  0.19999995158E+02 0.  0.
        -12    1    1    2    0    0 -0.41678759452E+01  0.43118448422E+02 -0.26554814713E+01  0.43400730018E+02  0.00000000000E+00 0.  1.
         11    1    3    3    0    0  0.31040307633E+01 -0.86433225678E+01  0.76079033959E+01  0.11925696052E+02  0.51100000000E-03 0. -1.
        -11    1    3    3    0    0 -0.33933362252E+01 -0.13595670738E+02 -0.36058782836E+01  0.14469255406E+02  0.51100000000E-03 0.  1.
        -12    1    3    3    0    0  0.44571814071E+01 -0.20879455116E+02 -0.13465436410E+01  0.21392318524E+02  0.00000000000E+00 0.  1.
</event>
<event>
 7    1  0.2497395E-009  0.4778727E+02  0.7816164E-02  0.1312668E+00
        -11   -1    0    0    0    0  0.00000000000E+00  0.00000000000E+00  0.45593999997E+02  0.45594000000E+02  0.51100000000E-03 0.  1.
         11   -1    0    0    0    0 -0.00000000000E+00 -0.00000000000E+00 -0.45593999997E+02  0.45594000000E+02  0.51100000000E-03 0. -1.
    9900012    2    1    2    0    0  0.12816759164E+02 -0.26877541578E+02 -0.31574550145E+02  0.47787265287E+02  0.19999973751E+02 0.  0.
        -12    1    1    2    0    0 -0.12816759164E+02  0.26877541578E+02  0.31574550145E+02  0.43400734713E+02  0.00000000000E+00 0.  1.
         11    1    3    3    0    0  0.87158158117E+01 -0.24290723858E+02 -0.23188616424E+02  0.34694619795E+02  0.51100000000E-03 0. -1.
        -11    1    3    3    0    0  0.24570896406E+01  0.17814605388E+01  0.48052956480E+00  0.30727512227E+01  0.51100000000E-03 0.  1.
        -12    1    3    3    0    0  0.16438537122E+01 -0.43682782584E+01 -0.88664632856E+01  0.10019894269E+02  0.00000000000E+00 0.  1.
</event>
<event>
 7    1  0.2497395E-009  0.4778727E+02  0.7816164E-02  0.1312668E+00
        -11   -1    0    0    0    0  0.00000000000E+00  0.00000000000E+00  0.45593999997E+02  0.45594000000E+02  0.51100000000E-03 0.  1.
         11   -1    0    0    0    0 -0.00000000000E+00 -0.00000000000E+00 -0.45593999997E+02  0.45594000000E+02  0.51100000000E-03 0. -1.
    9900012    2    1    2    0    0  0.84621426967E+01 -0.85900009856E+01 -0.41692052316E+02  0.47787271869E+02  0.20000003762E+02 0.  0.
        -12    1    1    2    0    0 -0.84621426967E+01  0.85900009856E+01  0.41692052316E+02  0.43400728131E+02  0.00000000000E+00 0.  1.
         11    1    3    3    0    0  0.63255026988E+01 -0.89764946157E+01 -0.17393733660E+02  0.20570158261E+02  0.51100000000E-03 0. -1.
        -11    1    3    3    0    0  0.23171421940E+01  0.61025864463E+01 -0.12264068895E+02  0.13893095242E+02  0.51100000000E-03 0.  1.
         12    1    3    3    0    0 -0.18050219605E+00 -0.57160928163E+01 -0.12034249761E+02  0.13324018367E+02  0.00000000000E+00 0. -1.
</event>
<event>
 7    1  0.2497395E-009  0.4778727E+02  0.7816164E-02  0.1312668E+00
        -11   -1    0    0    0    0  0.00000000000E+00  0.00000000000E+00  0.45593999997E+02  0.45594000000E+02  0.51100000000E-03 0.  1.
         11   -1    0    0    0    0 -0.00000000000E+00 -0.00000000000E+00 -0.45593999997E+02  0.45594000000E+02  0.51100000000E-03 0. -1.
    9900012    2    1    2    0    0  0.16331572748E+02 -0.36192734169E+02 -0.17521104618E+02  0.47787269798E+02  0.19999994317E+02 0.  0.
        -12    1    1    2    0    0 -0.16331572748E+02  0.36192734169E+02  0.17521104618E+02  0.43400730202E+02  0.00000000000E+00 0.  1.
         11    1    3    3    0    0  0.28127158443E+01 -0.97748174259E+01 -0.47488166713E+01  0.11225403608E+02  0.51100000000E-03 0. -1.
        -11    1    3    3    0    0  0.14824372267E+01 -0.81605418579E+01  0.38006193609E+01  0.91234188401E+01  0.51100000000E-03 0.  1.
        -12    1    3    3    0    0  0.12036419677E+02 -0.18257374885E+02 -0.16572907307E+02  0.27438447350E+02  0.00000000000E+00 0.  1.
</event>
<event>
 7    1  0.2497395E-009  0.4778727E+02  0.7816164E-02  0.1312668E+00
        -11   -1    0    0    0    0  0.00000000000E+00  0.00000000000E+00  0.45593999997E+02  0.45594000000E+02  0.51100000000E-03 0.  1.
         11   -1    0    0    0    0 -0.00000000000E+00 -0.00000000000E+00 -0.45593999997E+02  0.45594000000E+02  0.51100000000E-03 0. -1.
    9900012    2    1    2    0    0 -0.17597754296E+02 -0.87530730799E+01 -0.38695301467E+02  0.47787267285E+02  0.19999982857E+02 0.  0.
        -12    1    1    2    0    0  0.17597754296E+02  0.87530730799E+01  0.38695301467E+02  0.43400732715E+02  0.00000000000E+00 0.  1.
         11    1    3    3    0    0 -0.73150408438E+01  0.18691315097E+01 -0.34274547455E+01  0.82916175406E+01  0.51100000000E-03 0.  1.
        -11    1    3    3    0    0 -0.77810481593E+01 -0.13894930254E+01 -0.19664472738E+02  0.21193557739E+02  0.51100000000E-03 0. -1.
         12    1    3    3    0    0 -0.25016652927E+01 -0.92327115643E+01 -0.15603373984E+02  0.18302092005E+02  0.00000000000E+00 0. -1.
</event>
<event>
 7    1  0.2497395E-009  0.4778727E+02  0.7816164E-02  0.1312668E+00
        -11   -1    0    0    0    0  0.00000000000E+00  0.00000000000E+00  0.45593999997E+02  0.45594000000E+02  0.51100000000E-03 0.  1.
         11   -1    0    0    0    0 -0.00000000000E+00 -0.00000000000E+00 -0.45593999997E+02  0.45594000000E+02  0.51100000000E-03 0. -1.
    9900012    2    1    2    0    0  0.19282839319E+02 -0.45510704516E+01 -0.38614546636E+02  0.47787270210E+02  0.19999996193E+02 0.  0.
        -12    1    1    2    0    0 -0.19282839319E+02  0.45510704516E+01  0.38614546636E+02  0.43400729790E+02  0.00000000000E+00 0.  1.
         11    1    3    3    0    0  0.19932163908E+02 -0.70833426511E+01 -0.27001999353E+02  0.34301208003E+02  0.51100000000E-03 0. -1.
        -11    1    3    3    0    0  0.11028571118E+01  0.41916215797E+01 -0.62530553617E+01  0.76083300989E+01  0.51100000000E-03 0.  1.
        -12    1    3    3    0    0 -0.17521817001E+01 -0.16593493802E+01 -0.53594919213E+01  0.58777321077E+01  0.00000000000E+00 0.  1.
</event>
<event>
 7    1  0.2497395E-009  0.4778727E+02  0.7816164E-02  0.1312668E+00
        -11   -1    0    0    0    0  0.00000000000E+00  0.00000000000E+00  0.45593999997E+02  0.45594000000E+02  0.51100000000E-03 0.  1.
         11   -1    0    0    0    0 -0.00000000000E+00 -0.00000000000E+00 -0.45593999997E+02  0.45594000000E+02  0.51100000000E-03 0. -1.
    9900012    2    1    2    0    0 -0.28606218570E+01 -0.35875342806E+02 -0.24256956305E+02  0.47787270651E+02  0.19999998207E+02 0.  0.
        -12    1    1    2    0    0  0.28606218570E+01  0.35875342806E+02  0.24256956305E+02  0.43400729349E+02  0.00000000000E+00 0.  1.
         11    1    3    3    0    0 -0.99852204311E+01 -0.24381326610E+02 -0.15620993383E+02  0.30629546991E+02  0.51100000000E-03 0. -1.
        -11    1    3    3    0    0  0.66002245269E+01 -0.12238833847E+02 -0.82509810798E+01  0.16168818966E+02  0.51100000000E-03 0.  1.
        -12    1    3    3    0    0  0.52437404728E+00  0.74481765103E+00 -0.38498184256E+00  0.98890469402E+00  0.00000000000E+00 0.  1.
</event>
<event>
 7    1  0.2497395E-009  0.4778727E+02  0.7816164E-02  0.1312668E+00
        -11   -1    0    0    0    0  0.00000000000E+00  0.00000000000E+00  0.45593999997E+02  0.45594000000E+02  0.51100000000E-03 0.  1.
         11   -1    0    0    0    0 -0.00000000000E+00 -0.00000000000E+00 -0.45593999997E+02  0.45594000000E+02  0.51100000000E-03 0. -1.
    9900012    2    1    2    0    0  0.35231611984E+02  0.21405817957E+02 -0.13570113877E+02  0.47787268255E+02  0.19999987282E+02 0.  0.
        -12    1    1    2    0    0 -0.35231611984E+02 -0.21405817957E+02  0.13570113877E+02  0.43400731745E+02  0.00000000000E+00 0.  1.
         11    1    3    3    0    0  0.17349414393E+02  0.16037414133E+02 -0.63964043816E+01  0.24476822120E+02  0.51100000000E-03 0. -1.
        -11    1    3    3    0    0  0.18451802438E+02  0.37218329740E+01 -0.89320130772E+01  0.20835112473E+02  0.51100000000E-03 0.  1.
        -12    1    3    3    0    0 -0.56960484755E+00  0.16465708503E+01  0.17583035821E+01  0.24753336612E+01  0.00000000000E+00 0.  1.
</event>
<event>
 7    1  0.2497395E-009  0.4778727E+02  0.7816164E-02  0.1312668E+00
        -11   -1    0    0    0    0  0.00000000000E+00  0.00000000000E+00  0.45593999997E+02  0.45594000000E+02  0.51100000000E-03 0.  1.
         11   -1    0    0    0    0 -0.00000000000E+00 -0.00000000000E+00 -0.45593999997E+02  0.45594000000E+02  0.51100000000E-03 0. -1.
    9900012    2    1    2    0    0 -0.12849033621E+02  0.24648508079E+02 -0.33331315345E+02  0.47787271917E+02  0.20000003977E+02 0.  0.
        -12    1    1    2    0    0  0.12849033621E+02 -0.24648508079E+02  0.33331315345E+02  0.43400728083E+02  0.00000000000E+00 0.  1.
         11    1    3    3    0    0  0.99038284738E+00 -0.12345328115E+01 -0.62808780299E+01  0.64772184258E+01  0.51100000000E-03 0. -1.
        -11    1    3    3    0    0 -0.37040399703E+01  0.13206264268E+02 -0.66561519696E+01  0.15245644864E+02  0.51100000000E-03 0.  1.
         12    1    3    3    0    0 -0.10135376498E+02  0.12676776623E+02 -0.20394285346E+02  0.26064408627E+02  0.00000000000E+00 0. -1.
</event>
<event>
 7    1  0.2497395E-009  0.4778728E+02  0.7816164E-02  0.1312668E+00
        -11   -1    0    0    0    0  0.00000000000E+00  0.00000000000E+00  0.45593999997E+02  0.45594000000E+02  0.51100000000E-03 0.  1.
         11   -1    0    0    0    0 -0.00000000000E+00 -0.00000000000E+00 -0.45593999997E+02  0.45594000000E+02  0.51100000000E-03 0. -1.
    9900012    2    1    2    0    0 -0.88365594442E+01  0.28576614955E+02 -0.31447018371E+02  0.47787278008E+02  0.20000031747E+02 0.  0.
        -12    1    1    2    0    0  0.88365594442E+01 -0.28576614955E+02  0.31447018371E+02  0.43400721992E+02  0.00000000000E+00 0.  1.
         11    1    3    3    0    0 -0.20526383374E+01  0.73752771592E+01 -0.35007903097E+01  0.84180502714E+01  0.51100000000E-03 0. -1.
        -11    1    3    3    0    0  0.17854997979E+01  0.17863092200E+02 -0.22096091035E+02  0.28469550607E+02  0.51100000000E-03 0.  1.
        -12    1    3    3    0    0 -0.85694209047E+01  0.33382455951E+01 -0.58501370260E+01  0.10899677129E+02  0.00000000000E+00 0.  1.
</event>
<event>
 7    1  0.2497395E-009  0.4778727E+02  0.7816164E-02  0.1312668E+00
        -11   -1    0    0    0    0  0.00000000000E+00  0.00000000000E+00  0.45593999997E+02  0.45594000000E+02  0.51100000000E-03 0.  1.
         11   -1    0    0    0    0 -0.00000000000E+00 -0.00000000000E+00 -0.45593999997E+02  0.45594000000E+02  0.51100000000E-03 0. -1.
    9900012    2    1    2    0    0 -0.93047252016E+01 -0.32004445305E+02 -0.27798575227E+02  0.47787271722E+02  0.20000003091E+02 0.  0.
        -12    1    1    2    0    0  0.93047252016E+01  0.32004445305E+02  0.27798575227E+02  0.43400728278E+02  0.00000000000E+00 0.  1.
         11    1    3    3    0    0 -0.36700861623E+01 -0.24212707715E+02 -0.10861210422E+02  0.26789748775E+02  0.51100000000E-03 0. -1.
        -11    1    3    3    0    0 -0.69874550735E+01 -0.65534000525E+01 -0.16550675469E+02  0.19123191141E+02  0.51100000000E-03 0.  1.
        -12    1    3    3    0    0  0.13528160341E+01 -0.12383375371E+01 -0.38668933543E+00  0.18743318063E+01  0.00000000000E+00 0.  1.
</event>
<event>
 7    1  0.2497395E-009  0.4778727E+02  0.7816164E-02  0.1312668E+00
        -11   -1    0    0    0    0  0.00000000000E+00  0.00000000000E+00  0.45593999997E+02  0.45594000000E+02  0.51100000000E-03 0. -1.
         11   -1    0    0    0    0 -0.00000000000E+00 -0.00000000000E+00 -0.45593999997E+02  0.45594000000E+02  0.51100000000E-03 0.  1.
    9900012    2    1    2    0    0 -0.24804191750E+02  0.20900256162E+02  0.28836686800E+02  0.47787272569E+02  0.20000006949E+02 0.  0.
        -12    1    1    2    0    0  0.24804191750E+02 -0.20900256162E+02 -0.28836686800E+02  0.43400727431E+02  0.00000000000E+00 0.  1.
         11    1    3    3    0    0 -0.15203786194E+02  0.23200803371E+02  0.20959974434E+02  0.34767124129E+02  0.51100000000E-03 0. -1.
        -11    1    3    3    0    0 -0.75141499265E+01 -0.11861949253E+01  0.73892727916E+01  0.10605227964E+02  0.51100000000E-03 0.  1.
         12    1    3    3    0    0 -0.20862556297E+01 -0.11143522836E+01  0.48743957397E+00  0.24149204754E+01  0.00000000000E+00 0. -1.
</event>
<event>
 7    1  0.2497395E-009  0.4778727E+02  0.7816164E-02  0.1312668E+00
        -11   -1    0    0    0    0  0.00000000000E+00  0.00000000000E+00  0.45593999997E+02  0.45594000000E+02  0.51100000000E-03 0.  1.
         11   -1    0    0    0    0 -0.00000000000E+00 -0.00000000000E+00 -0.45593999997E+02  0.45594000000E+02  0.51100000000E-03 0. -1.
    9900012    2    1    2    0    0  0.21089358287E+02 -0.12614617713E+02 -0.35773366662E+02  0.47787269875E+02  0.19999994670E+02 0.  0.
        -12    1    1    2    0    0 -0.21089358287E+02  0.12614617713E+02  0.35773366662E+02  0.43400730125E+02  0.00000000000E+00 0.  1.
         11    1    3    3    0    0  0.87685120220E+01 -0.10274440277E+02 -0.30917684809E+02  0.33739504447E+02  0.51100000000E-03 0. -1.
        -11    1    3    3    0    0  0.60043440581E+01  0.91823289007E+00 -0.21893123470E+01  0.64566545534E+01  0.51100000000E-03 0.  1.
         12    1    3    3    0    0  0.63165022067E+01 -0.32584103258E+01 -0.26663695060E+01  0.75911108753E+01  0.00000000000E+00 0. -1.
</event>
<event>
 7    1  0.2497395E-009  0.4778727E+02  0.7816164E-02  0.1312668E+00
        -11   -1    0    0    0    0  0.00000000000E+00  0.00000000000E+00  0.45593999997E+02  0.45594000000E+02  0.51100000000E-03 0.  1.
         11   -1    0    0    0    0 -0.00000000000E+00 -0.00000000000E+00 -0.45593999997E+02  0.45594000000E+02  0.51100000000E-03 0. -1.
    9900012    2    1    2    0    0  0.75445028795E+01 -0.19398025975E+02 -0.38084384315E+02  0.47787271158E+02  0.20000000517E+02 0.  0.
        -12    1    1    2    0    0 -0.75445028795E+01  0.19398025975E+02  0.38084384315E+02  0.43400728842E+02  0.00000000000E+00 0.  1.
         11    1    3    3    0    0 -0.47749059736E+00 -0.84912259421E+01 -0.21259515560E+02  0.22897508977E+02  0.51100000000E-03 0. -1.
        -11    1    3    3    0    0  0.97004593720E+01 -0.50415084086E+01 -0.60166371828E+01  0.12478607387E+02  0.51100000000E-03 0.  1.
        -12    1    3    3    0    0 -0.16784658952E+01 -0.58652916242E+01 -0.10808231572E+02  0.12411154794E+02  0.00000000000E+00 0.  1.
</event>
<event>
 7    1  0.2497395E-009  0.4778727E+02  0.7816164E-02  0.1312668E+00
        -11   -1    0    0    0    0  0.00000000000E+00  0.00000000000E+00  0.45593999997E+02  0.45594000000E+02  0.51100000000E-03 0. -1.
         11   -1    0    0    0    0 -0.00000000000E+00 -0.00000000000E+00 -0.45593999997E+02  0.45594000000E+02  0.51100000000E-03 0.  1.
    9900012    2    1    2    0    0 -0.23188305221E+02 -0.89938240350E+01  0.35567356625E+02  0.47787271584E+02  0.20000002460E+02 0.  0.
        -12    1    1    2    0    0  0.23188305221E+02  0.89938240350E+01 -0.35567356625E+02  0.43400728416E+02  0.00000000000E+00 0.  1.
         11    1    3    3    0    0 -0.79810498950E+01 -0.29024504271E+01  0.50113713602E+01  0.98607920108E+01  0.51100000000E-03 0. -1.
        -11    1    3    3    0    0 -0.10897811975E+02 -0.96443136906E+01  0.13034911678E+02  0.19536735017E+02  0.51100000000E-03 0.  1.
        -12    1    3    3    0    0 -0.43094433507E+01  0.35529400827E+01  0.17521073586E+02  0.18389744556E+02  0.00000000000E+00 0.  1.
</event>
<event>
 7    1  0.2497395E-009  0.4778727E+02  0.7816164E-02  0.1312668E+00
        -11   -1    0    0    0    0  0.00000000000E+00  0.00000000000E+00  0.45593999997E+02  0.45594000000E+02  0.51100000000E-03 0.  1.
         11   -1    0    0    0    0 -0.00000000000E+00 -0.00000000000E+00 -0.45593999997E+02  0.45594000000E+02  0.51100000000E-03 0. -1.
    9900012    2    1    2    0    0 -0.31058464302E+02  0.18676896840E+02 -0.23878205781E+02  0.47787269687E+02  0.19999993811E+02 0.  0.
        -12    1    1    2    0    0  0.31058464302E+02 -0.18676896840E+02  0.23878205781E+02  0.43400730313E+02  0.00000000000E+00 0.  1.
         11    1    3    3    0    0 -0.26930630631E+01  0.54460688583E-01 -0.15999523749E+00  0.26983612370E+01  0.51100000000E-03 0. -1.
        -11    1    3    3    0    0 -0.11493800597E+02  0.75898832625E+01  0.24305397949E+00  0.13775806895E+02  0.51100000000E-03 0.  1.
        -12    1    3    3    0    0 -0.16871600642E+02  0.11032552889E+02 -0.23961264523E+02  0.31313101556E+02  0.00000000000E+00 0.  1.
</event>
<event>
 7    1  0.2497395E-009  0.4778727E+02  0.7816164E-02  0.1312668E+00
        -11   -1    0    0    0    0  0.00000000000E+00  0.00000000000E+00  0.45593999997E+02  0.45594000000E+02  0.51100000000E-03 0.  1.
         11   -1    0    0    0    0 -0.00000000000E+00 -0.00000000000E+00 -0.45593999997E+02  0.45594000000E+02  0.51100000000E-03 0. -1.
    9900012    2    1    2    0    0 -0.32213195885E+02 -0.82194722086E+01 -0.27899347731E+02  0.47787270555E+02  0.19999997769E+02 0.  0.
        -12    1    1    2    0    0  0.32213195885E+02  0.82194722086E+01  0.27899347731E+02  0.43400729445E+02  0.00000000000E+00 0.  1.
         11    1    3    3    0    0 -0.19339402179E+02 -0.86278051557E+01 -0.10045344472E+02  0.23438439459E+02  0.51100000000E-03 0. -1.
        -11    1    3    3    0    0  0.68011788027E+00 -0.12843029472E+01 -0.62784425332E+01  0.64444422020E+01  0.51100000000E-03 0.  1.
        -12    1    3    3    0    0 -0.13553911587E+02  0.16926358942E+01 -0.11575560726E+02  0.17904388895E+02  0.00000000000E+00 0.  1.
</event>
<event>
 7    1  0.2497395E-009  0.4778732E+02  0.7816164E-02  0.1312668E+00
        -11   -1    0    0    0    0  0.00000000000E+00  0.00000000000E+00  0.45593999997E+02  0.45594000000E+02  0.51100000000E-03 0. -1.
         11   -1    0    0    0    0 -0.00000000000E+00 -0.00000000000E+00 -0.45593999997E+02  0.45594000000E+02  0.51100000000E-03 0.  1.
    9900012    2    1    2    0    0  0.10251387691E+02 -0.41094015773E+02  0.94768061255E+01  0.47787321016E+02  0.20000227837E+02 0.  0.
        -12    1    1    2    0    0 -0.10251387691E+02  0.41094015773E+02 -0.94768061255E+01  0.43400678984E+02  0.00000000000E+00 0.  1.
         11    1    3    3    0    0  0.12253918969E+02 -0.11983171594E+02  0.22615438550E+01  0.17287842908E+02  0.51100000000E-03 0. -1.
        -11    1    3    3    0    0  0.65913747840E+00 -0.11111958237E+01  0.11442585136E+01  0.17258465114E+01  0.51100000000E-03 0.  1.
         12    1    3    3    0    0 -0.26616687559E+01 -0.27999648355E+02  0.60710037569E+01  0.28773631596E+02  0.00000000000E+00 0. -1.
</event>
<event>
 7    1  0.2497395E-009  0.4778727E+02  0.7816164E-02  0.1312668E+00
        -11   -1    0    0    0    0  0.00000000000E+00  0.00000000000E+00  0.45593999997E+02  0.45594000000E+02  0.51100000000E-03 0.  1.
         11   -1    0    0    0    0 -0.00000000000E+00 -0.00000000000E+00 -0.45593999997E+02  0.45594000000E+02  0.51100000000E-03 0. -1.
    9900012    2    1    2    0    0 -0.29544585174E+02  0.64416043297E+01 -0.31132719462E+02  0.47787274193E+02  0.20000014358E+02 0.  0.
        -12    1    1    2    0    0  0.29544585174E+02 -0.64416043297E+01  0.31132719462E+02  0.43400725807E+02  0.00000000000E+00 0.  1.
         11    1    3    3    0    0 -0.23583216768E+02  0.10385149178E+02 -0.18984728503E+02  0.32006864157E+02  0.51100000000E-03 0. -1.
        -11    1    3    3    0    0  0.15868733647E+01 -0.98848303126E+00 -0.32046579710E+01  0.37101346001E+01  0.51100000000E-03 0.  1.
         12    1    3    3    0    0 -0.75482417708E+01 -0.29550618175E+01 -0.89433329881E+01  0.12070275436E+02  0.00000000000E+00 0. -1.
</event>
<event>
 7    1  0.2497395E-009  0.4778727E+02  0.7816164E-02  0.1312668E+00
        -11   -1    0    0    0    0  0.00000000000E+00  0.00000000000E+00  0.45593999997E+02  0.45594000000E+02  0.51100000000E-03 0. -1.
         11   -1    0    0    0    0 -0.00000000000E+00 -0.00000000000E+00 -0.45593999997E+02  0.45594000000E+02  0.51100000000E-03 0.  1.
    9900012    2    1    2    0    0 -0.12607098893E+02 -0.40808658455E+02 -0.77030966050E+01  0.47787271380E+02  0.20000001531E+02 0.  0.
        -12    1    1    2    0    0  0.12607098893E+02  0.40808658455E+02  0.77030966050E+01  0.43400728620E+02  0.00000000000E+00 0.  1.
         11    1    3    3    0    0 -0.12434389537E+02 -0.34720050012E+02 -0.99907006164E+01  0.38208768824E+02  0.51100000000E-03 0. -1.
        -11    1    3    3    0    0  0.42771407980E+00 -0.57158553004E+01 -0.13369500898E+01  0.58856925636E+01  0.51100000000E-03 0.  1.
         12    1    3    3    0    0 -0.60042343569E+00 -0.37275314319E+00  0.36245541012E+01  0.36928099925E+01  0.00000000000E+00 0. -1.
</event>
<event>
 7    1  0.2497395E-009  0.4778727E+02  0.7816164E-02  0.1312668E+00
        -11   -1    0    0    0    0  0.00000000000E+00  0.00000000000E+00  0.45593999997E+02  0.45594000000E+02  0.51100000000E-03 0. -1.
         11   -1    0    0    0    0 -0.00000000000E+00 -0.00000000000E+00 -0.45593999997E+02  0.45594000000E+02  0.51100000000E-03 0.  1.
    9900012    2    1    2    0    0  0.23470732169E+02  0.36492921056E+02  0.10073190166E+01  0.47787271350E+02  0.20000001395E+02 0.  0.
        -12    1    1    2    0    0 -0.23470732169E+02 -0.36492921056E+02 -0.10073190166E+01  0.43400728650E+02  0.00000000000E+00 0.  1.
         11    1    3    3    0    0  0.55870639597E+01  0.22432404520E+02 -0.22432143582E+01  0.23226279667E+02  0.51100000000E-03 0. -1.
        -11    1    3    3    0    0  0.10056305319E+02  0.57487309798E+01 -0.23883750798E+01  0.11827151827E+02  0.51100000000E-03 0.  1.
         12    1    3    3    0    0  0.78273628897E+01  0.83117855562E+01  0.56389084546E+01  0.12733839857E+02  0.00000000000E+00 0. -1.
</event>
<event>
 7    1  0.2497395E-009  0.4778727E+02  0.7816164E-02  0.1312668E+00
        -11   -1    0    0    0    0  0.00000000000E+00  0.00000000000E+00  0.45593999997E+02  0.45594000000E+02  0.51100000000E-03 0. -1.
         11   -1    0    0    0    0 -0.00000000000E+00 -0.00000000000E+00 -0.45593999997E+02  0.45594000000E+02  0.51100000000E-03 0.  1.
    9900012    2    1    2    0    0 -0.35983402838E+02  0.23602917293E+02 -0.56321102427E+01  0.47787266708E+02  0.19999980228E+02 0.  0.
        -12    1    1    2    0    0  0.35983402838E+02 -0.23602917293E+02  0.56321102427E+01  0.43400733292E+02  0.00000000000E+00 0.  1.
         11    1    3    3    0    0 -0.80822393819E+01  0.53182632454E+01 -0.45546515208E+01  0.10693519912E+02  0.51100000000E-03 0. -1.
        -11    1    3    3    0    0 -0.19687951360E+02  0.32859302273E+01 -0.11148155613E-01  0.19960282833E+02  0.51100000000E-03 0.  1.
        -12    1    3    3    0    0 -0.82132120956E+01  0.14998723820E+02 -0.10663105662E+01  0.17133463963E+02  0.00000000000E+00 0.  1.
</event>
<event>
 7    1  0.2497395E-009  0.4778727E+02  0.7816164E-02  0.1312668E+00
        -11   -1    0    0    0    0  0.00000000000E+00  0.00000000000E+00  0.45593999997E+02  0.45594000000E+02  0.51100000000E-03 0.  1.
         11   -1    0    0    0    0 -0.00000000000E+00 -0.00000000000E+00 -0.45593999997E+02  0.45594000000E+02  0.51100000000E-03 0. -1.
    9900012    2    1    2    0    0  0.35182102831E+02 -0.92783149225E+01 -0.23659167814E+02  0.47787266031E+02  0.19999977141E+02 0.  0.
        -12    1    1    2    0    0 -0.35182102831E+02  0.92783149225E+01  0.23659167814E+02  0.43400733969E+02  0.00000000000E+00 0.  1.
         11    1    3    3    0    0  0.10829524705E+02  0.15027336344E+01 -0.12734417845E+02  0.16783986768E+02  0.51100000000E-03 0. -1.
        -11    1    3    3    0    0  0.75650683525E+01 -0.36235137763E+01  0.20211173274E+01  0.86281531498E+01  0.51100000000E-03 0.  1.
         12    1    3    3    0    0  0.16787509774E+02 -0.71575347806E+01 -0.12945867296E+02  0.22375126113E+02  0.00000000000E+00 0. -1.
</event>
<event>
 7    1  0.2497395E-009  0.4778727E+02  0.7816164E-02  0.1312668E+00
        -11   -1    0    0    0    0  0.00000000000E+00  0.00000000000E+00  0.45593999997E+02  0.45594000000E+02  0.51100000000E-03 0. -1.
         11   -1    0    0    0    0 -0.00000000000E+00 -0.00000000000E+00 -0.45593999997E+02  0.45594000000E+02  0.51100000000E-03 0.  1.
    9900012    2    1    2    0    0 -0.69890907330E+00 -0.42354191346E+02  0.94475969246E+01  0.47787273207E+02  0.20000009862E+02 0.  0.
        -12    1    1    2    0    0  0.69890907330E+00  0.42354191346E+02 -0.94475969246E+01  0.43400726793E+02  0.00000000000E+00 0.  1.
         11    1    3    3    0    0 -0.62592916095E+01 -0.31157840654E+01  0.43607212716E+00  0.70054979092E+01  0.51100000000E-03 0. -1.
        -11    1    3    3    0    0  0.55808497549E+01 -0.31844775326E+02  0.81227595274E+01  0.33334888963E+02  0.51100000000E-03 0.  1.
         12    1    3    3    0    0 -0.20467218678E-01 -0.73936319548E+01  0.88876527006E+00  0.74468863356E+01  0.00000000000E+00 0. -1.
</event>
<event>
 7    1  0.2497395E-009  0.4778730E+02  0.7816164E-02  0.1312668E+00
        -11   -1    0    0    0    0  0.00000000000E+00  0.00000000000E+00  0.45593999997E+02  0.45594000000E+02  0.51100000000E-03 0. -1.
         11   -1    0    0    0    0 -0.00000000000E+00 -0.00000000000E+00 -0.45593999997E+02  0.45594000000E+02  0.51100000000E-03 0.  1.
    9900012    2    1    2    0    0  0.97378170651E+01  0.36131182744E+02 -0.21984849577E+02  0.47787296566E+02  0.20000116362E+02 0.  0.
        -12    1    1    2    0    0 -0.97378170651E+01 -0.36131182744E+02  0.21984849577E+02  0.43400703434E+02  0.00000000000E+00 0.  1.
         11    1    3    3    0    0 -0.25852260568E+01  0.29314083794E+01 -0.58317622862E+01  0.70203988829E+01  0.51100000000E-03 0. -1.
        -11    1    3    3    0    0 -0.10115388782E+01  0.37875281227E+00 -0.26370804665E+01  0.28497119578E+01  0.51100000000E-03 0.  1.
         12    1    3    3    0    0  0.13334582000E+02  0.32821021552E+02 -0.13516006824E+02  0.37917185725E+02  0.00000000000E+00 0. -1.
</event>
<event>
 7    1  0.2497395E-009  0.4778727E+02  0.7816164E-02  0.1312668E+00
        -11   -1    0    0    0    0  0.00000000000E+00  0.00000000000E+00  0.45593999997E+02  0.45594000000E+02  0.51100000000E-03 0. -1.
         11   -1    0    0    0    0 -0.00000000000E+00 -0.00000000000E+00 -0.45593999997E+02  0.45594000000E+02  0.51100000000E-03 0.  1.
    9900012    2    1    2    0    0 -0.55666836861E+01  0.39245854218E+02  0.17674791579E+02  0.47787270767E+02  0.19999998735E+02 0.  0.
        -12    1    1    2    0    0  0.55666836861E+01 -0.39245854218E+02 -0.17674791579E+02  0.43400729233E+02  0.00000000000E+00 0.  1.
         11    1    3    3    0    0 -0.36795467528E+01  0.60404410246E+01  0.10540096070E+02  0.12693290255E+02  0.51100000000E-03 0. -1.
        -11    1    3    3    0    0  0.26795631282E+01  0.23300100188E+02  0.49026020887E+01  0.23960597547E+02  0.51100000000E-03 0.  1.
         12    1    3    3    0    0 -0.45667000615E+01  0.99053130063E+01  0.22320934206E+01  0.11133382965E+02  0.00000000000E+00 0. -1.
</event>
<event>
 7    1  0.2497395E-009  0.4778727E+02  0.7816164E-02  0.1312668E+00
        -11   -1    0    0    0    0  0.00000000000E+00  0.00000000000E+00  0.45593999997E+02  0.45594000000E+02  0.51100000000E-03 0.  1.
         11   -1    0    0    0    0 -0.00000000000E+00 -0.00000000000E+00 -0.45593999997E+02  0.45594000000E+02  0.51100000000E-03 0. -1.
    9900012    2    1    2    0    0 -0.27727448886E+02 -0.32705838547E+02 -0.67186193286E+01  0.47787272559E+02  0.20000006904E+02 0.  0.
        -12    1    1    2    0    0  0.27727448886E+02  0.32705838547E+02  0.67186193286E+01  0.43400727441E+02  0.00000000000E+00 0.  1.
         11    1    3    3    0    0 -0.86359124893E+01 -0.92253564882E+01 -0.60670405742E+01  0.14017673432E+02  0.51100000000E-03 0. -1.
        -11    1    3    3    0    0 -0.18811605383E+02 -0.24340662723E+02  0.21381014281E+01  0.30836923272E+02  0.51100000000E-03 0.  1.
        -12    1    3    3    0    0 -0.27993101339E+00  0.86018066492E+00 -0.27896801824E+01  0.29326758547E+01  0.00000000000E+00 0.  1.
</event>
<event>
 7    1  0.2497395E-009  0.4778727E+02  0.7816164E-02  0.1312668E+00
        -11   -1    0    0    0    0  0.00000000000E+00  0.00000000000E+00  0.45593999997E+02  0.45594000000E+02  0.51100000000E-03 0.  1.
         11   -1    0    0    0    0 -0.00000000000E+00 -0.00000000000E+00 -0.45593999997E+02  0.45594000000E+02  0.51100000000E-03 0. -1.
    9900012    2    1    2    0    0  0.10411132107E+01 -0.43175580816E+02 -0.42904820667E+01  0.47787274985E+02  0.20000017965E+02 0.  0.
        -12    1    1    2    0    0 -0.10411132107E+01  0.43175580816E+02  0.42904820667E+01  0.43400725015E+02  0.00000000000E+00 0.  1.
         11    1    3    3    0    0  0.41908153476E+01 -0.20784399508E+01  0.67174325453E+00  0.47258951711E+01  0.51100000000E-03 0. -1.
        -11    1    3    3    0    0 -0.58821900126E+01 -0.21925084537E+02 -0.65613730881E+01  0.23629665854E+02  0.51100000000E-03 0.  1.
        -12    1    3    3    0    0  0.27324878757E+01 -0.19172056328E+02  0.15991477669E+01  0.19431713959E+02  0.00000000000E+00 0.  1.
</event>
<event>
 7    1  0.2497395E-009  0.4778727E+02  0.7816164E-02  0.1312668E+00
        -11   -1    0    0    0    0  0.00000000000E+00  0.00000000000E+00  0.45593999997E+02  0.45594000000E+02  0.51100000000E-03 0.  1.
         11   -1    0    0    0    0 -0.00000000000E+00 -0.00000000000E+00 -0.45593999997E+02  0.45594000000E+02  0.51100000000E-03 0. -1.
    9900012    2    1    2    0    0  0.27876071358E+02  0.61368425567E+01 -0.32693836693E+02  0.47787272487E+02  0.20000006578E+02 0.  0.
        -12    1    1    2    0    0 -0.27876071358E+02 -0.61368425567E+01  0.32693836693E+02  0.43400727513E+02  0.00000000000E+00 0.  1.
         11    1    3    3    0    0  0.15891599702E+02  0.11543965970E+02 -0.17821144440E+02  0.26521675679E+02  0.51100000000E-03 0.  1.
        -11    1    3    3    0    0  0.83129305669E+01 -0.36530236955E+01 -0.45220801217E+01  0.10143894992E+02  0.51100000000E-03 0. -1.
        -12    1    3    3    0    0  0.36715410896E+01 -0.17540997176E+01 -0.10350612131E+02  0.11121701816E+02  0.00000000000E+00 0.  1.
</event>
<event>
 7    1  0.2497395E-009  0.4778727E+02  0.7816164E-02  0.1312668E+00
        -11   -1    0    0    0    0  0.00000000000E+00  0.00000000000E+00  0.45593999997E+02  0.45594000000E+02  0.51100000000E-03 0. -1.
         11   -1    0    0    0    0 -0.00000000000E+00 -0.00000000000E+00 -0.45593999997E+02  0.45594000000E+02  0.51100000000E-03 0.  1.
    9900012    2    1    2    0    0 -0.70303839078E+00 -0.40233758073E+02 -0.16259567512E+02  0.47787273193E+02  0.20000009798E+02 0.  0.
        -12    1    1    2    0    0  0.70303839078E+00  0.40233758073E+02  0.16259567512E+02  0.43400726807E+02  0.00000000000E+00 0.  1.
         11    1    3    3    0    0  0.45745769154E+01 -0.24122309707E+02 -0.15077596066E+02  0.28812262718E+02  0.51100000000E-03 0. -1.
        -11    1    3    3    0    0 -0.44814052558E+01 -0.67554526161E+01  0.30684136052E+01  0.86680041202E+01  0.51100000000E-03 0.  1.
        -12    1    3    3    0    0 -0.79621005041E+00 -0.93559957502E+01 -0.42503850517E+01  0.10307006355E+02  0.00000000000E+00 0.  1.
</event>
<event>
 7    1  0.2497395E-009  0.4778727E+02  0.7816164E-02  0.1312668E+00
        -11   -1    0    0    0    0  0.00000000000E+00  0.00000000000E+00  0.45593999997E+02  0.45594000000E+02  0.51100000000E-03 0.  1.
         11   -1    0    0    0    0 -0.00000000000E+00 -0.00000000000E+00 -0.45593999997E+02  0.45594000000E+02  0.51100000000E-03 0. -1.
    9900012    2    1    2    0    0 -0.92984070876E+01 -0.13139892363E+01 -0.42372591271E+02  0.47787269210E+02  0.19999991635E+02 0.  0.
        -12    1    1    2    0    0  0.92984070876E+01  0.13139892363E+01  0.42372591271E+02  0.43400730790E+02  0.00000000000E+00 0.  1.
         11    1    3    3    0    0  0.12537976687E+01  0.14113184778E+01 -0.52517999531E+00  0.19595006324E+01  0.51100000000E-03 0. -1.
        -11    1    3    3    0    0 -0.18562914758E+01 -0.78668704088E+01 -0.23935590359E+02  0.25263530121E+02  0.51100000000E-03 0.  1.
        -12    1    3    3    0    0 -0.86959132805E+01  0.51415626948E+01 -0.17911820917E+02  0.20564238456E+02  0.00000000000E+00 0.  1.
</event>
<event>
 7    1  0.2497395E-009  0.4778727E+02  0.7816164E-02  0.1312668E+00
        -11   -1    0    0    0    0  0.00000000000E+00  0.00000000000E+00  0.45593999997E+02  0.45594000000E+02  0.51100000000E-03 0. -1.
         11   -1    0    0    0    0 -0.00000000000E+00 -0.00000000000E+00 -0.45593999997E+02  0.45594000000E+02  0.51100000000E-03 0.  1.
    9900012    2    1    2    0    0  0.70758475576E+01  0.17218370508E+02  0.39205654802E+02  0.47787271088E+02  0.20000000200E+02 0.  0.
        -12    1    1    2    0    0 -0.70758475576E+01 -0.17218370508E+02 -0.39205654802E+02  0.43400728912E+02  0.00000000000E+00 0.  1.
         11    1    3    3    0    0  0.16774791761E+01  0.58374105712E+01  0.17927544407E+02  0.18928448095E+02  0.51100000000E-03 0. -1.
        -11    1    3    3    0    0  0.29835335093E+01  0.10827827754E+02  0.48311665112E+01  0.12226344351E+02  0.51100000000E-03 0.  1.
        -12    1    3    3    0    0  0.24148348722E+01  0.55313218284E+00  0.16446943884E+02  0.16632478643E+02  0.00000000000E+00 0.  1.
</event>
<event>
 7    1  0.2497395E-009  0.4778728E+02  0.7816164E-02  0.1312668E+00
        -11   -1    0    0    0    0  0.00000000000E+00  0.00000000000E+00  0.45593999997E+02  0.45594000000E+02  0.51100000000E-03 0.  1.
         11   -1    0    0    0    0 -0.00000000000E+00 -0.00000000000E+00 -0.45593999997E+02  0.45594000000E+02  0.51100000000E-03 0. -1.
    9900012    2    1    2    0    0  0.26343043196E+02 -0.18230385799E+02 -0.29280022278E+02  0.47787278856E+02  0.20000035616E+02 0.  0.
        -12    1    1    2    0    0 -0.26343043196E+02  0.18230385799E+02  0.29280022278E+02  0.43400721144E+02  0.00000000000E+00 0.  1.
         11    1    3    3    0    0  0.15886158530E+02 -0.39463048973E+01 -0.11405599168E+02  0.19950715471E+02  0.51100000000E-03 0. -1.
        -11    1    3    3    0    0  0.46177799012E+01 -0.13525825228E+02 -0.81067512994E+01  0.16431410658E+02  0.51100000000E-03 0.  1.
        -12    1    3    3    0    0  0.58391047649E+01 -0.75825567389E+00 -0.97676718106E+01  0.11405152727E+02  0.00000000000E+00 0.  1.
</event>
<event>
 7    1  0.2497395E-009  0.4778727E+02  0.7816164E-02  0.1312668E+00
        -11   -1    0    0    0    0  0.00000000000E+00  0.00000000000E+00  0.45593999997E+02  0.45594000000E+02  0.51100000000E-03 0.  1.
         11   -1    0    0    0    0 -0.00000000000E+00 -0.00000000000E+00 -0.45593999997E+02  0.45594000000E+02  0.51100000000E-03 0. -1.
    9900012    2    1    2    0    0 -0.21441826675E+02  0.12683685325E+02 -0.35538646363E+02  0.47787272012E+02  0.20000004411E+02 0.  0.
        -12    1    1    2    0    0  0.21441826675E+02 -0.12683685325E+02  0.35538646363E+02  0.43400727988E+02  0.00000000000E+00 0.  1.
         11    1    3    3    0    0 -0.11951731667E+02  0.64104828187E+01 -0.18077368772E+02  0.22599323923E+02  0.51100000000E-03 0. -1.
        -11    1    3    3    0    0  0.13683184027E+01 -0.27656526846E+01 -0.52082916068E+00  0.31292799969E+01  0.51100000000E-03 0.  1.
        -12    1    3    3    0    0 -0.10858413410E+02  0.90388551910E+01 -0.16940448430E+02  0.22058668092E+02  0.00000000000E+00 0.  1.
</event>
<event>
 7    1  0.2497395E-009  0.4778727E+02  0.7816164E-02  0.1312668E+00
        -11   -1    0    0    0    0  0.00000000000E+00  0.00000000000E+00  0.45593999997E+02  0.45594000000E+02  0.51100000000E-03 0.  1.
         11   -1    0    0    0    0 -0.00000000000E+00 -0.00000000000E+00 -0.45593999997E+02  0.45594000000E+02  0.51100000000E-03 0. -1.
    9900012    2    1    2    0    0  0.28803836975E+02  0.32394191612E+02  0.21398599173E+01  0.47787266422E+02  0.19999978923E+02 0.  0.
        -12    1    1    2    0    0 -0.28803836975E+02 -0.32394191612E+02 -0.21398599173E+01  0.43400733578E+02  0.00000000000E+00 0.  1.
         11    1    3    3    0    0  0.95560555931E+01  0.17516226918E+02  0.33188047478E+01  0.20227478072E+02  0.51100000000E-03 0. -1.
        -11    1    3    3    0    0  0.68221123681E+01 -0.58283944997E+00  0.26799182890E+01  0.73527465129E+01  0.51100000000E-03 0.  1.
        -12    1    3    3    0    0  0.12425669014E+02  0.15460804143E+02 -0.38588631194E+01  0.20207041837E+02  0.00000000000E+00 0.  1.
</event>
<event>
 7    1  0.2497395E-009  0.4778727E+02  0.7816164E-02  0.1312668E+00
        -11   -1    0    0    0    0  0.00000000000E+00  0.00000000000E+00  0.45593999997E+02  0.45594000000E+02  0.51100000000E-03 0. -1.
         11   -1    0    0    0    0 -0.00000000000E+00 -0.00000000000E+00 -0.45593999997E+02  0.45594000000E+02  0.51100000000E-03 0.  1.
    9900012    2    1    2    0    0 -0.37859698074E+02 -0.13275868952E+02  0.16553479050E+02  0.47787273009E+02  0.20000008957E+02 0.  0.
        -12    1    1    2    0    0  0.37859698074E+02  0.13275868952E+02 -0.16553479050E+02  0.43400726991E+02  0.00000000000E+00 0.  1.
         11    1    3    3    0    0 -0.63762057530E+01 -0.26081223145E+01  0.14265405775E+01  0.70351489034E+01  0.51100000000E-03 0. -1.
        -11    1    3    3    0    0 -0.18591734673E+02 -0.11538455095E+02  0.16982733089E+02  0.27698407311E+02  0.51100000000E-03 0.  1.
        -12    1    3    3    0    0 -0.12891757649E+02  0.87070845757E+00 -0.18557946173E+01  0.13053716795E+02  0.00000000000E+00 0.  1.
</event>
<event>
 7    1  0.2497395E-009  0.4778728E+02  0.7816164E-02  0.1312668E+00
        -11   -1    0    0    0    0  0.00000000000E+00  0.00000000000E+00  0.45593999997E+02  0.45594000000E+02  0.51100000000E-03 0.  1.
         11   -1    0    0    0    0 -0.00000000000E+00 -0.00000000000E+00 -0.45593999997E+02  0.45594000000E+02  0.51100000000E-03 0. -1.
    9900012    2    1    2    0    0  0.58435147728E+01 -0.25789706890E+02 -0.34414627241E+02  0.47787283249E+02  0.20000055646E+02 0.  0.
        -12    1    1    2    0    0 -0.58435147728E+01  0.25789706890E+02  0.34414627241E+02  0.43400716751E+02  0.00000000000E+00 0.  1.
         11    1    3    3    0    0  0.30080343808E+01 -0.44928309347E+01 -0.11498922280E+02  0.12706652372E+02  0.51100000000E-03 0. -1.
        -11    1    3    3    0    0 -0.39127578331E+01 -0.41052805089E+01 -0.12852969667E+02  0.14048552646E+02  0.51100000000E-03 0.  1.
         12    1    3    3    0    0  0.67482382252E+01 -0.17191595446E+02 -0.10062735294E+02  0.21032078231E+02  0.00000000000E+00 0. -1.
</event>
<event>
 7    1  0.2497395E-009  0.4778727E+02  0.7816164E-02  0.1312668E+00
        -11   -1    0    0    0    0  0.00000000000E+00  0.00000000000E+00  0.45593999997E+02  0.45594000000E+02  0.51100000000E-03 0.  1.
         11   -1    0    0    0    0 -0.00000000000E+00 -0.00000000000E+00 -0.45593999997E+02  0.45594000000E+02  0.51100000000E-03 0. -1.
    9900012    2    1    2    0    0  0.15697246394E+02  0.34826217763E+02 -0.20599863294E+02  0.47787270101E+02  0.19999995699E+02 0.  0.
        -12    1    1    2    0    0 -0.15697246394E+02 -0.34826217763E+02  0.20599863294E+02  0.43400729899E+02  0.00000000000E+00 0.  1.
         11    1    3    3    0    0  0.10373114012E+02  0.10038020196E+02 -0.51028545740E+01  0.15310207994E+02  0.51100000000E-03 0. -1.
        -11    1    3    3    0    0 -0.20972072541E+01  0.13156333948E+02 -0.25664594525E+01  0.13567391629E+02  0.51100000000E-03 0.  1.
        -12    1    3    3    0    0  0.74213396360E+01  0.11631863618E+02 -0.12930549268E+02  0.18909670478E+02  0.00000000000E+00 0.  1.
</event>
<event>
 7    1  0.2497395E-009  0.4778728E+02  0.7816164E-02  0.1312668E+00
        -11   -1    0    0    0    0  0.00000000000E+00  0.00000000000E+00  0.45593999997E+02  0.45594000000E+02  0.51100000000E-03 0.  1.
         11   -1    0    0    0    0 -0.00000000000E+00 -0.00000000000E+00 -0.45593999997E+02  0.45594000000E+02  0.51100000000E-03 0. -1.
    9900012    2    1    2    0    0  0.25415390746E+02 -0.21027486506E+02 -0.28205051452E+02  0.47787283382E+02  0.20000056252E+02 0.  0.
        -12    1    1    2    0    0 -0.25415390746E+02  0.21027486506E+02  0.28205051452E+02  0.43400716618E+02  0.00000000000E+00 0.  1.
         11    1    3    3    0    0  0.14881625411E+02 -0.66574002129E+01 -0.12504407362E+02  0.20546142125E+02  0.51100000000E-03 0. -1.
        -11    1    3    3    0    0  0.24709885097E+00 -0.65035807181E+01 -0.12198555170E+02  0.13826147999E+02  0.51100000000E-03 0.  1.
        -12    1    3    3    0    0  0.10286666483E+02 -0.78665055754E+01 -0.35020889198E+01  0.13414993258E+02  0.00000000000E+00 0.  1.
</event>
<event>
 7    1  0.2497395E-009  0.4778727E+02  0.7816164E-02  0.1312668E+00
        -11   -1    0    0    0    0  0.00000000000E+00  0.00000000000E+00  0.45593999997E+02  0.45594000000E+02  0.51100000000E-03 0.  1.
         11   -1    0    0    0    0 -0.00000000000E+00 -0.00000000000E+00 -0.45593999997E+02  0.45594000000E+02  0.51100000000E-03 0. -1.
    9900012    2    1    2    0    0  0.15174763775E+02  0.25116853125E+02 -0.31976456243E+02  0.47787268204E+02  0.19999987050E+02 0.  0.
        -12    1    1    2    0    0 -0.15174763775E+02 -0.25116853125E+02  0.31976456243E+02  0.43400731796E+02  0.00000000000E+00 0.  1.
         11    1    3    3    0    0  0.22587550916E+01  0.31274658938E+01 -0.27459413739E+01  0.47353153824E+01  0.51100000000E-03 0. -1.
        -11    1    3    3    0    0  0.13479225950E+01 -0.31074175272E+01 -0.96467874505E+00  0.35218666007E+01  0.51100000000E-03 0.  1.
        -12    1    3    3    0    0  0.11568086088E+02  0.25096804759E+02 -0.28265836124E+02  0.39530086221E+02  0.00000000000E+00 0.  1.
</event>
<event>
 7    1  0.2497395E-009  0.4778728E+02  0.7816164E-02  0.1312668E+00
        -11   -1    0    0    0    0  0.00000000000E+00  0.00000000000E+00  0.45593999997E+02  0.45594000000E+02  0.51100000000E-03 0. -1.
         11   -1    0    0    0    0 -0.00000000000E+00 -0.00000000000E+00 -0.45593999997E+02  0.45594000000E+02  0.51100000000E-03 0.  1.
    9900012    2    1    2    0    0  0.17120560445E+02  0.27640487627E+02  0.28749128465E+02  0.47787279572E+02  0.20000038880E+02 0.  0.
        -12    1    1    2    0    0 -0.17120560445E+02 -0.27640487627E+02 -0.28749128465E+02  0.43400720428E+02  0.00000000000E+00 0.  1.
         11    1    3    3    0    0  0.11802631677E+02  0.21218625721E+02  0.11394868655E+02  0.26821171188E+02  0.51100000000E-03 0.  1.
        -11    1    3    3    0    0  0.72869701892E+01  0.31842087619E+01  0.12353884298E+02  0.14692092346E+02  0.51100000000E-03 0. -1.
        -12    1    3    3    0    0 -0.19690414204E+01  0.32376531441E+01  0.50003755111E+01  0.62740160383E+01  0.00000000000E+00 0.  1.
</event>
<event>
 7    1  0.2497395E-009  0.4778727E+02  0.7816164E-02  0.1312668E+00
        -11   -1    0    0    0    0  0.00000000000E+00  0.00000000000E+00  0.45593999997E+02  0.45594000000E+02  0.51100000000E-03 0. -1.
         11   -1    0    0    0    0 -0.00000000000E+00 -0.00000000000E+00 -0.45593999997E+02  0.45594000000E+02  0.51100000000E-03 0.  1.
    9900012    2    1    2    0    0 -0.42246910740E+01 -0.40175939749E+02  0.15864084360E+02  0.47787270490E+02  0.19999997474E+02 0.  0.
        -12    1    1    2    0    0  0.42246910740E+01  0.40175939749E+02 -0.15864084360E+02  0.43400729510E+02  0.00000000000E+00 0.  1.
         11    1    3    3    0    0  0.16244985006E+01 -0.33168816751E+02  0.94705535893E+01  0.34532604674E+02  0.51100000000E-03 0. -1.
        -11    1    3    3    0    0 -0.34410968540E+01  0.33230532986E-02 -0.37398443410E-01  0.34413017168E+01  0.51100000000E-03 0.  1.
        -12    1    3    3    0    0 -0.24080927206E+01 -0.70104460511E+01  0.64309292144E+01  0.98133640994E+01  0.00000000000E+00 0.  1.
</event>
<event>
 7    1  0.2497395E-009  0.4778727E+02  0.7816164E-02  0.1312668E+00
        -11   -1    0    0    0    0  0.00000000000E+00  0.00000000000E+00  0.45593999997E+02  0.45594000000E+02  0.51100000000E-03 0. -1.
         11   -1    0    0    0    0 -0.00000000000E+00 -0.00000000000E+00 -0.45593999997E+02  0.45594000000E+02  0.51100000000E-03 0.  1.
    9900012    2    1    2    0    0 -0.88926672743E+01  0.41394802653E+02  0.95401223819E+01  0.47787272437E+02  0.20000006349E+02 0.  0.
        -12    1    1    2    0    0  0.88926672743E+01 -0.41394802653E+02 -0.95401223819E+01  0.43400727563E+02  0.00000000000E+00 0.  1.
         11    1    3    3    0    0 -0.31721013152E+01  0.64870653734E+01  0.78377161778E+01  0.10657112135E+02  0.51100000000E-03 0. -1.
        -11    1    3    3    0    0 -0.61510218489E+01  0.35545236262E+02  0.99827840473E+00  0.36087330890E+02  0.51100000000E-03 0.  1.
        -12    1    3    3    0    0  0.43045588983E+00 -0.63749898234E+00  0.70412779938E+00  0.10428294124E+01  0.00000000000E+00 0.  1.
</event>
<event>
 7    1  0.2497395E-009  0.4778727E+02  0.7816164E-02  0.1312668E+00
        -11   -1    0    0    0    0  0.00000000000E+00  0.00000000000E+00  0.45593999997E+02  0.45594000000E+02  0.51100000000E-03 0. -1.
         11   -1    0    0    0    0 -0.00000000000E+00 -0.00000000000E+00 -0.45593999997E+02  0.45594000000E+02  0.51100000000E-03 0.  1.
    9900012    2    1    2    0    0 -0.97042761344E+01  0.32543433437E+02  0.27025456296E+02  0.47787270477E+02  0.19999997411E+02 0.  0.
        -12    1    1    2    0    0  0.97042761344E+01 -0.32543433437E+02 -0.27025456296E+02  0.43400729523E+02  0.00000000000E+00 0.  1.
         11    1    3    3    0    0 -0.67925793802E+01  0.23979343085E+02  0.11034841741E+02  0.27256481100E+02  0.51100000000E-03 0. -1.
        -11    1    3    3    0    0 -0.68350557083E+00  0.23276216329E+01  0.13069276786E+02  0.13292516627E+02  0.51100000000E-03 0.  1.
        -12    1    3    3    0    0 -0.22281911834E+01  0.62364687191E+01  0.29213377690E+01  0.72382727494E+01  0.00000000000E+00 0.  1.
</event>
<event>
 7    1  0.2497395E-009  0.4778727E+02  0.7816164E-02  0.1312668E+00
        -11   -1    0    0    0    0  0.00000000000E+00  0.00000000000E+00  0.45593999997E+02  0.45594000000E+02  0.51100000000E-03 0.  1.
         11   -1    0    0    0    0 -0.00000000000E+00 -0.00000000000E+00 -0.45593999997E+02  0.45594000000E+02  0.51100000000E-03 0. -1.
    9900012    2    1    2    0    0  0.23978151827E+02 -0.33548877443E+02  0.13533082396E+02  0.47787271183E+02  0.20000000631E+02 0.  0.
        -12    1    1    2    0    0 -0.23978151827E+02  0.33548877443E+02 -0.13533082396E+02  0.43400728817E+02  0.00000000000E+00 0.  1.
         11    1    3    3    0    0 -0.39472894250E+00  0.16627442000E+01 -0.28281481179E-01  0.17091896665E+01  0.51100000000E-03 0. -1.
        -11    1    3    3    0    0  0.16643807866E+02 -0.30669233906E+02  0.12428859429E+02  0.37041797954E+02  0.51100000000E-03 0.  1.
         12    1    3    3    0    0  0.77290729036E+01 -0.45423877369E+01  0.11325044476E+01  0.90362835627E+01  0.00000000000E+00 0. -1.
</event>
<event>
 7    1  0.2497395E-009  0.4778727E+02  0.7816164E-02  0.1312668E+00
        -11   -1    0    0    0    0  0.00000000000E+00  0.00000000000E+00  0.45593999997E+02  0.45594000000E+02  0.51100000000E-03 0.  1.
         11   -1    0    0    0    0 -0.00000000000E+00 -0.00000000000E+00 -0.45593999997E+02  0.45594000000E+02  0.51100000000E-03 0. -1.
    9900012    2    1    2    0    0 -0.23486145061E+02 -0.23641390134E+02 -0.27804836884E+02  0.47787270842E+02  0.19999999077E+02 0.  0.
        -12    1    1    2    0    0  0.23486145061E+02  0.23641390134E+02  0.27804836884E+02  0.43400729158E+02  0.00000000000E+00 0.  1.
         11    1    3    3    0    0 -0.20798674916E+02 -0.19096321405E+02 -0.19142608919E+02  0.34112957157E+02  0.51100000000E-03 0. -1.
        -11    1    3    3    0    0  0.20128556167E+01 -0.15746182670E+01  0.81842374261E+00  0.26834358766E+01  0.51100000000E-03 0.  1.
         12    1    3    3    0    0 -0.47003257618E+01 -0.29704504617E+01 -0.94806517073E+01  0.10990877809E+02  0.00000000000E+00 0. -1.
</event>
<event>
 7    1  0.2497395E-009  0.4778727E+02  0.7816164E-02  0.1312668E+00
        -11   -1    0    0    0    0  0.00000000000E+00  0.00000000000E+00  0.45593999997E+02  0.45594000000E+02  0.51100000000E-03 0.  1.
         11   -1    0    0    0    0 -0.00000000000E+00 -0.00000000000E+00 -0.45593999997E+02  0.45594000000E+02  0.51100000000E-03 0. -1.
    9900012    2    1    2    0    0  0.87407852084E+01 -0.69685399061E+01 -0.41936397534E+02  0.47787270598E+02  0.19999997963E+02 0.  0.
        -12    1    1    2    0    0 -0.87407852084E+01  0.69685399061E+01  0.41936397534E+02  0.43400729402E+02  0.00000000000E+00 0.  1.
         11    1    3    3    0    0 -0.27129937195E+01 -0.12985496910E+01 -0.87272911011E+01  0.92310441688E+01  0.51100000000E-03 0. -1.
        -11    1    3    3    0    0  0.11811500841E+02  0.10109023997E+01 -0.26738693659E+02  0.29248781421E+02  0.51100000000E-03 0.  1.
        -12    1    3    3    0    0 -0.35772191349E+00 -0.66808926149E+01 -0.64704127743E+01  0.93074450076E+01  0.00000000000E+00 0.  1.
</event>
<event>
 7    1  0.2497395E-009  0.4778728E+02  0.7816164E-02  0.1312668E+00
        -11   -1    0    0    0    0  0.00000000000E+00  0.00000000000E+00  0.45593999997E+02  0.45594000000E+02  0.51100000000E-03 0.  1.
         11   -1    0    0    0    0 -0.00000000000E+00 -0.00000000000E+00 -0.45593999997E+02  0.45594000000E+02  0.51100000000E-03 0. -1.
    9900012    2    1    2    0    0 -0.37348734682E+02 -0.75127190664E+01 -0.20790718371E+02  0.47787275346E+02  0.20000019613E+02 0.  0.
        -12    1    1    2    0    0  0.37348734682E+02  0.75127190664E+01  0.20790718371E+02  0.43400724654E+02  0.00000000000E+00 0.  1.
         11    1    3    3    0    0  0.13781482097E+00  0.10658495557E+00 -0.20591205552E+01  0.20664779214E+01  0.51100000000E-03 0. -1.
        -11    1    3    3    0    0 -0.52989868324E+01 -0.63047768348E+01  0.41446540312E+00  0.82462872990E+01  0.51100000000E-03 0.  1.
        -12    1    3    3    0    0 -0.32187562670E+02 -0.13145271871E+01 -0.19146063219E+02  0.37474510126E+02  0.00000000000E+00 0.  1.
</event>
<event>
 7    1  0.2497395E-009  0.4778727E+02  0.7816164E-02  0.1312668E+00
        -11   -1    0    0    0    0  0.00000000000E+00  0.00000000000E+00  0.45593999997E+02  0.45594000000E+02  0.51100000000E-03 0.  1.
         11   -1    0    0    0    0 -0.00000000000E+00 -0.00000000000E+00 -0.45593999997E+02  0.45594000000E+02  0.51100000000E-03 0. -1.
    9900012    2    1    2    0    0 -0.30596718208E+02 -0.50278119100E+01 -0.30367509967E+02  0.47787265912E+02  0.19999976601E+02 0.  0.
        -12    1    1    2    0    0  0.30596718208E+02  0.50278119100E+01  0.30367509967E+02  0.43400734088E+02  0.00000000000E+00 0.  1.
         11    1    3    3    0    0 -0.26324748305E+02 -0.11306898277E+02 -0.25922898375E+02  0.38637222758E+02  0.51100000000E-03 0. -1.
        -11    1    3    3    0    0 -0.21285842253E+01  0.39869657188E+01 -0.38903051413E+01  0.59633246432E+01  0.51100000000E-03 0.  1.
         12    1    3    3    0    0 -0.21433856780E+01  0.22921206484E+01 -0.55430645051E+00  0.31867185116E+01  0.00000000000E+00 0. -1.
</event>
<event>
 7    1  0.2497395E-009  0.4778727E+02  0.7816164E-02  0.1312668E+00
        -11   -1    0    0    0    0  0.00000000000E+00  0.00000000000E+00  0.45593999997E+02  0.45594000000E+02  0.51100000000E-03 0.  1.
         11   -1    0    0    0    0 -0.00000000000E+00 -0.00000000000E+00 -0.45593999997E+02  0.45594000000E+02  0.51100000000E-03 0. -1.
    9900012    2    1    2    0    0 -0.56632113295E+01 -0.37687947623E+02 -0.20764634062E+02  0.47787269749E+02  0.19999994092E+02 0.  0.
        -12    1    1    2    0    0  0.56632113295E+01  0.37687947623E+02  0.20764634062E+02  0.43400730251E+02  0.00000000000E+00 0.  1.
         11    1    3    3    0    0 -0.14349166484E+00 -0.30218720216E+02 -0.15948214891E+02  0.34169243477E+02  0.51100000000E-03 0. -1.
        -11    1    3    3    0    0  0.22502976676E+01 -0.29472970570E+01 -0.92427152700E+00  0.38216066846E+01  0.51100000000E-03 0.  1.
         12    1    3    3    0    0 -0.77700173322E+01 -0.45219303505E+01 -0.38921476439E+01  0.97964195868E+01  0.00000000000E+00 0. -1.
</event>
<event>
 7    1  0.2497395E-009  0.4778731E+02  0.7816164E-02  0.1312668E+00
        -11   -1    0    0    0    0  0.00000000000E+00  0.00000000000E+00  0.45593999997E+02  0.45594000000E+02  0.51100000000E-03 0. -1.
         11   -1    0    0    0    0 -0.00000000000E+00 -0.00000000000E+00 -0.45593999997E+02  0.45594000000E+02  0.51100000000E-03 0.  1.
    9900012    2    1    2    0    0 -0.18535164841E+02 -0.33274218289E+02  0.20806100657E+02  0.47787311492E+02  0.20000184416E+02 0.  0.
        -12    1    1    2    0    0  0.18535164841E+02  0.33274218289E+02 -0.20806100657E+02  0.43400688508E+02  0.00000000000E+00 0.  1.
         11    1    3    3    0    0 -0.12905009701E+01 -0.64986730544E+01  0.12025257367E+02  0.13729710821E+02  0.51100000000E-03 0. -1.
        -11    1    3    3    0    0 -0.33995500353E+01 -0.10251097562E+01  0.18799871071E+01  0.40177284924E+01  0.51100000000E-03 0.  1.
         12    1    3    3    0    0 -0.13845113836E+02 -0.25750435478E+02  0.69008561829E+01  0.30039872178E+02  0.00000000000E+00 0. -1.
</event>
<event>
 7    1  0.2497395E-009  0.4778727E+02  0.7816164E-02  0.1312668E+00
        -11   -1    0    0    0    0  0.00000000000E+00  0.00000000000E+00  0.45593999997E+02  0.45594000000E+02  0.51100000000E-03 0.  1.
         11   -1    0    0    0    0 -0.00000000000E+00 -0.00000000000E+00 -0.45593999997E+02  0.45594000000E+02  0.51100000000E-03 0. -1.
    9900012    2    1    2    0    0  0.21067683446E+02 -0.35518957278E+02 -0.13348410291E+02  0.47787266491E+02  0.19999979237E+02 0.  0.
        -12    1    1    2    0    0 -0.21067683446E+02  0.35518957278E+02  0.13348410291E+02  0.43400733509E+02  0.00000000000E+00 0.  1.
         11    1    3    3    0    0  0.20534514783E+02 -0.20869560773E+02 -0.47885256433E+01  0.29667066628E+02  0.51100000000E-03 0. -1.
        -11    1    3    3    0    0 -0.18448927977E+01 -0.70040961896E+01 -0.13955773819E+01  0.73762205335E+01  0.51100000000E-03 0.  1.
         12    1    3    3    0    0  0.23780614601E+01 -0.76453003156E+01 -0.71643072659E+01  0.10743979329E+02  0.00000000000E+00 0. -1.
</event>
<event>
 7    1  0.2497395E-009  0.4778727E+02  0.7816164E-02  0.1312668E+00
        -11   -1    0    0    0    0  0.00000000000E+00  0.00000000000E+00  0.45593999997E+02  0.45594000000E+02  0.51100000000E-03 0. -1.
         11   -1    0    0    0    0 -0.00000000000E+00 -0.00000000000E+00 -0.45593999997E+02  0.45594000000E+02  0.51100000000E-03 0.  1.
    9900012    2    1    2    0    0 -0.39586021157E+02 -0.17506014605E+02  0.31795549711E+01  0.47787272031E+02  0.20000004499E+02 0.  0.
        -12    1    1    2    0    0  0.39586021157E+02  0.17506014605E+02 -0.31795549711E+01  0.43400727969E+02  0.00000000000E+00 0.  1.
         11    1    3    3    0    0 -0.42267787063E+01 -0.78795943535E+01  0.61401421004E+01  0.10846889447E+02  0.51100000000E-03 0.  1.
        -11    1    3    3    0    0 -0.34442005422E+02 -0.98977438205E+01 -0.31165016474E+01  0.35971233688E+02  0.51100000000E-03 0. -1.
         12    1    3    3    0    0 -0.91723702886E+00  0.27132356876E+00  0.15591451805E+00  0.96914889621E+00  0.00000000000E+00 0. -1.
</event>
<event>
 7    1  0.2497395E-009  0.4778728E+02  0.7816164E-02  0.1312668E+00
        -11   -1    0    0    0    0  0.00000000000E+00  0.00000000000E+00  0.45593999997E+02  0.45594000000E+02  0.51100000000E-03 0.  1.
         11   -1    0    0    0    0 -0.00000000000E+00 -0.00000000000E+00 -0.45593999997E+02  0.45594000000E+02  0.51100000000E-03 0. -1.
    9900012    2    1    2    0    0 -0.13540159787E+02 -0.32283910250E+02 -0.25652209753E+02  0.47787278193E+02  0.20000032595E+02 0.  0.
        -12    1    1    2    0    0  0.13540159787E+02  0.32283910250E+02  0.25652209753E+02  0.43400721807E+02  0.00000000000E+00 0.  1.
         11    1    3    3    0    0 -0.10775321157E+02 -0.27859566583E+02 -0.10759413318E+02  0.31749456239E+02  0.51100000000E-03 0. -1.
        -11    1    3    3    0    0 -0.20858463200E+01 -0.47221026884E+01 -0.13610653786E+02  0.14556747762E+02  0.51100000000E-03 0.  1.
         12    1    3    3    0    0 -0.67899231032E+00  0.29775902125E+00 -0.12821426490E+01  0.14810741928E+01  0.00000000000E+00 0. -1.
</event>
<event>
 7    1  0.2497395E-009  0.4778727E+02  0.7816164E-02  0.1312668E+00
        -11   -1    0    0    0    0  0.00000000000E+00  0.00000000000E+00  0.45593999997E+02  0.45594000000E+02  0.51100000000E-03 0.  1.
         11   -1    0    0    0    0 -0.00000000000E+00 -0.00000000000E+00 -0.45593999997E+02  0.45594000000E+02  0.51100000000E-03 0. -1.
    9900012    2    1    2    0    0  0.26852604330E+02  0.30372094304E+02 -0.15495060871E+02  0.47787269786E+02  0.19999994263E+02 0.  0.
        -12    1    1    2    0    0 -0.26852604330E+02 -0.30372094304E+02  0.15495060871E+02  0.43400730214E+02  0.00000000000E+00 0.  1.
         11    1    3    3    0    0  0.25881612405E+02  0.21413115497E+02 -0.12320059527E+02  0.35779368958E+02  0.51100000000E-03 0. -1.
        -11    1    3    3    0    0 -0.10919118733E+01  0.71592198207E+01  0.68643333408E+00  0.72744684316E+01  0.51100000000E-03 0.  1.
         12    1    3    3    0    0  0.20629037975E+01  0.17997589862E+01 -0.38614346775E+01  0.47334323968E+01  0.00000000000E+00 0. -1.
</event>
<event>
 7    1  0.2497395E-009  0.4778727E+02  0.7816164E-02  0.1312668E+00
        -11   -1    0    0    0    0  0.00000000000E+00  0.00000000000E+00  0.45593999997E+02  0.45594000000E+02  0.51100000000E-03 0.  1.
         11   -1    0    0    0    0 -0.00000000000E+00 -0.00000000000E+00 -0.45593999997E+02  0.45594000000E+02  0.51100000000E-03 0. -1.
    9900012    2    1    2    0    0  0.57126997291E+01 -0.34443230379E+01 -0.42885019090E+02  0.47787272336E+02  0.20000005889E+02 0.  0.
        -12    1    1    2    0    0 -0.57126997291E+01  0.34443230379E+01  0.42885019090E+02  0.43400727664E+02  0.00000000000E+00 0.  1.
         11    1    3    3    0    0 -0.49901269303E+01  0.24156660221E+01 -0.16912091189E+02  0.17797630116E+02  0.51100000000E-03 0. -1.
        -11    1    3    3    0    0  0.18213190330E+01  0.22630481713E+01 -0.41156047759E+01  0.50375383848E+01  0.51100000000E-03 0.  1.
         12    1    3    3    0    0  0.88815076264E+01 -0.81230372312E+01 -0.21857323126E+02  0.24952103835E+02  0.00000000000E+00 0. -1.
</event>
<event>
 7    1  0.2497395E-009  0.4778728E+02  0.7816164E-02  0.1312668E+00
        -11   -1    0    0    0    0  0.00000000000E+00  0.00000000000E+00  0.45593999997E+02  0.45594000000E+02  0.51100000000E-03 0.  1.
         11   -1    0    0    0    0 -0.00000000000E+00 -0.00000000000E+00 -0.45593999997E+02  0.45594000000E+02  0.51100000000E-03 0. -1.
    9900012    2    1    2    0    0 -0.72938619457E+01 -0.63009644236E+01 -0.42316900656E+02  0.47787278165E+02  0.20000032463E+02 0.  0.
        -12    1    1    2    0    0  0.72938619457E+01  0.63009644236E+01  0.42316900656E+02  0.43400721835E+02  0.00000000000E+00 0.  1.
         11    1    3    3    0    0  0.46828855404E+01 -0.46397187585E+01 -0.91280793066E+01  0.11259584328E+02  0.51100000000E-03 0. -1.
        -11    1    3    3    0    0 -0.98208723026E+01 -0.39297364171E+01 -0.30871986883E+02  0.32633907756E+02  0.51100000000E-03 0.  1.
        -12    1    3    3    0    0 -0.21558751835E+01  0.22684907520E+01 -0.23168344662E+01  0.38937860808E+01  0.00000000000E+00 0.  1.
</event>
<event>
 7    1  0.2497395E-009  0.4778727E+02  0.7816164E-02  0.1312668E+00
        -11   -1    0    0    0    0  0.00000000000E+00  0.00000000000E+00  0.45593999997E+02  0.45594000000E+02  0.51100000000E-03 0.  1.
         11   -1    0    0    0    0 -0.00000000000E+00 -0.00000000000E+00 -0.45593999997E+02  0.45594000000E+02  0.51100000000E-03 0. -1.
    9900012    2    1    2    0    0  0.14160149255E+02 -0.12925729392E+02 -0.38936343855E+02  0.47787272126E+02  0.20000004931E+02 0.  0.
        -12    1    1    2    0    0 -0.14160149255E+02  0.12925729392E+02  0.38936343855E+02  0.43400727874E+02  0.00000000000E+00 0.  1.
         11    1    3    3    0    0 -0.60325315696E-01 -0.12117638897E+02 -0.10729900993E+02  0.16185536357E+02  0.51100000000E-03 0. -1.
        -11    1    3    3    0    0  0.67752803677E+01 -0.21147477512E+00 -0.13124824208E+02  0.14771938139E+02  0.51100000000E-03 0.  1.
         12    1    3    3    0    0  0.74451942033E+01 -0.59661572020E+00 -0.15081618654E+02  0.16829797630E+02  0.00000000000E+00 0. -1.
</event>
<event>
 7    1  0.2497395E-009  0.4778727E+02  0.7816164E-02  0.1312668E+00
        -11   -1    0    0    0    0  0.00000000000E+00  0.00000000000E+00  0.45593999997E+02  0.45594000000E+02  0.51100000000E-03 0. -1.
         11   -1    0    0    0    0 -0.00000000000E+00 -0.00000000000E+00 -0.45593999997E+02  0.45594000000E+02  0.51100000000E-03 0.  1.
    9900012    2    1    2    0    0  0.42792999949E+02  0.48163432971E+01  0.54023310865E+01  0.47787272027E+02  0.20000004480E+02 0.  0.
        -12    1    1    2    0    0 -0.42792999949E+02 -0.48163432971E+01 -0.54023310865E+01  0.43400727973E+02  0.00000000000E+00 0.  1.
         11    1    3    3    0    0  0.21778886108E+02  0.20860415482E+01 -0.14158367948E+01  0.21924325384E+02  0.51100000000E-03 0. -1.
        -11    1    3    3    0    0  0.14627048476E+02  0.41231777611E+01  0.10394099032E+02  0.18411638627E+02  0.51100000000E-03 0.  1.
        -12    1    3    3    0    0  0.63870653650E+01 -0.13928760121E+01 -0.35759311504E+01  0.74513080164E+01  0.00000000000E+00 0.  1.
</event>
<event>
 7    1  0.2497395E-009  0.4778726E+02  0.7816164E-02  0.1312668E+00
        -11   -1    0    0    0    0  0.00000000000E+00  0.00000000000E+00  0.45593999997E+02  0.45594000000E+02  0.51100000000E-03 0.  1.
         11   -1    0    0    0    0 -0.00000000000E+00 -0.00000000000E+00 -0.45593999997E+02  0.45594000000E+02  0.51100000000E-03 0. -1.
    9900012    2    1    2    0    0 -0.69315016647E+01 -0.37597032395E+02 -0.20543647941E+02  0.47787262322E+02  0.19999960232E+02 0.  0.
        -12    1    1    2    0    0  0.69315016647E+01  0.37597032395E+02  0.20543647941E+02  0.43400737678E+02  0.00000000000E+00 0.  1.
         11    1    3    3    0    0 -0.11422641196E+00 -0.16359722863E+02 -0.16839346828E+02  0.23478014858E+02  0.51100000000E-03 0. -1.
        -11    1    3    3    0    0  0.66758235042E+00 -0.11467839988E+02 -0.10922758244E+00  0.11487773984E+02  0.51100000000E-03 0.  1.
        -12    1    3    3    0    0 -0.74848576031E+01 -0.97694695434E+01 -0.35950735313E+01  0.12821473480E+02  0.00000000000E+00 0.  1.
</event>
<event>
 7    1  0.2497395E-009  0.4778727E+02  0.7816164E-02  0.1312668E+00
        -11   -1    0    0    0    0  0.00000000000E+00  0.00000000000E+00  0.45593999997E+02  0.45594000000E+02  0.51100000000E-03 0. -1.
         11   -1    0    0    0    0 -0.00000000000E+00 -0.00000000000E+00 -0.45593999997E+02  0.45594000000E+02  0.51100000000E-03 0.  1.
    9900012    2    1    2    0    0  0.37416493055E+02 -0.14176775438E+02  0.16812149607E+02  0.47787270873E+02  0.19999999219E+02 0.  0.
        -12    1    1    2    0    0 -0.37416493055E+02  0.14176775438E+02 -0.16812149607E+02  0.43400729127E+02  0.00000000000E+00 0.  1.
         11    1    3    3    0    0  0.22001243928E+02 -0.76858232748E+01  0.30264389591E+01  0.23500764813E+02  0.51100000000E-03 0.  1.
        -11    1    3    3    0    0  0.13929059747E+02 -0.72074412768E+01  0.15398660276E+02  0.21979186830E+02  0.51100000000E-03 0. -1.
         12    1    3    3    0    0  0.14861893807E+01  0.71648911363E+00 -0.16129496276E+01  0.23073192294E+01  0.00000000000E+00 0. -1.
</event>
<event>
 7    1  0.2497395E-009  0.4778727E+02  0.7816164E-02  0.1312668E+00
        -11   -1    0    0    0    0  0.00000000000E+00  0.00000000000E+00  0.45593999997E+02  0.45594000000E+02  0.51100000000E-03 0.  1.
         11   -1    0    0    0    0 -0.00000000000E+00 -0.00000000000E+00 -0.45593999997E+02  0.45594000000E+02  0.51100000000E-03 0. -1.
    9900012    2    1    2    0    0 -0.56545128802E+01 -0.61990183271E+01 -0.42581941982E+02  0.47787272735E+02  0.20000007709E+02 0.  0.
        -12    1    1    2    0    0  0.56545128802E+01  0.61990183271E+01  0.42581941982E+02  0.43400727265E+02  0.00000000000E+00 0.  1.
         11    1    3    3    0    0 -0.81071553386E+01 -0.14972122392E+01 -0.18072486648E+02  0.19864097918E+02  0.51100000000E-03 0. -1.
        -11    1    3    3    0    0  0.55884749657E+01 -0.73770650026E+01 -0.16736542491E+02  0.19124957393E+02  0.51100000000E-03 0.  1.
        -12    1    3    3    0    0 -0.31358325074E+01  0.26752589147E+01 -0.77729128431E+01  0.87982174240E+01  0.00000000000E+00 0.  1.
</event>
<event>
 7    1  0.2497395E-009  0.4778728E+02  0.7816164E-02  0.1312668E+00
        -11   -1    0    0    0    0  0.00000000000E+00  0.00000000000E+00  0.45593999997E+02  0.45594000000E+02  0.51100000000E-03 0.  1.
         11   -1    0    0    0    0 -0.00000000000E+00 -0.00000000000E+00 -0.45593999997E+02  0.45594000000E+02  0.51100000000E-03 0. -1.
    9900012    2    1    2    0    0 -0.21603560482E+02 -0.25529472433E+02 -0.27661435581E+02  0.47787276427E+02  0.20000024542E+02 0.  0.
        -12    1    1    2    0    0  0.21603560482E+02  0.25529472433E+02  0.27661435581E+02  0.43400723573E+02  0.00000000000E+00 0.  1.
         11    1    3    3    0    0 -0.35712266908E+01 -0.10223034763E+02 -0.18388705347E+02  0.21340304225E+02  0.51100000000E-03 0. -1.
        -11    1    3    3    0    0 -0.16067742739E+02 -0.13918808495E+02 -0.54752336653E+01  0.21951851188E+02  0.51100000000E-03 0.  1.
        -12    1    3    3    0    0 -0.19645910525E+01 -0.13876291758E+01 -0.37974965693E+01  0.44951210136E+01  0.00000000000E+00 0.  1.
</event>
<event>
 7    1  0.2497395E-009  0.4778727E+02  0.7816164E-02  0.1312668E+00
        -11   -1    0    0    0    0  0.00000000000E+00  0.00000000000E+00  0.45593999997E+02  0.45594000000E+02  0.51100000000E-03 0.  1.
         11   -1    0    0    0    0 -0.00000000000E+00 -0.00000000000E+00 -0.45593999997E+02  0.45594000000E+02  0.51100000000E-03 0. -1.
    9900012    2    1    2    0    0  0.58273008869E+01 -0.15389704862E+02 -0.40159965548E+02  0.47787270926E+02  0.19999999458E+02 0.  0.
        -12    1    1    2    0    0 -0.58273008869E+01  0.15389704862E+02  0.40159965548E+02  0.43400729074E+02  0.00000000000E+00 0.  1.
         11    1    3    3    0    0  0.84882483577E+00 -0.10681876174E+02 -0.74901005874E+01  0.13073813111E+02  0.51100000000E-03 0. -1.
        -11    1    3    3    0    0  0.10012358949E+01 -0.58366409098E+01 -0.27308243350E+02  0.27942959857E+02  0.51100000000E-03 0.  1.
        -12    1    3    3    0    0  0.39772401562E+01  0.11288122221E+01 -0.53616216107E+01  0.67704979572E+01  0.00000000000E+00 0.  1.
</event>
<event>
 7    1  0.2497395E-009  0.4778727E+02  0.7816164E-02  0.1312668E+00
        -11   -1    0    0    0    0  0.00000000000E+00  0.00000000000E+00  0.45593999997E+02  0.45594000000E+02  0.51100000000E-03 0.  1.
         11   -1    0    0    0    0 -0.00000000000E+00 -0.00000000000E+00 -0.45593999997E+02  0.45594000000E+02  0.51100000000E-03 0. -1.
    9900012    2    1    2    0    0 -0.20210838207E+02 -0.35720398077E+02 -0.14113768717E+02  0.47787270891E+02  0.19999999301E+02 0.  0.
        -12    1    1    2    0    0  0.20210838207E+02  0.35720398077E+02  0.14113768717E+02  0.43400729109E+02  0.00000000000E+00 0.  1.
         11    1    3    3    0    0 -0.17194694757E+02 -0.35975406008E+02 -0.11836228093E+02  0.41593072271E+02  0.51100000000E-03 0. -1.
        -11    1    3    3    0    0 -0.16842367173E+01  0.15761659233E+01 -0.33240614655E+01  0.40460273387E+01  0.51100000000E-03 0.  1.
        -12    1    3    3    0    0 -0.13319067324E+01 -0.13211579926E+01  0.10465208408E+01  0.21481712817E+01  0.00000000000E+00 0.  1.
</event>
<event>
 7    1  0.2497395E-009  0.4778728E+02  0.7816164E-02  0.1312668E+00
        -11   -1    0    0    0    0  0.00000000000E+00  0.00000000000E+00  0.45593999997E+02  0.45594000000E+02  0.51100000000E-03 0. -1.
         11   -1    0    0    0    0 -0.00000000000E+00 -0.00000000000E+00 -0.45593999997E+02  0.45594000000E+02  0.51100000000E-03 0.  1.
    9900012    2    1    2    0    0  0.17034056703E+02 -0.32841907374E+02  0.22690807300E+02  0.47787277613E+02  0.20000029951E+02 0.  0.
        -12    1    1    2    0    0 -0.17034056703E+02  0.32841907374E+02 -0.22690807300E+02  0.43400722387E+02  0.00000000000E+00 0.  1.
         11    1    3    3    0    0  0.87759626073E+01 -0.24599190062E+02  0.66907304156E+01  0.26961148810E+02  0.51100000000E-03 0. -1.
        -11    1    3    3    0    0 -0.10639417190E+01 -0.10641724763E+01  0.12362049875E+01  0.19474696591E+01  0.51100000000E-03 0.  1.
         12    1    3    3    0    0  0.93220358148E+01 -0.71785448357E+01  0.14763871897E+02  0.18878659144E+02  0.00000000000E+00 0. -1.
</event>
<event>
 7    1  0.2497395E-009  0.4778727E+02  0.7816164E-02  0.1312668E+00
        -11   -1    0    0    0    0  0.00000000000E+00  0.00000000000E+00  0.45593999997E+02  0.45594000000E+02  0.51100000000E-03 0.  1.
         11   -1    0    0    0    0 -0.00000000000E+00 -0.00000000000E+00 -0.45593999997E+02  0.45594000000E+02  0.51100000000E-03 0. -1.
    9900012    2    1    2    0    0  0.27253751802E+02 -0.36280266017E+01 -0.33581152708E+02  0.47787269804E+02  0.19999994346E+02 0.  0.
        -12    1    1    2    0    0 -0.27253751802E+02  0.36280266017E+01  0.33581152708E+02  0.43400730196E+02  0.00000000000E+00 0.  1.
         11    1    3    3    0    0  0.84445456902E+01 -0.69289965620E+01 -0.63351806311E+01  0.12627583267E+02  0.51100000000E-03 0. -1.
        -11    1    3    3    0    0  0.18801137603E+02  0.14699962886E+01 -0.27464396244E+02  0.33315712893E+02  0.51100000000E-03 0.  1.
         12    1    3    3    0    0  0.80685085238E-02  0.18309736716E+01  0.21842416647E+00  0.18439736450E+01  0.00000000000E+00 0. -1.
</event>
<event>
 7    1  0.2497395E-009  0.4778727E+02  0.7816164E-02  0.1312668E+00
        -11   -1    0    0    0    0  0.00000000000E+00  0.00000000000E+00  0.45593999997E+02  0.45594000000E+02  0.51100000000E-03 0.  1.
         11   -1    0    0    0    0 -0.00000000000E+00 -0.00000000000E+00 -0.45593999997E+02  0.45594000000E+02  0.51100000000E-03 0. -1.
    9900012    2    1    2    0    0 -0.29743174378E+02  0.31478616092E+02  0.28395847658E+01  0.47787274951E+02  0.20000017812E+02 0.  0.
        -12    1    1    2    0    0  0.29743174378E+02 -0.31478616092E+02 -0.28395847658E+01  0.43400725049E+02  0.00000000000E+00 0.  1.
         11    1    3    3    0    0 -0.16018502765E+02  0.12532795672E+02 -0.54465321416E+01  0.21055358245E+02  0.51100000000E-03 0. -1.
        -11    1    3    3    0    0 -0.83286081256E+01  0.64084063782E+01  0.77763591894E+01  0.13073069575E+02  0.51100000000E-03 0.  1.
         12    1    3    3    0    0 -0.53960634870E+01  0.12537414042E+02  0.50975771800E+00  0.13658847131E+02  0.00000000000E+00 0. -1.
</event>
<event>
 7    1  0.2497395E-009  0.4778727E+02  0.7816164E-02  0.1312668E+00
        -11   -1    0    0    0    0  0.00000000000E+00  0.00000000000E+00  0.45593999997E+02  0.45594000000E+02  0.51100000000E-03 0.  1.
         11   -1    0    0    0    0 -0.00000000000E+00 -0.00000000000E+00 -0.45593999997E+02  0.45594000000E+02  0.51100000000E-03 0. -1.
    9900012    2    1    2    0    0  0.71421059819E+01  0.24029945485E+02 -0.35428453125E+02  0.47787271335E+02  0.20000001325E+02 0.  0.
        -12    1    1    2    0    0 -0.71421059819E+01 -0.24029945485E+02  0.35428453125E+02  0.43400728665E+02  0.00000000000E+00 0.  1.
         11    1    3    3    0    0  0.14836653981E+01  0.12339043165E+02 -0.17691560570E+02  0.21620466343E+02  0.51100000000E-03 0. -1.
        -11    1    3    3    0    0  0.96541383496E+01  0.71323692805E+01 -0.71611043775E+01  0.13976927237E+02  0.51100000000E-03 0.  1.
        -12    1    3    3    0    0 -0.39956977658E+01  0.45585330391E+01 -0.10575788177E+02  0.12189877755E+02  0.00000000000E+00 0.  1.
</event>
<event>
 7    1  0.2497395E-009  0.4778726E+02  0.7816164E-02  0.1312668E+00
        -11   -1    0    0    0    0  0.00000000000E+00  0.00000000000E+00  0.45593999997E+02  0.45594000000E+02  0.51100000000E-03 0. -1.
         11   -1    0    0    0    0 -0.00000000000E+00 -0.00000000000E+00 -0.45593999997E+02  0.45594000000E+02  0.51100000000E-03 0.  1.
    9900012    2    1    2    0    0 -0.36321941025E+02  0.20819532374E+02  0.11440626640E+02  0.47787259614E+02  0.19999947886E+02 0.  0.
        -12    1    1    2    0    0  0.36321941025E+02 -0.20819532374E+02 -0.11440626640E+02  0.43400740386E+02  0.00000000000E+00 0.  1.
         11    1    3    3    0    0 -0.25597636499E+02  0.20975122986E+02  0.71964305155E+01  0.33867143237E+02  0.51100000000E-03 0. -1.
        -11    1    3    3    0    0 -0.30519600736E+01 -0.11956576715E+01  0.51709614983E+01  0.61223280406E+01  0.51100000000E-03 0.  1.
         12    1    3    3    0    0 -0.76723444522E+01  0.10400670592E+01 -0.92676537381E+00  0.77977883364E+01  0.00000000000E+00 0. -1.
</event>
<event>
 7    1  0.2497395E-009  0.4778726E+02  0.7816164E-02  0.1312668E+00
        -11   -1    0    0    0    0  0.00000000000E+00  0.00000000000E+00  0.45593999997E+02  0.45594000000E+02  0.51100000000E-03 0.  1.
         11   -1    0    0    0    0 -0.00000000000E+00 -0.00000000000E+00 -0.45593999997E+02  0.45594000000E+02  0.51100000000E-03 0. -1.
    9900012    2    1    2    0    0  0.11974156598E+02  0.62557804459E+01 -0.41244500137E+02  0.47787262601E+02  0.19999961503E+02 0.  0.
        -12    1    1    2    0    0 -0.11974156598E+02 -0.62557804459E+01  0.41244500137E+02  0.43400737399E+02  0.00000000000E+00 0.  1.
         11    1    3    3    0    0  0.30582770149E+01 -0.26319990209E+01 -0.21438086249E+02  0.21814491042E+02  0.51100000000E-03 0. -1.
        -11    1    3    3    0    0  0.75754930005E+00  0.71958253529E+01 -0.44299132714E+01  0.84839799213E+01  0.51100000000E-03 0.  1.
        -12    1    3    3    0    0  0.81583302834E+01  0.16919541139E+01 -0.15376500616E+02  0.17488791638E+02  0.00000000000E+00 0.  1.
</event>
<event>
 7    1  0.2497395E-009  0.4778728E+02  0.7816164E-02  0.1312668E+00
        -11   -1    0    0    0    0  0.00000000000E+00  0.00000000000E+00  0.45593999997E+02  0.45594000000E+02  0.51100000000E-03 0.  1.
         11   -1    0    0    0    0 -0.00000000000E+00 -0.00000000000E+00 -0.45593999997E+02  0.45594000000E+02  0.51100000000E-03 0. -1.
    9900012    2    1    2    0    0  0.15351980065E+01  0.40067800694E+02 -0.16608354183E+02  0.47787275190E+02  0.20000018901E+02 0.  0.
        -12    1    1    2    0    0 -0.15351980065E+01 -0.40067800694E+02  0.16608354183E+02  0.43400724810E+02  0.00000000000E+00 0.  1.
         11    1    3    3    0    0 -0.28442949978E+01  0.76421965697E+01 -0.10441654062E+02  0.13248446032E+02  0.51100000000E-03 0.  1.
        -11    1    3    3    0    0 -0.34127814375E+00  0.62056063719E+01 -0.48168301697E+01  0.78630702883E+01  0.51100000000E-03 0. -1.
         12    1    3    3    0    0  0.47207711481E+01  0.26219997753E+02 -0.13498699506E+01  0.26675758870E+02  0.00000000000E+00 0. -1.
</event>
<event>
 7    1  0.2497395E-009  0.4778727E+02  0.7816164E-02  0.1312668E+00
        -11   -1    0    0    0    0  0.00000000000E+00  0.00000000000E+00  0.45593999997E+02  0.45594000000E+02  0.51100000000E-03 0.  1.
         11   -1    0    0    0    0 -0.00000000000E+00 -0.00000000000E+00 -0.45593999997E+02  0.45594000000E+02  0.51100000000E-03 0. -1.
    9900012    2    1    2    0    0 -0.34567971143E+02  0.26105603191E+02 -0.26788262432E+01  0.47787271240E+02  0.20000000890E+02 0.  0.
        -12    1    1    2    0    0  0.34567971143E+02 -0.26105603191E+02  0.26788262432E+01  0.43400728760E+02  0.00000000000E+00 0.  1.
         11    1    3    3    0    0  0.13967722679E+01 -0.83084306488E+00  0.57589380765E+00  0.17242177663E+01  0.51100000000E-03 0. -1.
        -11    1    3    3    0    0 -0.21289426454E+02  0.20609220137E+02 -0.47619834035E+01  0.30010933334E+02  0.51100000000E-03 0.  1.
        -12    1    3    3    0    0 -0.14675316957E+02  0.63272261188E+01  0.15072633527E+01  0.16052120139E+02  0.00000000000E+00 0.  1.
</event>
<event>
 7    1  0.2497395E-009  0.4778727E+02  0.7816164E-02  0.1312668E+00
        -11   -1    0    0    0    0  0.00000000000E+00  0.00000000000E+00  0.45593999997E+02  0.45594000000E+02  0.51100000000E-03 0.  1.
         11   -1    0    0    0    0 -0.00000000000E+00 -0.00000000000E+00 -0.45593999997E+02  0.45594000000E+02  0.51100000000E-03 0. -1.
    9900012    2    1    2    0    0  0.53569467097E+00  0.23713031875E+02 -0.36345953622E+02  0.47787271962E+02  0.20000004184E+02 0.  0.
        -12    1    1    2    0    0 -0.53569467097E+00 -0.23713031875E+02  0.36345953622E+02  0.43400728038E+02  0.00000000000E+00 0.  1.
         11    1    3    3    0    0  0.50126713885E+01  0.14462110647E+02 -0.20954280091E+02  0.25949207565E+02  0.51100000000E-03 0. -1.
        -11    1    3    3    0    0 -0.78346312311E+01  0.83354125127E+01 -0.89812184127E+01  0.14543824556E+02  0.51100000000E-03 0.  1.
        -12    1    3    3    0    0  0.33576545136E+01  0.91550871536E+00 -0.64104551182E+01  0.72942398413E+01  0.00000000000E+00 0.  1.
</event>
<event>
 7    1  0.2497395E-009  0.4778727E+02  0.7816164E-02  0.1312668E+00
        -11   -1    0    0    0    0  0.00000000000E+00  0.00000000000E+00  0.45593999997E+02  0.45594000000E+02  0.51100000000E-03 0. -1.
         11   -1    0    0    0    0 -0.00000000000E+00 -0.00000000000E+00 -0.45593999997E+02  0.45594000000E+02  0.51100000000E-03 0.  1.
    9900012    2    1    2    0    0  0.14466364671E+02  0.10530947257E+02 -0.39540442993E+02  0.47787272022E+02  0.20000004458E+02 0.  0.
        -12    1    1    2    0    0 -0.14466364671E+02 -0.10530947257E+02  0.39540442993E+02  0.43400727978E+02  0.00000000000E+00 0.  1.
         11    1    3    3    0    0  0.73461030079E+01 -0.12043168105E+01 -0.13333348476E+02  0.15270684013E+02  0.51100000000E-03 0. -1.
        -11    1    3    3    0    0  0.10412120174E+01  0.95109859831E+01 -0.23728913339E+02  0.25585236081E+02  0.51100000000E-03 0.  1.
        -12    1    3    3    0    0  0.60790496459E+01  0.22242780840E+01 -0.24781811780E+01  0.69313519275E+01  0.00000000000E+00 0.  1.
</event>
<event>
 7    1  0.2497395E-009  0.4778727E+02  0.7816164E-02  0.1312668E+00
        -11   -1    0    0    0    0  0.00000000000E+00  0.00000000000E+00  0.45593999997E+02  0.45594000000E+02  0.51100000000E-03 0.  1.
         11   -1    0    0    0    0 -0.00000000000E+00 -0.00000000000E+00 -0.45593999997E+02  0.45594000000E+02  0.51100000000E-03 0. -1.
    9900012    2    1    2    0    0  0.30328172609E+01 -0.35542815663E+02 -0.24721110530E+02  0.47787273836E+02  0.20000012726E+02 0.  0.
        -12    1    1    2    0    0 -0.30328172609E+01  0.35542815663E+02  0.24721110530E+02  0.43400726164E+02  0.00000000000E+00 0.  1.
         11    1    3    3    0    0 -0.66782416717E+01 -0.20457585337E+02 -0.11053003720E+02  0.24192573264E+02  0.51100000000E-03 0. -1.
        -11    1    3    3    0    0  0.56326978496E+01 -0.10303865226E+02 -0.47106462665E+01  0.12652553583E+02  0.51100000000E-03 0.  1.
         12    1    3    3    0    0  0.40783610831E+01 -0.47813651003E+01 -0.89574605428E+01  0.10942146989E+02  0.00000000000E+00 0. -1.
</event>
<event>
 7    1  0.2497395E-009  0.4778728E+02  0.7816164E-02  0.1312668E+00
        -11   -1    0    0    0    0  0.00000000000E+00  0.00000000000E+00  0.45593999997E+02  0.45594000000E+02  0.51100000000E-03 0.  1.
         11   -1    0    0    0    0 -0.00000000000E+00 -0.00000000000E+00 -0.45593999997E+02  0.45594000000E+02  0.51100000000E-03 0. -1.
    9900012    2    1    2    0    0  0.39443016046E+02 -0.62653973012E+00 -0.18096370339E+02  0.47787277814E+02  0.20000030863E+02 0.  0.
        -12    1    1    2    0    0 -0.39443016046E+02  0.62653973012E+00  0.18096370339E+02  0.43400722186E+02  0.00000000000E+00 0.  1.
         11    1    3    3    0    0  0.15081419327E+02 -0.31172036242E+01 -0.13677603649E+02  0.20597160221E+02  0.51100000000E-03 0. -1.
        -11    1    3    3    0    0  0.12970708713E+02  0.33640252101E+01  0.27823034102E+01  0.13685655361E+02  0.51100000000E-03 0.  1.
         12    1    3    3    0    0  0.11390888006E+02 -0.87336131603E+00 -0.72010701000E+01  0.13504462231E+02  0.00000000000E+00 0. -1.
</event>
<event>
 7    1  0.2497395E-009  0.4778727E+02  0.7816164E-02  0.1312668E+00
        -11   -1    0    0    0    0  0.00000000000E+00  0.00000000000E+00  0.45593999997E+02  0.45594000000E+02  0.51100000000E-03 0.  1.
         11   -1    0    0    0    0 -0.00000000000E+00 -0.00000000000E+00 -0.45593999997E+02  0.45594000000E+02  0.51100000000E-03 0. -1.
    9900012    2    1    2    0    0  0.42727507813E+02 -0.15121356121E+01 -0.74630212025E+01  0.47787272316E+02  0.20000005798E+02 0.  0.
        -12    1    1    2    0    0 -0.42727507813E+02  0.15121356121E+01  0.74630212025E+01  0.43400727684E+02  0.00000000000E+00 0.  1.
         11    1    3    3    0    0  0.32892229941E+02  0.23430195041E+01  0.50805654533E+00  0.32979488362E+02  0.51100000000E-03 0.  1.
        -11    1    3    3    0    0  0.46159156545E+01 -0.81861755356E-01 -0.68651435493E+01  0.82730632108E+01  0.51100000000E-03 0. -1.
        -12    1    3    3    0    0  0.52193622176E+01 -0.37732933608E+01 -0.11059341986E+01  0.65347207435E+01  0.00000000000E+00 0.  1.
</event>
<event>
 7    1  0.2497395E-009  0.4778727E+02  0.7816164E-02  0.1312668E+00
        -11   -1    0    0    0    0  0.00000000000E+00  0.00000000000E+00  0.45593999997E+02  0.45594000000E+02  0.51100000000E-03 0.  1.
         11   -1    0    0    0    0 -0.00000000000E+00 -0.00000000000E+00 -0.45593999997E+02  0.45594000000E+02  0.51100000000E-03 0. -1.
    9900012    2    1    2    0    0  0.28225993880E+02 -0.20489842315E+02 -0.25827949309E+02  0.47787270350E+02  0.19999996835E+02 0.  0.
        -12    1    1    2    0    0 -0.28225993880E+02  0.20489842315E+02  0.25827949309E+02  0.43400729650E+02  0.00000000000E+00 0.  1.
         11    1    3    3    0    0  0.26817840235E+01  0.87546253560E+00 -0.86452519653E+01  0.90938870679E+01  0.51100000000E-03 0. -1.
        -11    1    3    3    0    0 -0.18014424298E+00 -0.13315587450E+01  0.69057871034E+00  0.15107613497E+01  0.51100000000E-03 0.  1.
         12    1    3    3    0    0  0.25724354099E+02 -0.20033746106E+02 -0.17873276054E+02  0.37182621933E+02  0.00000000000E+00 0. -1.
</event>
<event>
 7    1  0.2497395E-009  0.4778727E+02  0.7816164E-02  0.1312668E+00
        -11   -1    0    0    0    0  0.00000000000E+00  0.00000000000E+00  0.45593999997E+02  0.45594000000E+02  0.51100000000E-03 0.  1.
         11   -1    0    0    0    0 -0.00000000000E+00 -0.00000000000E+00 -0.45593999997E+02  0.45594000000E+02  0.51100000000E-03 0. -1.
    9900012    2    1    2    0    0  0.78410233156E+01 -0.37158010730E+02 -0.21010088711E+02  0.47787271484E+02  0.20000002005E+02 0.  0.
        -12    1    1    2    0    0 -0.78410233156E+01  0.37158010730E+02  0.21010088711E+02  0.43400728516E+02  0.00000000000E+00 0.  1.
         11    1    3    3    0    0 -0.28980278103E+00 -0.14590633487E+01 -0.51659408501E+01  0.53758531076E+01  0.51100000000E-03 0. -1.
        -11    1    3    3    0    0  0.71687459910E+01 -0.19562333660E+02 -0.16514642250E+01  0.20899836164E+02  0.51100000000E-03 0.  1.
        -12    1    3    3    0    0  0.96208010563E+00 -0.16136613721E+02 -0.14192683636E+02  0.21511582213E+02  0.00000000000E+00 0.  1.
</event>
<event>
 7    1  0.2497395E-009  0.4778727E+02  0.7816164E-02  0.1312668E+00
        -11   -1    0    0    0    0  0.00000000000E+00  0.00000000000E+00  0.45593999997E+02  0.45594000000E+02  0.51100000000E-03 0.  1.
         11   -1    0    0    0    0 -0.00000000000E+00 -0.00000000000E+00 -0.45593999997E+02  0.45594000000E+02  0.51100000000E-03 0. -1.
    9900012    2    1    2    0    0 -0.11121455885E+02  0.45262857647E+01 -0.41706703472E+02  0.47787272375E+02  0.20000006068E+02 0.  0.
        -12    1    1    2    0    0  0.11121455885E+02 -0.45262857647E+01  0.41706703472E+02  0.43400727625E+02  0.00000000000E+00 0.  1.
         11    1    3    3    0    0 -0.80479948815E+01  0.87726591769E+01 -0.33353088698E+02  0.35414097428E+02  0.51100000000E-03 0. -1.
        -11    1    3    3    0    0 -0.53632968876E+01 -0.42413767393E+01 -0.62703681909E+01  0.92774860635E+01  0.51100000000E-03 0.  1.
        -12    1    3    3    0    0  0.22898358836E+01 -0.49966728985E-02 -0.20832465829E+01  0.30956888838E+01  0.00000000000E+00 0.  1.
</event>
<event>
 7    1  0.2497395E-009  0.4778727E+02  0.7816164E-02  0.1312668E+00
        -11   -1    0    0    0    0  0.00000000000E+00  0.00000000000E+00  0.45593999997E+02  0.45594000000E+02  0.51100000000E-03 0. -1.
         11   -1    0    0    0    0 -0.00000000000E+00 -0.00000000000E+00 -0.45593999997E+02  0.45594000000E+02  0.51100000000E-03 0.  1.
    9900012    2    1    2    0    0  0.40690679405E+02 -0.14422671720E+02  0.44585201362E+01  0.47787271299E+02  0.20000001161E+02 0.  0.
        -12    1    1    2    0    0 -0.40690679405E+02  0.14422671720E+02 -0.44585201362E+01  0.43400728701E+02  0.00000000000E+00 0.  1.
         11    1    3    3    0    0  0.25187436967E+02 -0.16100782768E+02  0.93821932385E+01  0.31331577313E+02  0.51100000000E-03 0. -1.
        -11    1    3    3    0    0  0.38783794782E+01  0.11754289641E+01 -0.15727502286E+01  0.43470684569E+01  0.51100000000E-03 0.  1.
         12    1    3    3    0    0  0.11624862959E+02  0.50268208325E+00 -0.33509228738E+01  0.12108625529E+02  0.00000000000E+00 0. -1.
</event>
<event>
 7    1  0.2497395E-009  0.4778727E+02  0.7816164E-02  0.1312668E+00
        -11   -1    0    0    0    0  0.00000000000E+00  0.00000000000E+00  0.45593999997E+02  0.45594000000E+02  0.51100000000E-03 0. -1.
         11   -1    0    0    0    0 -0.00000000000E+00 -0.00000000000E+00 -0.45593999997E+02  0.45594000000E+02  0.51100000000E-03 0.  1.
    9900012    2    1    2    0    0  0.17351995852E+02 -0.39768895865E+02  0.98311043521E+00  0.47787270231E+02  0.19999996291E+02 0.  0.
        -12    1    1    2    0    0 -0.17351995852E+02  0.39768895865E+02 -0.98311043520E+00  0.43400729769E+02  0.00000000000E+00 0.  1.
         11    1    3    3    0    0  0.96984968580E+01 -0.17043613138E+02  0.35977243156E+01  0.19937131454E+02  0.51100000000E-03 0. -1.
        -11    1    3    3    0    0  0.70308398965E+01 -0.13422357682E+02 -0.79463795552E+01  0.17109568776E+02  0.51100000000E-03 0.  1.
        -12    1    3    3    0    0  0.62265909746E+00 -0.93029250443E+01  0.53317656748E+01  0.10740570001E+02  0.00000000000E+00 0.  1.
</event>
<event>
 7    1  0.2497395E-009  0.4778727E+02  0.7816164E-02  0.1312668E+00
        -11   -1    0    0    0    0  0.00000000000E+00  0.00000000000E+00  0.45593999997E+02  0.45594000000E+02  0.51100000000E-03 0.  1.
         11   -1    0    0    0    0 -0.00000000000E+00 -0.00000000000E+00 -0.45593999997E+02  0.45594000000E+02  0.51100000000E-03 0. -1.
    9900012    2    1    2    0    0  0.76951418882E+01 -0.41594911436E+02 -0.97093547248E+01  0.47787269186E+02  0.19999991525E+02 0.  0.
        -12    1    1    2    0    0 -0.76951418882E+01  0.41594911436E+02  0.97093547248E+01  0.43400730814E+02  0.00000000000E+00 0.  1.
         11    1    3    3    0    0  0.53464173259E+00 -0.49083895011E+01 -0.53483961373E+01  0.72789745692E+01  0.51100000000E-03 0. -1.
        -11    1    3    3    0    0  0.40482387922E+00 -0.15083026093E+02  0.51682563501E+01  0.15949057416E+02  0.51100000000E-03 0.  1.
        -12    1    3    3    0    0  0.67556762764E+01 -0.21603495842E+02 -0.95292149376E+01  0.24559237200E+02  0.00000000000E+00 0.  1.
</event>
<event>
 7    1  0.2497395E-009  0.4778729E+02  0.7816164E-02  0.1312668E+00
        -11   -1    0    0    0    0  0.00000000000E+00  0.00000000000E+00  0.45593999997E+02  0.45594000000E+02  0.51100000000E-03 0. -1.
         11   -1    0    0    0    0 -0.00000000000E+00 -0.00000000000E+00 -0.45593999997E+02  0.45594000000E+02  0.51100000000E-03 0.  1.
    9900012    2    1    2    0    0  0.25393566691E+02 -0.47331809225E+01  0.34876721401E+02  0.47787286565E+02  0.20000070767E+02 0.  0.
        -12    1    1    2    0    0 -0.25393566691E+02  0.47331809225E+01 -0.34876721401E+02  0.43400713435E+02  0.00000000000E+00 0.  1.
         11    1    3    3    0    0  0.65143805532E+01 -0.31137310328E+01  0.13561690190E+02  0.15363981125E+02  0.51100000000E-03 0. -1.
        -11    1    3    3    0    0  0.21284525062E+02 -0.31191681862E+01  0.19651737253E+02  0.29136763626E+02  0.51100000000E-03 0.  1.
        -12    1    3    3    0    0 -0.24053389238E+01  0.14997182965E+01  0.16632939576E+01  0.32865418142E+01  0.00000000000E+00 0.  1.
</event>
<event>
 7    1  0.2497395E-009  0.4778730E+02  0.7816164E-02  0.1312668E+00
        -11   -1    0    0    0    0  0.00000000000E+00  0.00000000000E+00  0.45593999997E+02  0.45594000000E+02  0.51100000000E-03 0. -1.
         11   -1    0    0    0    0 -0.00000000000E+00 -0.00000000000E+00 -0.45593999997E+02  0.45594000000E+02  0.51100000000E-03 0.  1.
    9900012    2    1    2    0    0  0.28119942215E+02  0.17198363468E+02 -0.28233067663E+02  0.47787297635E+02  0.20000121235E+02 0.  0.
        -12    1    1    2    0    0 -0.28119942215E+02 -0.17198363468E+02  0.28233067663E+02  0.43400702365E+02  0.00000000000E+00 0.  1.
         11    1    3    3    0    0  0.32697669226E+01  0.83902877196E+00  0.70386866091E+00  0.34483005033E+01  0.51100000000E-03 0. -1.
        -11    1    3    3    0    0  0.18274467241E+02  0.41064578875E+01 -0.11283178932E+02  0.21866167391E+02  0.51100000000E-03 0.  1.
        -12    1    3    3    0    0  0.65757080516E+01  0.12252876808E+02 -0.17653757392E+02  0.22472829740E+02  0.00000000000E+00 0.  1.
</event>
<event>
 7    1  0.2497395E-009  0.4778727E+02  0.7816164E-02  0.1312668E+00
        -11   -1    0    0    0    0  0.00000000000E+00  0.00000000000E+00  0.45593999997E+02  0.45594000000E+02  0.51100000000E-03 0.  1.
         11   -1    0    0    0    0 -0.00000000000E+00 -0.00000000000E+00 -0.45593999997E+02  0.45594000000E+02  0.51100000000E-03 0. -1.
    9900012    2    1    2    0    0 -0.42600838773E+02 -0.78189011824E+01  0.27671058272E+01  0.47787267811E+02  0.19999985257E+02 0.  0.
        -12    1    1    2    0    0  0.42600838773E+02  0.78189011824E+01 -0.27671058272E+01  0.43400732189E+02  0.00000000000E+00 0.  1.
         11    1    3    3    0    0 -0.11603291217E+02  0.30342584203E+01  0.67636656355E+00  0.12012516939E+02  0.51100000000E-03 0. -1.
        -11    1    3    3    0    0 -0.30615678256E+02 -0.13189904773E+02  0.17429239525E+01  0.33381598631E+02  0.51100000000E-03 0.  1.
        -12    1    3    3    0    0 -0.38186930031E+00  0.23367451708E+01  0.34781531108E+00  0.23931522405E+01  0.00000000000E+00 0.  1.
</event>
<event>
 7    1  0.2497395E-009  0.4778728E+02  0.7816164E-02  0.1312668E+00
        -11   -1    0    0    0    0  0.00000000000E+00  0.00000000000E+00  0.45593999997E+02  0.45594000000E+02  0.51100000000E-03 0.  1.
         11   -1    0    0    0    0 -0.00000000000E+00 -0.00000000000E+00 -0.45593999997E+02  0.45594000000E+02  0.51100000000E-03 0. -1.
    9900012    2    1    2    0    0 -0.90749352262E+01  0.35320228971E+02 -0.23531890846E+02  0.47787275228E+02  0.20000019075E+02 0.  0.
        -12    1    1    2    0    0  0.90749352262E+01 -0.35320228971E+02  0.23531890846E+02  0.43400724772E+02  0.00000000000E+00 0.  1.
         11    1    3    3    0    0  0.11558884027E+01  0.10855272678E+02 -0.12893752568E+01  0.10992520717E+02  0.51100000000E-03 0. -1.
        -11    1    3    3    0    0 -0.12949784079E+02  0.20353833764E+02 -0.16500579612E+02  0.29227462846E+02  0.51100000000E-03 0.  1.
        -12    1    3    3    0    0  0.27189604502E+01  0.41111225293E+01 -0.57419359771E+01  0.75672916652E+01  0.00000000000E+00 0.  1.
</event>
<event>
 7    1  0.2497395E-009  0.4778727E+02  0.7816164E-02  0.1312668E+00
        -11   -1    0    0    0    0  0.00000000000E+00  0.00000000000E+00  0.45593999997E+02  0.45594000000E+02  0.51100000000E-03 0. -1.
         11   -1    0    0    0    0 -0.00000000000E+00 -0.00000000000E+00 -0.45593999997E+02  0.45594000000E+02  0.51100000000E-03 0.  1.
    9900012    2    1    2    0    0 -0.23638542191E+02  0.36168600370E+02 -0.40834713159E+01  0.47787273420E+02  0.20000010833E+02 0.  0.
        -12    1    1    2    0    0  0.23638542191E+02 -0.36168600370E+02  0.40834713159E+01  0.43400726580E+02  0.00000000000E+00 0.  1.
         11    1    3    3    0    0 -0.10575680157E+02  0.45598508127E+01  0.45786374579E+01  0.12393593968E+02  0.51100000000E-03 0. -1.
        -11    1    3    3    0    0 -0.84241698651E+00  0.25060713438E+01 -0.14520400472E+01  0.30163687638E+01  0.51100000000E-03 0.  1.
         12    1    3    3    0    0 -0.12220445047E+02  0.29102678214E+02 -0.72100687266E+01  0.32377310688E+02  0.00000000000E+00 0. -1.
</event>
<event>
 7    1  0.2497395E-009  0.4778727E+02  0.7816164E-02  0.1312668E+00
        -11   -1    0    0    0    0  0.00000000000E+00  0.00000000000E+00  0.45593999997E+02  0.45594000000E+02  0.51100000000E-03 0.  1.
         11   -1    0    0    0    0 -0.00000000000E+00 -0.00000000000E+00 -0.45593999997E+02  0.45594000000E+02  0.51100000000E-03 0. -1.
    9900012    2    1    2    0    0  0.16358739100E+02  0.20979822360E+02 -0.34290843198E+02  0.47787271683E+02  0.20000002912E+02 0.  0.
        -12    1    1    2    0    0 -0.16358739100E+02 -0.20979822360E+02  0.34290843198E+02  0.43400728317E+02  0.00000000000E+00 0.  1.
         11    1    3    3    0    0  0.27607826753E+01  0.16887937916E+02 -0.12637448619E+02  0.21272740206E+02  0.51100000000E-03 0. -1.
        -11    1    3    3    0    0  0.12977014567E+02  0.52347811317E+01 -0.19559178210E+02  0.24049268036E+02  0.51100000000E-03 0.  1.
         12    1    3    3    0    0  0.62094185765E+00 -0.11428966877E+01 -0.20942163692E+01  0.24652634404E+01  0.00000000000E+00 0. -1.
</event>
<event>
 7    1  0.2497395E-009  0.4778727E+02  0.7816164E-02  0.1312668E+00
        -11   -1    0    0    0    0  0.00000000000E+00  0.00000000000E+00  0.45593999997E+02  0.45594000000E+02  0.51100000000E-03 0.  1.
         11   -1    0    0    0    0 -0.00000000000E+00 -0.00000000000E+00 -0.45593999997E+02  0.45594000000E+02  0.51100000000E-03 0. -1.
    9900012    2    1    2    0    0  0.98658346719E+01 -0.31535177491E+02 -0.28139320403E+02  0.47787268832E+02  0.19999989913E+02 0.  0.
        -12    1    1    2    0    0 -0.98658346719E+01  0.31535177491E+02  0.28139320403E+02  0.43400731168E+02  0.00000000000E+00 0.  1.
         11    1    3    3    0    0  0.11339226037E+02 -0.19983983118E+02 -0.13759961873E+02  0.26781974897E+02  0.51100000000E-03 0. -1.
        -11    1    3    3    0    0  0.34207556738E+01 -0.82524429327E+00 -0.31232380357E+01  0.47050200437E+01  0.51100000000E-03 0.  1.
         12    1    3    3    0    0 -0.48941470387E+01 -0.10725950080E+02 -0.11256120494E+02  0.16300273891E+02  0.00000000000E+00 0. -1.
</event>
<event>
 7    1  0.2497395E-009  0.4778727E+02  0.7816164E-02  0.1312668E+00
        -11   -1    0    0    0    0  0.00000000000E+00  0.00000000000E+00  0.45593999997E+02  0.45594000000E+02  0.51100000000E-03 0.  1.
         11   -1    0    0    0    0 -0.00000000000E+00 -0.00000000000E+00 -0.45593999997E+02  0.45594000000E+02  0.51100000000E-03 0. -1.
    9900012    2    1    2    0    0 -0.43381386312E+02  0.86971742878E+00 -0.96049756623E+00  0.47787266800E+02  0.19999980647E+02 0.  0.
        -12    1    1    2    0    0  0.43381386312E+02 -0.86971742878E+00  0.96049756623E+00  0.43400733200E+02  0.00000000000E+00 0.  1.
         11    1    3    3    0    0 -0.23299454268E+02 -0.24341517737E+01 -0.61628842504E+01  0.24223352505E+02  0.51100000000E-03 0. -1.
        -11    1    3    3    0    0 -0.19508886452E+02  0.57847531818E+01  0.52590432312E+01  0.21017077721E+02  0.51100000000E-03 0.  1.
         12    1    3    3    0    0 -0.57304559268E+00 -0.24808839794E+01 -0.56656547043E-01  0.25468365740E+01  0.00000000000E+00 0. -1.
</event>
<event>
 7    1  0.2497395E-009  0.4778727E+02  0.7816164E-02  0.1312668E+00
        -11   -1    0    0    0    0  0.00000000000E+00  0.00000000000E+00  0.45593999997E+02  0.45594000000E+02  0.51100000000E-03 0. -1.
         11   -1    0    0    0    0 -0.00000000000E+00 -0.00000000000E+00 -0.45593999997E+02  0.45594000000E+02  0.51100000000E-03 0.  1.
    9900012    2    1    2    0    0  0.10446355648E+02 -0.60855909753E+01  0.41682880264E+02  0.47787271078E+02  0.20000000152E+02 0.  0.
        -12    1    1    2    0    0 -0.10446355648E+02  0.60855909753E+01 -0.41682880264E+02  0.43400728922E+02  0.00000000000E+00 0.  1.
         11    1    3    3    0    0  0.44729286052E+01 -0.51764793969E+01  0.31383971067E+02  0.32120969311E+02  0.51100000000E-03 0. -1.
        -11    1    3    3    0    0 -0.10592992182E+01 -0.13729640067E+01 -0.12492830388E+01  0.21372536980E+01  0.51100000000E-03 0.  1.
        -12    1    3    3    0    0  0.70327262615E+01  0.46385242825E+00  0.11548192236E+02  0.13529048069E+02  0.00000000000E+00 0.  1.
</event>
<event>
 7    1  0.2497395E-009  0.4778726E+02  0.7816164E-02  0.1312668E+00
        -11   -1    0    0    0    0  0.00000000000E+00  0.00000000000E+00  0.45593999997E+02  0.45594000000E+02  0.51100000000E-03 0.  1.
         11   -1    0    0    0    0 -0.00000000000E+00 -0.00000000000E+00 -0.45593999997E+02  0.45594000000E+02  0.51100000000E-03 0. -1.
    9900012    2    1    2    0    0  0.10671656498E+02  0.41193066931E+02 -0.85364427564E+01  0.47787264171E+02  0.19999968660E+02 0.  0.
        -12    1    1    2    0    0 -0.10671656498E+02 -0.41193066931E+02  0.85364427564E+01  0.43400735829E+02  0.00000000000E+00 0.  1.
         11    1    3    3    0    0  0.91767989484E+01  0.35076181360E+02 -0.45797075918E+01  0.36544847238E+02  0.51100000000E-03 0. -1.
        -11    1    3    3    0    0 -0.33369663259E+01  0.37759010631E+01 -0.10888432421E+01  0.51554197662E+01  0.51100000000E-03 0.  1.
         12    1    3    3    0    0  0.48318238755E+01  0.23409845080E+01 -0.28678919225E+01  0.60869971669E+01  0.00000000000E+00 0. -1.
</event>
<event>
 7    1  0.2497395E-009  0.4778726E+02  0.7816164E-02  0.1312668E+00
        -11   -1    0    0    0    0  0.00000000000E+00  0.00000000000E+00  0.45593999997E+02  0.45594000000E+02  0.51100000000E-03 0.  1.
         11   -1    0    0    0    0 -0.00000000000E+00 -0.00000000000E+00 -0.45593999997E+02  0.45594000000E+02  0.51100000000E-03 0. -1.
    9900012    2    1    2    0    0 -0.55222494268E+01 -0.24412406755E+02 -0.35456494832E+02  0.47787264199E+02  0.19999968789E+02 0.  0.
        -12    1    1    2    0    0  0.55222494268E+01  0.24412406755E+02  0.35456494832E+02  0.43400735801E+02  0.00000000000E+00 0.  1.
         11    1    3    3    0    0  0.45465017451E+01  0.19470191631E+00 -0.30101388063E+01  0.54561454204E+01  0.51100000000E-03 0. -1.
        -11    1    3    3    0    0 -0.94025363283E+01 -0.16934480465E+02 -0.24922193666E+02  0.31564221128E+02  0.51100000000E-03 0.  1.
         12    1    3    3    0    0 -0.66621484353E+00 -0.76726282065E+01 -0.75241623595E+01  0.10766897651E+02  0.00000000000E+00 0. -1.
</event>
<event>
 7    1  0.2497395E-009  0.4778727E+02  0.7816164E-02  0.1312668E+00
        -11   -1    0    0    0    0  0.00000000000E+00  0.00000000000E+00  0.45593999997E+02  0.45594000000E+02  0.51100000000E-03 0.  1.
         11   -1    0    0    0    0 -0.00000000000E+00 -0.00000000000E+00 -0.45593999997E+02  0.45594000000E+02  0.51100000000E-03 0. -1.
    9900012    2    1    2    0    0  0.14454048775E+02 -0.37131056330E+02 -0.17204305416E+02  0.47787274257E+02  0.20000014647E+02 0.  0.
        -12    1    1    2    0    0 -0.14454048775E+02  0.37131056330E+02  0.17204305416E+02  0.43400725743E+02  0.00000000000E+00 0.  1.
         11    1    3    3    0    0  0.40092478005E+01 -0.15794549797E+02 -0.62747530948E+00  0.16307531902E+02  0.51100000000E-03 0. -1.
        -11    1    3    3    0    0  0.67878829427E+00 -0.15571704583E+01  0.20117781120E+01  0.26330181955E+01  0.51100000000E-03 0.  1.
         12    1    3    3    0    0  0.97660126804E+01 -0.19779336075E+02 -0.18588608219E+02  0.28846724160E+02  0.00000000000E+00 0. -1.
</event>
<event>
 7    1  0.2497395E-009  0.4778727E+02  0.7816164E-02  0.1312668E+00
        -11   -1    0    0    0    0  0.00000000000E+00  0.00000000000E+00  0.45593999997E+02  0.45594000000E+02  0.51100000000E-03 0. -1.
         11   -1    0    0    0    0 -0.00000000000E+00 -0.00000000000E+00 -0.45593999997E+02  0.45594000000E+02  0.51100000000E-03 0.  1.
    9900012    2    1    2    0    0  0.19101615011E+02  0.37672194250E+02  0.99778378360E+01  0.47787272316E+02  0.20000005798E+02 0.  0.
        -12    1    1    2    0    0 -0.19101615011E+02 -0.37672194250E+02 -0.99778378360E+01  0.43400727684E+02  0.00000000000E+00 0.  1.
         11    1    3    3    0    0  0.31415326456E+01  0.41548022020E+01  0.27088015336E+01  0.58710488595E+01  0.51100000000E-03 0. -1.
        -11    1    3    3    0    0 -0.12910407531E+01  0.17080941901E+02  0.46436926919E+00  0.17135956394E+02  0.51100000000E-03 0.  1.
        -12    1    3    3    0    0  0.17251123118E+02  0.16436450146E+02  0.68046670332E+01  0.24780267063E+02  0.00000000000E+00 0.  1.
</event>
<event>
 7    1  0.2497395E-009  0.4778727E+02  0.7816164E-02  0.1312668E+00
        -11   -1    0    0    0    0  0.00000000000E+00  0.00000000000E+00  0.45593999997E+02  0.45594000000E+02  0.51100000000E-03 0.  1.
         11   -1    0    0    0    0 -0.00000000000E+00 -0.00000000000E+00 -0.45593999997E+02  0.45594000000E+02  0.51100000000E-03 0. -1.
    9900012    2    1    2    0    0 -0.41672500376E+00 -0.96617045444E+01 -0.42309586935E+02  0.47787270271E+02  0.19999996474E+02 0.  0.
        -12    1    1    2    0    0  0.41672500376E+00  0.96617045444E+01  0.42309586935E+02  0.43400729729E+02  0.00000000000E+00 0.  1.
         11    1    3    3    0    0 -0.65767082657E+01 -0.58586669141E+00 -0.29173782036E+02  0.29911634692E+02  0.51100000000E-03 0. -1.
        -11    1    3    3    0    0  0.14650896967E+01 -0.36068444747E+01 -0.14671360523E+01  0.41603249082E+01  0.51100000000E-03 0.  1.
         12    1    3    3    0    0  0.46948935652E+01 -0.54689933782E+01 -0.11668668846E+02  0.13715310671E+02  0.00000000000E+00 0. -1.
</event>
<event>
 7    1  0.2497395E-009  0.4778727E+02  0.7816164E-02  0.1312668E+00
        -11   -1    0    0    0    0  0.00000000000E+00  0.00000000000E+00  0.45593999997E+02  0.45594000000E+02  0.51100000000E-03 0.  1.
         11   -1    0    0    0    0 -0.00000000000E+00 -0.00000000000E+00 -0.45593999997E+02  0.45594000000E+02  0.51100000000E-03 0. -1.
    9900012    2    1    2    0    0  0.28072082151E+02  0.19124671086E+01 -0.33044273182E+02  0.47787270549E+02  0.19999997741E+02 0.  0.
        -12    1    1    2    0    0 -0.28072082151E+02 -0.19124671086E+01  0.33044273182E+02  0.43400729451E+02  0.00000000000E+00 0.  1.
         11    1    3    3    0    0  0.97592386654E+01  0.81205070062E+01 -0.18135092856E+02  0.22137456189E+02  0.51100000000E-03 0. -1.
        -11    1    3    3    0    0  0.15007717200E+02 -0.42263584024E+01 -0.75070495369E+01  0.17304608459E+02  0.51100000000E-03 0.  1.
        -12    1    3    3    0    0  0.33051262854E+01 -0.19816814951E+01 -0.74021307894E+01  0.83452059012E+01  0.00000000000E+00 0.  1.
</event>
<event>
 7    1  0.2497395E-009  0.4778724E+02  0.7816164E-02  0.1312668E+00
        -11   -1    0    0    0    0  0.00000000000E+00  0.00000000000E+00  0.45593999997E+02  0.45594000000E+02  0.51100000000E-03 0.  1.
         11   -1    0    0    0    0 -0.00000000000E+00 -0.00000000000E+00 -0.45593999997E+02  0.45594000000E+02  0.51100000000E-03 0. -1.
    9900012    2    1    2    0    0 -0.26478365029E+02 -0.65817593893E+00 -0.34381518188E+02  0.47787241907E+02  0.19999867149E+02 0.  0.
        -12    1    1    2    0    0  0.26478365029E+02  0.65817593893E+00  0.34381518188E+02  0.43400758093E+02  0.00000000000E+00 0.  1.
         11    1    3    3    0    0 -0.58679511941E+01 -0.14775258487E+01 -0.99087498960E+01  0.11610308291E+02  0.51100000000E-03 0. -1.
        -11    1    3    3    0    0  0.42719690209E+00  0.15584421429E+01 -0.11145889253E+02  0.11262419216E+02  0.51100000000E-03 0.  1.
        -12    1    3    3    0    0 -0.21037610737E+02 -0.73909223315E+00 -0.13326879039E+02  0.24914514399E+02  0.00000000000E+00 0.  1.
</event>
<event>
 7    1  0.2497395E-009  0.4778727E+02  0.7816164E-02  0.1312668E+00
        -11   -1    0    0    0    0  0.00000000000E+00  0.00000000000E+00  0.45593999997E+02  0.45594000000E+02  0.51100000000E-03 0.  1.
         11   -1    0    0    0    0 -0.00000000000E+00 -0.00000000000E+00 -0.45593999997E+02  0.45594000000E+02  0.51100000000E-03 0. -1.
    9900012    2    1    2    0    0  0.14025350348E+02 -0.98630676270E+01 -0.39870199165E+02  0.47787270319E+02  0.19999996693E+02 0.  0.
        -12    1    1    2    0    0 -0.14025350348E+02  0.98630676270E+01  0.39870199165E+02  0.43400729681E+02  0.00000000000E+00 0.  1.
         11    1    3    3    0    0  0.53427903114E+01 -0.18002945209E+01 -0.25985659561E+01  0.62079798617E+01  0.51100000000E-03 0. -1.
        -11    1    3    3    0    0  0.94358432419E+01 -0.89252987865E+01 -0.38042660907E+02  0.40198758006E+02  0.51100000000E-03 0.  1.
        -12    1    3    3    0    0 -0.75328320503E+00  0.86252568050E+00  0.77102769847E+00  0.13805324510E+01  0.00000000000E+00 0.  1.
</event>
<event>
 7    1  0.2497395E-009  0.4778727E+02  0.7816164E-02  0.1312668E+00
        -11   -1    0    0    0    0  0.00000000000E+00  0.00000000000E+00  0.45593999997E+02  0.45594000000E+02  0.51100000000E-03 0.  1.
         11   -1    0    0    0    0 -0.00000000000E+00 -0.00000000000E+00 -0.45593999997E+02  0.45594000000E+02  0.51100000000E-03 0. -1.
    9900012    2    1    2    0    0 -0.14497208453E+02 -0.24555724046E+02  0.32718043899E+02  0.47787273820E+02  0.20000012655E+02 0.  0.
        -12    1    1    2    0    0  0.14497208453E+02  0.24555724046E+02 -0.32718043899E+02  0.43400726180E+02  0.00000000000E+00 0.  1.
         11    1    3    3    0    0 -0.13814413319E+02 -0.12117691262E+02  0.17311151163E+02  0.25245839493E+02  0.51100000000E-03 0.  1.
        -11    1    3    3    0    0  0.32767761308E+01 -0.97894501840E+01  0.58563564432E+01  0.11868761846E+02  0.51100000000E-03 0. -1.
         12    1    3    3    0    0 -0.39595712650E+01 -0.26485826003E+01  0.95505362930E+01  0.10672672480E+02  0.00000000000E+00 0. -1.
</event>
<event>
 7    1  0.2497395E-009  0.4778727E+02  0.7816164E-02  0.1312668E+00
        -11   -1    0    0    0    0  0.00000000000E+00  0.00000000000E+00  0.45593999997E+02  0.45594000000E+02  0.51100000000E-03 0.  1.
         11   -1    0    0    0    0 -0.00000000000E+00 -0.00000000000E+00 -0.45593999997E+02  0.45594000000E+02  0.51100000000E-03 0. -1.
    9900012    2    1    2    0    0  0.92874362200E+01 -0.38439238958E+02 -0.17882726255E+02  0.47787268883E+02  0.19999990144E+02 0.  0.
        -12    1    1    2    0    0 -0.92874362200E+01  0.38439238958E+02  0.17882726255E+02  0.43400731117E+02  0.00000000000E+00 0.  1.
         11    1    3    3    0    0  0.47443221398E+01 -0.35591620379E+01 -0.27979606634E+01  0.65578053579E+01  0.51100000000E-03 0. -1.
        -11    1    3    3    0    0 -0.65720810839E+00 -0.32385713767E+02 -0.11193187305E+02  0.34271764195E+02  0.51100000000E-03 0.  1.
        -12    1    3    3    0    0  0.52003221886E+01 -0.24943631527E+01 -0.38915782872E+01  0.69576993301E+01  0.00000000000E+00 0.  1.
</event>
<event>
 7    1  0.2497395E-009  0.4778729E+02  0.7816164E-02  0.1312668E+00
        -11   -1    0    0    0    0  0.00000000000E+00  0.00000000000E+00  0.45593999997E+02  0.45594000000E+02  0.51100000000E-03 0. -1.
         11   -1    0    0    0    0 -0.00000000000E+00 -0.00000000000E+00 -0.45593999997E+02  0.45594000000E+02  0.51100000000E-03 0.  1.
    9900012    2    1    2    0    0 -0.28291002833E+02 -0.49319838138E+01  0.32540993350E+02  0.47787290860E+02  0.20000090348E+02 0.  0.
        -12    1    1    2    0    0  0.28291002833E+02  0.49319838138E+01 -0.32540993350E+02  0.43400709140E+02  0.00000000000E+00 0.  1.
         11    1    3    3    0    0 -0.66577808145E+01 -0.84647208572E+01  0.13591900905E+02  0.17341202814E+02  0.51100000000E-03 0. -1.
        -11    1    3    3    0    0 -0.15249085259E+02  0.10260461806E+01  0.73222766177E+01  0.16947067803E+02  0.51100000000E-03 0.  1.
        -12    1    3    3    0    0 -0.63841367599E+01  0.25066908628E+01  0.11626815827E+02  0.13499020243E+02  0.00000000000E+00 0.  1.
</event>
<event>
 7    1  0.2497395E-009  0.4778727E+02  0.7816164E-02  0.1312668E+00
        -11   -1    0    0    0    0  0.00000000000E+00  0.00000000000E+00  0.45593999997E+02  0.45594000000E+02  0.51100000000E-03 0.  1.
         11   -1    0    0    0    0 -0.00000000000E+00 -0.00000000000E+00 -0.45593999997E+02  0.45594000000E+02  0.51100000000E-03 0. -1.
    9900012    2    1    2    0    0  0.27110779832E+02 -0.32119026139E+02 -0.10816511185E+02  0.47787272616E+02  0.20000007166E+02 0.  0.
        -12    1    1    2    0    0 -0.27110779832E+02  0.32119026139E+02  0.10816511185E+02  0.43400727384E+02  0.00000000000E+00 0.  1.
         11    1    3    3    0    0  0.20352583112E+02 -0.29883174831E+02 -0.11547596969E+02  0.37954957164E+02  0.51100000000E-03 0. -1.
        -11    1    3    3    0    0  0.75177234225E+01 -0.31116612311E+01  0.17111865387E+01  0.83142504597E+01  0.51100000000E-03 0.  1.
         12    1    3    3    0    0 -0.75952670162E+00  0.87580992342E+00 -0.98010075441E+00  0.15180649924E+01  0.00000000000E+00 0. -1.
</event>
<event>
 7    1  0.2497395E-009  0.4778728E+02  0.7816164E-02  0.1312668E+00
        -11   -1    0    0    0    0  0.00000000000E+00  0.00000000000E+00  0.45593999997E+02  0.45594000000E+02  0.51100000000E-03 0.  1.
         11   -1    0    0    0    0 -0.00000000000E+00 -0.00000000000E+00 -0.45593999997E+02  0.45594000000E+02  0.51100000000E-03 0. -1.
    9900012    2    1    2    0    0 -0.37614992901E+02 -0.65858460899E+01 -0.20624299588E+02  0.47787276582E+02  0.20000025248E+02 0.  0.
        -12    1    1    2    0    0  0.37614992901E+02  0.65858460899E+01  0.20624299588E+02  0.43400723418E+02  0.00000000000E+00 0.  1.
         11    1    3    3    0    0 -0.22159290431E+02 -0.83360400629E-01 -0.50767168400E+01  0.22733546918E+02  0.51100000000E-03 0. -1.
        -11    1    3    3    0    0 -0.11527200802E+02 -0.92366127231E+01 -0.12728883087E+02  0.19499124028E+02  0.51100000000E-03 0.  1.
         12    1    3    3    0    0 -0.39285016685E+01  0.27341270338E+01 -0.28186996608E+01  0.55546056363E+01  0.00000000000E+00 0. -1.
</event>
<event>
 7    1  0.2497395E-009  0.4778728E+02  0.7816164E-02  0.1312668E+00
        -11   -1    0    0    0    0  0.00000000000E+00  0.00000000000E+00  0.45593999997E+02  0.45594000000E+02  0.51100000000E-03 0.  1.
         11   -1    0    0    0    0 -0.00000000000E+00 -0.00000000000E+00 -0.45593999997E+02  0.45594000000E+02  0.51100000000E-03 0. -1.
    9900012    2    1    2    0    0 -0.15139221427E+02 -0.37780832210E+02 -0.15067693807E+02  0.47787277603E+02  0.20000029902E+02 0.  0.
        -12    1    1    2    0    0  0.15139221427E+02  0.37780832210E+02  0.15067693807E+02  0.43400722397E+02  0.00000000000E+00 0.  1.
         11    1    3    3    0    0 -0.14971838838E+02 -0.12940741711E+02 -0.39276679604E+01  0.20175364435E+02  0.51100000000E-03 0. -1.
        -11    1    3    3    0    0 -0.21992012301E+01 -0.14033558011E+02 -0.52997941191E+01  0.15161301213E+02  0.51100000000E-03 0.  1.
         12    1    3    3    0    0  0.20318186411E+01 -0.10806532489E+02 -0.58402317274E+01  0.12450611955E+02  0.00000000000E+00 0. -1.
</event>
<event>
 7    1  0.2497395E-009  0.4778727E+02  0.7816164E-02  0.1312668E+00
        -11   -1    0    0    0    0  0.00000000000E+00  0.00000000000E+00  0.45593999997E+02  0.45594000000E+02  0.51100000000E-03 0. -1.
         11   -1    0    0    0    0 -0.00000000000E+00 -0.00000000000E+00 -0.45593999997E+02  0.45594000000E+02  0.51100000000E-03 0.  1.
    9900012    2    1    2    0    0  0.30204967283E+02 -0.12565888627E+02  0.28519846730E+02  0.47787271169E+02  0.20000000568E+02 0.  0.
        -12    1    1    2    0    0 -0.30204967283E+02  0.12565888627E+02 -0.28519846730E+02  0.43400728831E+02  0.00000000000E+00 0.  1.
         11    1    3    3    0    0  0.12079192101E+02 -0.60223526645E+01  0.54808287669E+01  0.14567604390E+02  0.51100000000E-03 0. -1.
        -11    1    3    3    0    0  0.30956650222E+01 -0.78346905745E+01  0.53848561788E+01  0.99981095541E+01  0.51100000000E-03 0.  1.
        -12    1    3    3    0    0  0.15030110160E+02  0.12911546116E+01  0.17654161784E+02  0.23221557225E+02  0.00000000000E+00 0.  1.
</event>
<event>
 7    1  0.2497395E-009  0.4778729E+02  0.7816164E-02  0.1312668E+00
        -11   -1    0    0    0    0  0.00000000000E+00  0.00000000000E+00  0.45593999997E+02  0.45594000000E+02  0.51100000000E-03 0. -1.
         11   -1    0    0    0    0 -0.00000000000E+00 -0.00000000000E+00 -0.45593999997E+02  0.45594000000E+02  0.51100000000E-03 0.  1.
    9900012    2    1    2    0    0  0.30521630739E+02  0.27725884688E+02 -0.13539840008E+02  0.47787286963E+02  0.20000072578E+02 0.  0.
        -12    1    1    2    0    0 -0.30521630739E+02 -0.27725884688E+02  0.13539840008E+02  0.43400713037E+02  0.00000000000E+00 0.  1.
         11    1    3    3    0    0  0.14022451480E+02  0.12289154273E+02 -0.11115524840E+02  0.21707311003E+02  0.51100000000E-03 0. -1.
        -11    1    3    3    0    0  0.36558091838E+00  0.71159874538E+01  0.19900378719E+01  0.73980523007E+01  0.51100000000E-03 0.  1.
        -12    1    3    3    0    0  0.16133598341E+02  0.83207429607E+01 -0.44143530405E+01  0.18681923659E+02  0.00000000000E+00 0.  1.
</event>
<event>
 7    1  0.2497395E-009  0.4778727E+02  0.7816164E-02  0.1312668E+00
        -11   -1    0    0    0    0  0.00000000000E+00  0.00000000000E+00  0.45593999997E+02  0.45594000000E+02  0.51100000000E-03 0. -1.
         11   -1    0    0    0    0 -0.00000000000E+00 -0.00000000000E+00 -0.45593999997E+02  0.45594000000E+02  0.51100000000E-03 0.  1.
    9900012    2    1    2    0    0  0.18282433241E+02 -0.23347665099E+01  0.39292804000E+02  0.47787274821E+02  0.20000017221E+02 0.  0.
        -12    1    1    2    0    0 -0.18282433241E+02  0.23347665099E+01 -0.39292804000E+02  0.43400725179E+02  0.00000000000E+00 0.  1.
         11    1    3    3    0    0  0.96740868586E+01  0.36693585362E+01  0.50126931439E+01  0.11496923129E+02  0.51100000000E-03 0. -1.
        -11    1    3    3    0    0  0.63796687303E+01 -0.52244189486E+01  0.31857835938E+02  0.32907695716E+02  0.51100000000E-03 0.  1.
        -12    1    3    3    0    0  0.22286776522E+01 -0.77970609743E+00  0.24222749179E+01  0.33826559762E+01  0.00000000000E+00 0.  1.
</event>
<event>
 7    1  0.2497395E-009  0.4778727E+02  0.7816164E-02  0.1312668E+00
        -11   -1    0    0    0    0  0.00000000000E+00  0.00000000000E+00  0.45593999997E+02  0.45594000000E+02  0.51100000000E-03 0.  1.
         11   -1    0    0    0    0 -0.00000000000E+00 -0.00000000000E+00 -0.45593999997E+02  0.45594000000E+02  0.51100000000E-03 0. -1.
    9900012    2    1    2    0    0 -0.15012234771E+02 -0.29497494092E+02 -0.28074075817E+02  0.47787273238E+02  0.20000010000E+02 0.  0.
        -12    1    1    2    0    0  0.15012234771E+02  0.29497494092E+02  0.28074075817E+02  0.43400726762E+02  0.00000000000E+00 0.  1.
         11    1    3    3    0    0 -0.65954572208E+01 -0.10243625889E+02 -0.70445212149E+01  0.14073279885E+02  0.51100000000E-03 0. -1.
        -11    1    3    3    0    0 -0.12130401479E+02 -0.15257328100E+02 -0.20411642070E+02  0.28223533319E+02  0.51100000000E-03 0.  1.
        -12    1    3    3    0    0  0.37136239288E+01 -0.39965401039E+01 -0.61791253220E+00  0.54904600339E+01  0.00000000000E+00 0.  1.
</event>
<event>
 7    1  0.2497395E-009  0.4778727E+02  0.7816164E-02  0.1312668E+00
        -11   -1    0    0    0    0  0.00000000000E+00  0.00000000000E+00  0.45593999997E+02  0.45594000000E+02  0.51100000000E-03 0.  1.
         11   -1    0    0    0    0 -0.00000000000E+00 -0.00000000000E+00 -0.45593999997E+02  0.45594000000E+02  0.51100000000E-03 0. -1.
    9900012    2    1    2    0    0 -0.37306598433E+02  0.20641228046E+02 -0.81105551662E+01  0.47787266285E+02  0.19999978300E+02 0.  0.
        -12    1    1    2    0    0  0.37306598433E+02 -0.20641228046E+02  0.81105551662E+01  0.43400733715E+02  0.00000000000E+00 0.  1.
         11    1    3    3    0    0 -0.72671332999E+00  0.10840784267E+01  0.10324273542E+01  0.16641048050E+01  0.51100000000E-03 0. -1.
        -11    1    3    3    0    0 -0.30676231152E+02  0.71965708477E+01 -0.62518677096E+01  0.32123319252E+02  0.51100000000E-03 0.  1.
        -12    1    3    3    0    0 -0.59036539506E+01  0.12360578772E+02 -0.28911148108E+01  0.13999842228E+02  0.00000000000E+00 0.  1.
</event>
<event>
 7    1  0.2497395E-009  0.4778727E+02  0.7816164E-02  0.1312668E+00
        -11   -1    0    0    0    0  0.00000000000E+00  0.00000000000E+00  0.45593999997E+02  0.45594000000E+02  0.51100000000E-03 0.  1.
         11   -1    0    0    0    0 -0.00000000000E+00 -0.00000000000E+00 -0.45593999997E+02  0.45594000000E+02  0.51100000000E-03 0. -1.
    9900012    2    1    2    0    0 -0.20563704843E+02  0.21517782139E+02 -0.31587057689E+02  0.47787272835E+02  0.20000008162E+02 0.  0.
        -12    1    1    2    0    0  0.20563704843E+02 -0.21517782139E+02  0.31587057689E+02  0.43400727165E+02  0.00000000000E+00 0.  1.
         11    1    3    3    0    0 -0.19223665355E+02  0.12893062277E+02 -0.20131598575E+02  0.30676727759E+02  0.51100000000E-03 0. -1.
        -11    1    3    3    0    0  0.17669165632E+01  0.91660125735E+01 -0.98540272838E+01  0.13573490141E+02  0.51100000000E-03 0.  1.
        -12    1    3    3    0    0 -0.31069560506E+01 -0.54129271164E+00 -0.16014318299E+01  0.35370549340E+01  0.00000000000E+00 0.  1.
</event>
<event>
 7    1  0.2497395E-009  0.4778727E+02  0.7816164E-02  0.1312668E+00
        -11   -1    0    0    0    0  0.00000000000E+00  0.00000000000E+00  0.45593999997E+02  0.45594000000E+02  0.51100000000E-03 0. -1.
         11   -1    0    0    0    0 -0.00000000000E+00 -0.00000000000E+00 -0.45593999997E+02  0.45594000000E+02  0.51100000000E-03 0.  1.
    9900012    2    1    2    0    0 -0.26445820270E+02 -0.32304110185E+02 -0.11861129415E+02  0.47787270334E+02  0.19999996761E+02 0.  0.
        -12    1    1    2    0    0  0.26445820270E+02  0.32304110185E+02  0.11861129415E+02  0.43400729666E+02  0.00000000000E+00 0.  1.
         11    1    3    3    0    0 -0.25693100459E+02 -0.24267759570E+02 -0.52510832458E+01  0.35730007574E+02  0.51100000000E-03 0. -1.
        -11    1    3    3    0    0  0.21009843328E+01 -0.80479669948E+00 -0.95673219853E+00  0.24448250766E+01  0.51100000000E-03 0.  1.
         12    1    3    3    0    0 -0.28537041434E+01 -0.72315539150E+01 -0.56533139702E+01  0.96124376830E+01  0.00000000000E+00 0. -1.
</event>
<event>
 7    1  0.2497395E-009  0.4778727E+02  0.7816164E-02  0.1312668E+00
        -11   -1    0    0    0    0  0.00000000000E+00  0.00000000000E+00  0.45593999997E+02  0.45594000000E+02  0.51100000000E-03 0. -1.
         11   -1    0    0    0    0 -0.00000000000E+00 -0.00000000000E+00 -0.45593999997E+02  0.45594000000E+02  0.51100000000E-03 0.  1.
    9900012    2    1    2    0    0 -0.41506951697E+02  0.12092741837E+02 -0.38159741684E+01  0.47787273011E+02  0.20000008967E+02 0.  0.
        -12    1    1    2    0    0  0.41506951697E+02 -0.12092741837E+02  0.38159741684E+01  0.43400726989E+02  0.00000000000E+00 0.  1.
         11    1    3    3    0    0 -0.32240554769E+02  0.69128496467E+01 -0.90960574161E+01  0.34204957576E+02  0.51100000000E-03 0. -1.
        -11    1    3    3    0    0  0.66099100120E+00 -0.79746438397E-01 -0.60500149944E+00  0.89960862243E+00  0.51100000000E-03 0.  1.
         12    1    3    3    0    0 -0.99273879294E+01  0.52596386292E+01  0.58850847471E+01  0.12682706812E+02  0.00000000000E+00 0. -1.
</event>
<event>
 7    1  0.2497395E-009  0.4778727E+02  0.7816164E-02  0.1312668E+00
        -11   -1    0    0    0    0  0.00000000000E+00  0.00000000000E+00  0.45593999997E+02  0.45594000000E+02  0.51100000000E-03 0. -1.
         11   -1    0    0    0    0 -0.00000000000E+00 -0.00000000000E+00 -0.45593999997E+02  0.45594000000E+02  0.51100000000E-03 0.  1.
    9900012    2    1    2    0    0  0.97757649422E+01 -0.62534266850E+01  0.41820477264E+02  0.47787271387E+02  0.20000001564E+02 0.  0.
        -12    1    1    2    0    0 -0.97757649422E+01  0.62534266850E+01 -0.41820477264E+02  0.43400728613E+02  0.00000000000E+00 0.  1.
         11    1    3    3    0    0  0.46896914429E+01  0.61516320600E+01  0.71476668567E+01  0.10532090229E+02  0.51100000000E-03 0. -1.
        -11    1    3    3    0    0  0.35294662572E+01 -0.67659822718E+01  0.16866938194E+02  0.18512948238E+02  0.51100000000E-03 0.  1.
         12    1    3    3    0    0  0.15566072421E+01 -0.56390764732E+01  0.17805872213E+02  0.18742232921E+02  0.00000000000E+00 0. -1.
</event>
<event>
 7    1  0.2497395E-009  0.4778728E+02  0.7816164E-02  0.1312668E+00
        -11   -1    0    0    0    0  0.00000000000E+00  0.00000000000E+00  0.45593999997E+02  0.45594000000E+02  0.51100000000E-03 0.  1.
         11   -1    0    0    0    0 -0.00000000000E+00 -0.00000000000E+00 -0.45593999997E+02  0.45594000000E+02  0.51100000000E-03 0. -1.
    9900012    2    1    2    0    0  0.43364286742E+02  0.10385669018E+01 -0.14430200706E+01  0.47787282347E+02  0.20000051535E+02 0.  0.
        -12    1    1    2    0    0 -0.43364286742E+02 -0.10385669018E+01  0.14430200706E+01  0.43400717653E+02  0.00000000000E+00 0.  1.
         11    1    3    3    0    0  0.58348802525E+01  0.13353704488E+00  0.53659172291E+00  0.58610230030E+01  0.51100000000E-03 0. -1.
        -11    1    3    3    0    0  0.12717221723E+02 -0.82820686489E+01 -0.29042501863E+01  0.15451700841E+02  0.51100000000E-03 0.  1.
        -12    1    3    3    0    0  0.24812184766E+02  0.91870985058E+01  0.92463839277E+00  0.26474558504E+02  0.00000000000E+00 0.  1.
</event>
<event>
 7    1  0.2497395E-009  0.4778726E+02  0.7816164E-02  0.1312668E+00
        -11   -1    0    0    0    0  0.00000000000E+00  0.00000000000E+00  0.45593999997E+02  0.45594000000E+02  0.51100000000E-03 0. -1.
         11   -1    0    0    0    0 -0.00000000000E+00 -0.00000000000E+00 -0.45593999997E+02  0.45594000000E+02  0.51100000000E-03 0.  1.
    9900012    2    1    2    0    0  0.38312855897E+02  0.13296051925E+02  0.15458479288E+02  0.47787256854E+02  0.19999935299E+02 0.  0.
        -12    1    1    2    0    0 -0.38312855897E+02 -0.13296051925E+02 -0.15458479288E+02  0.43400743146E+02  0.00000000000E+00 0.  1.
         11    1    3    3    0    0  0.30326189089E+02  0.69755408144E+01  0.18117891155E+02  0.36008247589E+02  0.51100000000E-03 0. -1.
        -11    1    3    3    0    0  0.16437301907E+01  0.40902781665E+01  0.33053463354E+00  0.44205743772E+01  0.51100000000E-03 0.  1.
         12    1    3    3    0    0  0.63429366172E+01  0.22302329438E+01 -0.29899465004E+01  0.73584348872E+01  0.00000000000E+00 0. -1.
</event>
<event>
 7    1  0.2497395E-009  0.4778728E+02  0.7816164E-02  0.1312668E+00
        -11   -1    0    0    0    0  0.00000000000E+00  0.00000000000E+00  0.45593999997E+02  0.45594000000E+02  0.51100000000E-03 0.  1.
         11   -1    0    0    0    0 -0.00000000000E+00 -0.00000000000E+00 -0.45593999997E+02  0.45594000000E+02  0.51100000000E-03 0. -1.
    9900012    2    1    2    0    0 -0.17170698853E+02  0.35858267121E+02 -0.17406160585E+02  0.47787278274E+02  0.20000032964E+02 0.  0.
        -12    1    1    2    0    0  0.17170698853E+02 -0.35858267121E+02  0.17406160585E+02  0.43400721726E+02  0.00000000000E+00 0.  1.
         11    1    3    3    0    0 -0.17735654509E+02  0.16000630368E+02 -0.11539390777E+02  0.26527931559E+02  0.51100000000E-03 0. -1.
        -11    1    3    3    0    0  0.20296100460E+01  0.15380801445E+02 -0.31802503210E+01  0.15836740902E+02  0.51100000000E-03 0.  1.
         12    1    3    3    0    0 -0.14646543905E+01  0.44768353081E+01 -0.26865194874E+01  0.54226058142E+01  0.00000000000E+00 0. -1.
</event>
<event>
 7    1  0.2497395E-009  0.4778727E+02  0.7816164E-02  0.1312668E+00
        -11   -1    0    0    0    0  0.00000000000E+00  0.00000000000E+00  0.45593999997E+02  0.45594000000E+02  0.51100000000E-03 0.  1.
         11   -1    0    0    0    0 -0.00000000000E+00 -0.00000000000E+00 -0.45593999997E+02  0.45594000000E+02  0.51100000000E-03 0. -1.
    9900012    2    1    2    0    0  0.31845900802E+02  0.22736731633E+02 -0.18775053263E+02  0.47787274335E+02  0.20000015003E+02 0.  0.
        -12    1    1    2    0    0 -0.31845900802E+02 -0.22736731633E+02  0.18775053263E+02  0.43400725665E+02  0.00000000000E+00 0.  1.
         11    1    3    3    0    0  0.15728018307E+02  0.12556780278E+02 -0.14313356025E+02  0.24696466382E+02  0.51100000000E-03 0. -1.
        -11    1    3    3    0    0  0.15468613578E+02  0.53406026953E+01  0.16324730779E+00  0.16365411487E+02  0.51100000000E-03 0.  1.
        -12    1    3    3    0    0  0.64926891630E+00  0.48393486594E+01 -0.46249445460E+01  0.67253964661E+01  0.00000000000E+00 0.  1.
</event>
<event>
 7    1  0.2497395E-009  0.4778730E+02  0.7816164E-02  0.1312668E+00
        -11   -1    0    0    0    0  0.00000000000E+00  0.00000000000E+00  0.45593999997E+02  0.45594000000E+02  0.51100000000E-03 0. -1.
         11   -1    0    0    0    0 -0.00000000000E+00 -0.00000000000E+00 -0.45593999997E+02  0.45594000000E+02  0.51100000000E-03 0.  1.
    9900012    2    1    2    0    0  0.12347430074E+02  0.40198024015E+02  0.10736896965E+02  0.47787295852E+02  0.20000113106E+02 0.  0.
        -12    1    1    2    0    0 -0.12347430074E+02 -0.40198024015E+02 -0.10736896965E+02  0.43400704148E+02  0.00000000000E+00 0.  1.
         11    1    3    3    0    0  0.63879808988E+01  0.29463635250E+02  0.14754987770E+01  0.30184254157E+02  0.51100000000E-03 0. -1.
        -11    1    3    3    0    0  0.40532568939E+00  0.75218744638E+01  0.81379761721E+01  0.11089163215E+02  0.51100000000E-03 0.  1.
        -12    1    3    3    0    0  0.55541234858E+01  0.32125143014E+01  0.11234220161E+01  0.65138784805E+01  0.00000000000E+00 0.  1.
</event>
<event>
 7    1  0.2497395E-009  0.4778727E+02  0.7816164E-02  0.1312668E+00
        -11   -1    0    0    0    0  0.00000000000E+00  0.00000000000E+00  0.45593999997E+02  0.45594000000E+02  0.51100000000E-03 0. -1.
         11   -1    0    0    0    0 -0.00000000000E+00 -0.00000000000E+00 -0.45593999997E+02  0.45594000000E+02  0.51100000000E-03 0.  1.
    9900012    2    1    2    0    0  0.17974003321E+01  0.77371442649E+01  0.42667656912E+02  0.47787274249E+02  0.20000014611E+02 0.  0.
        -12    1    1    2    0    0 -0.17974003321E+01 -0.77371442649E+01 -0.42667656912E+02  0.43400725751E+02  0.00000000000E+00 0.  1.
         11    1    3    3    0    0  0.48462099465E+01  0.52139098046E+01  0.91635986504E+01  0.11603540269E+02  0.51100000000E-03 0. -1.
        -11    1    3    3    0    0 -0.38504679440E+01  0.59109813432E+01  0.31250126921E+02  0.32036482901E+02  0.51100000000E-03 0.  1.
        -12    1    3    3    0    0  0.80165832954E+00 -0.33877468828E+01  0.22539313406E+01  0.41472510784E+01  0.00000000000E+00 0.  1.
</event>
<event>
 7    1  0.2497395E-009  0.4778728E+02  0.7816164E-02  0.1312668E+00
        -11   -1    0    0    0    0  0.00000000000E+00  0.00000000000E+00  0.45593999997E+02  0.45594000000E+02  0.51100000000E-03 0.  1.
         11   -1    0    0    0    0 -0.00000000000E+00 -0.00000000000E+00 -0.45593999997E+02  0.45594000000E+02  0.51100000000E-03 0. -1.
    9900012    2    1    2    0    0  0.31051527003E+02  0.24980850640E+02  0.17186695673E+02  0.47787277241E+02  0.20000028251E+02 0.  0.
        -12    1    1    2    0    0 -0.31051527003E+02 -0.24980850640E+02 -0.17186695673E+02  0.43400722759E+02  0.00000000000E+00 0.  1.
         11    1    3    3    0    0  0.12742503401E+02  0.13255093169E+02  0.17998859510E+02  0.25729901511E+02  0.51100000000E-03 0.  1.
        -11    1    3    3    0    0  0.89614087015E+01  0.37313361811E+01 -0.97773720534E+00  0.97563151812E+01  0.51100000000E-03 0. -1.
        -12    1    3    3    0    0  0.93476149005E+01  0.79944212894E+01  0.16557336858E+00  0.12301060549E+02  0.00000000000E+00 0.  1.
</event>
<event>
 7    1  0.2497395E-009  0.4778727E+02  0.7816164E-02  0.1312668E+00
        -11   -1    0    0    0    0  0.00000000000E+00  0.00000000000E+00  0.45593999997E+02  0.45594000000E+02  0.51100000000E-03 0.  1.
         11   -1    0    0    0    0 -0.00000000000E+00 -0.00000000000E+00 -0.45593999997E+02  0.45594000000E+02  0.51100000000E-03 0. -1.
    9900012    2    1    2    0    0 -0.23363485023E+02  0.29413619785E+02  0.21739589473E+02  0.47787271760E+02  0.20000003263E+02 0.  0.
        -12    1    1    2    0    0  0.23363485023E+02 -0.29413619785E+02 -0.21739589473E+02  0.43400728240E+02  0.00000000000E+00 0.  1.
         11    1    3    3    0    0 -0.10994493558E+02  0.22637755076E+02  0.16673785777E+02  0.30188772348E+02  0.51100000000E-03 0. -1.
        -11    1    3    3    0    0 -0.17899777769E+01  0.14024771813E+01 -0.26139138730E+01  0.34646080128E+01  0.51100000000E-03 0.  1.
        -12    1    3    3    0    0 -0.10579013689E+02  0.53733875278E+01  0.76797175697E+01  0.14133891400E+02  0.00000000000E+00 0.  1.
</event>
<event>
 7    1  0.2497395E-009  0.4778726E+02  0.7816164E-02  0.1312668E+00
        -11   -1    0    0    0    0  0.00000000000E+00  0.00000000000E+00  0.45593999997E+02  0.45594000000E+02  0.51100000000E-03 0.  1.
         11   -1    0    0    0    0 -0.00000000000E+00 -0.00000000000E+00 -0.45593999997E+02  0.45594000000E+02  0.51100000000E-03 0. -1.
    9900012    2    1    2    0    0 -0.21954357075E+02  0.34980440546E+02  0.13341620108E+02  0.47787264494E+02  0.19999970133E+02 0.  0.
        -12    1    1    2    0    0  0.21954357075E+02 -0.34980440546E+02 -0.13341620108E+02  0.43400735506E+02  0.00000000000E+00 0.  1.
         11    1    3    3    0    0 -0.85502582969E+01  0.93819458058E+01  0.91585760531E+00  0.12726610682E+02  0.51100000000E-03 0. -1.
        -11    1    3    3    0    0 -0.79073475814E+01  0.19217625899E+02  0.91908746698E+00  0.20801154127E+02  0.51100000000E-03 0.  1.
        -12    1    3    3    0    0 -0.54967511966E+01  0.63808688411E+01  0.11506675036E+02  0.14259499685E+02  0.00000000000E+00 0.  1.
</event>
<event>
 7    1  0.2497395E-009  0.4778727E+02  0.7816164E-02  0.1312668E+00
        -11   -1    0    0    0    0  0.00000000000E+00  0.00000000000E+00  0.45593999997E+02  0.45594000000E+02  0.51100000000E-03 0. -1.
         11   -1    0    0    0    0 -0.00000000000E+00 -0.00000000000E+00 -0.45593999997E+02  0.45594000000E+02  0.51100000000E-03 0.  1.
    9900012    2    1    2    0    0  0.97390824253E+01  0.37244003864E+02  0.20041395219E+02  0.47787273363E+02  0.20000010572E+02 0.  0.
        -12    1    1    2    0    0 -0.97390824253E+01 -0.37244003864E+02 -0.20041395219E+02  0.43400726637E+02  0.00000000000E+00 0.  1.
         11    1    3    3    0    0  0.44725591619E+01  0.15768474491E+02  0.66533163125E+00  0.16404000722E+02  0.51100000000E-03 0. -1.
        -11    1    3    3    0    0 -0.21447229185E+01  0.31022288658E+01  0.14715807305E+00  0.37742967680E+01  0.51100000000E-03 0.  1.
         12    1    3    3    0    0  0.74112461820E+01  0.18373300506E+02  0.19228905515E+02  0.27608975873E+02  0.00000000000E+00 0. -1.
</event>
<event>
 7    1  0.2497395E-009  0.4778727E+02  0.7816164E-02  0.1312668E+00
        -11   -1    0    0    0    0  0.00000000000E+00  0.00000000000E+00  0.45593999997E+02  0.45594000000E+02  0.51100000000E-03 0. -1.
         11   -1    0    0    0    0 -0.00000000000E+00 -0.00000000000E+00 -0.45593999997E+02  0.45594000000E+02  0.51100000000E-03 0.  1.
    9900012    2    1    2    0    0 -0.59474034589E+01 -0.37051663160E+02  0.21804274889E+02  0.47787265510E+02  0.19999974767E+02 0.  0.
        -12    1    1    2    0    0  0.59474034589E+01  0.37051663160E+02 -0.21804274889E+02  0.43400734490E+02  0.00000000000E+00 0.  1.
         11    1    3    3    0    0 -0.26081363439E+01 -0.35284027587E+02  0.21634699098E+02  0.41470775050E+02  0.51100000000E-03 0. -1.
        -11    1    3    3    0    0 -0.15613686866E+01 -0.26990183150E+01 -0.17190123492E+01  0.35605583492E+01  0.51100000000E-03 0.  1.
         12    1    3    3    0    0 -0.17778984283E+01  0.93138274204E+00  0.18885881408E+01  0.27559321108E+01  0.00000000000E+00 0. -1.
</event>
<event>
 7    1  0.2497395E-009  0.4778727E+02  0.7816164E-02  0.1312668E+00
        -11   -1    0    0    0    0  0.00000000000E+00  0.00000000000E+00  0.45593999997E+02  0.45594000000E+02  0.51100000000E-03 0. -1.
         11   -1    0    0    0    0 -0.00000000000E+00 -0.00000000000E+00 -0.45593999997E+02  0.45594000000E+02  0.51100000000E-03 0.  1.
    9900012    2    1    2    0    0  0.32790229355E+02 -0.21443532912E+02  0.18670809093E+02  0.47787270086E+02  0.19999995628E+02 0.  0.
        -12    1    1    2    0    0 -0.32790229355E+02  0.21443532912E+02 -0.18670809093E+02  0.43400729914E+02  0.00000000000E+00 0.  1.
         11    1    3    3    0    0  0.20970356102E+02 -0.60754687695E+01  0.46628463039E+01  0.22325082121E+02  0.51100000000E-03 0. -1.
        -11    1    3    3    0    0  0.52314971906E+01 -0.30932380217E+01  0.56683069331E+00  0.61039316518E+01  0.51100000000E-03 0.  1.
         12    1    3    3    0    0  0.65883760629E+01 -0.12274826121E+02  0.13441132095E+02  0.19358256312E+02  0.00000000000E+00 0. -1.
</event>
<event>
 7    1  0.2497395E-009  0.4778727E+02  0.7816164E-02  0.1312668E+00
        -11   -1    0    0    0    0  0.00000000000E+00  0.00000000000E+00  0.45593999997E+02  0.45594000000E+02  0.51100000000E-03 0.  1.
         11   -1    0    0    0    0 -0.00000000000E+00 -0.00000000000E+00 -0.45593999997E+02  0.45594000000E+02  0.51100000000E-03 0. -1.
    9900012    2    1    2    0    0  0.42318476398E+02 -0.95685184987E+01 -0.11014145027E+01  0.47787272992E+02  0.20000008880E+02 0.  0.
        -12    1    1    2    0    0 -0.42318476398E+02  0.95685184987E+01  0.11014145027E+01  0.43400727008E+02  0.00000000000E+00 0.  1.
         11    1    3    3    0    0  0.82588187616E+01 -0.72201298151E+00 -0.40626780122E+01  0.92322664051E+01  0.51100000000E-03 0. -1.
        -11    1    3    3    0    0 -0.39538110004E+00 -0.25704064745E+01  0.23844105940E+01  0.35282757545E+01  0.51100000000E-03 0.  1.
        -12    1    3    3    0    0  0.34455038736E+02 -0.62760990427E+01  0.57685291554E+00  0.35026730832E+02  0.00000000000E+00 0.  1.
</event>
<event>
 7    1  0.2497395E-009  0.4778727E+02  0.7816164E-02  0.1312668E+00
        -11   -1    0    0    0    0  0.00000000000E+00  0.00000000000E+00  0.45593999997E+02  0.45594000000E+02  0.51100000000E-03 0.  1.
         11   -1    0    0    0    0 -0.00000000000E+00 -0.00000000000E+00 -0.45593999997E+02  0.45594000000E+02  0.51100000000E-03 0. -1.
    9900012    2    1    2    0    0 -0.13813579983E+02 -0.15787335100E+02 -0.37994319581E+02  0.47787271182E+02  0.20000000626E+02 0.  0.
        -12    1    1    2    0    0  0.13813579983E+02  0.15787335100E+02  0.37994319581E+02  0.43400728818E+02  0.00000000000E+00 0.  1.
         11    1    3    3    0    0  0.38459607703E+01 -0.11533689436E+01 -0.12187259276E+02  0.12831639142E+02  0.51100000000E-03 0. -1.
        -11    1    3    3    0    0 -0.84511222080E+00 -0.20079713124E+01 -0.89365949276E+00  0.23547379912E+01  0.51100000000E-03 0.  1.
         12    1    3    3    0    0 -0.16814428533E+02 -0.12625994844E+02 -0.24913400813E+02  0.32600894048E+02  0.00000000000E+00 0. -1.
</event>
<event>
 7    1  0.2497395E-009  0.4778727E+02  0.7816164E-02  0.1312668E+00
        -11   -1    0    0    0    0  0.00000000000E+00  0.00000000000E+00  0.45593999997E+02  0.45594000000E+02  0.51100000000E-03 0.  1.
         11   -1    0    0    0    0 -0.00000000000E+00 -0.00000000000E+00 -0.45593999997E+02  0.45594000000E+02  0.51100000000E-03 0. -1.
    9900012    2    1    2    0    0 -0.38987835796E+02  0.14698063609E+02 -0.12146559074E+02  0.47787270614E+02  0.19999998038E+02 0.  0.
        -12    1    1    2    0    0  0.38987835796E+02 -0.14698063609E+02  0.12146559074E+02  0.43400729386E+02  0.00000000000E+00 0.  1.
         11    1    3    3    0    0 -0.10428848681E+02  0.11725045592E+02 -0.10438502730E+02  0.18846748220E+02  0.51100000000E-03 0. -1.
        -11    1    3    3    0    0 -0.21418907332E+02  0.35696152974E+01 -0.16256315165E+01  0.21775087204E+02  0.51100000000E-03 0.  1.
        -12    1    3    3    0    0 -0.71400797827E+01 -0.59659728037E+00 -0.82424827285E-01  0.71654351906E+01  0.00000000000E+00 0.  1.
</event>
<event>
 7    1  0.2497395E-009  0.4778727E+02  0.7816164E-02  0.1312668E+00
        -11   -1    0    0    0    0  0.00000000000E+00  0.00000000000E+00  0.45593999997E+02  0.45594000000E+02  0.51100000000E-03 0.  1.
         11   -1    0    0    0    0 -0.00000000000E+00 -0.00000000000E+00 -0.45593999997E+02  0.45594000000E+02  0.51100000000E-03 0. -1.
    9900012    2    1    2    0    0 -0.17704136785E+02  0.38575872324E+02 -0.90603093384E+01  0.47787267400E+02  0.19999983385E+02 0.  0.
        -12    1    1    2    0    0  0.17704136785E+02 -0.38575872324E+02  0.90603093384E+01  0.43400732600E+02  0.00000000000E+00 0.  1.
         11    1    3    3    0    0 -0.12659872753E+02  0.24842531297E+02  0.35108996971E+01  0.28102493774E+02  0.51100000000E-03 0. -1.
        -11    1    3    3    0    0 -0.28445805588E+00  0.62165980753E+01 -0.57630292150E+01  0.84817164542E+01  0.51100000000E-03 0.  1.
         12    1    3    3    0    0 -0.47598059760E+01  0.75167429521E+01 -0.68081798205E+01  0.11203057172E+02  0.00000000000E+00 0. -1.
</event>
<event>
 7    1  0.2497395E-009  0.4778727E+02  0.7816164E-02  0.1312668E+00
        -11   -1    0    0    0    0  0.00000000000E+00  0.00000000000E+00  0.45593999997E+02  0.45594000000E+02  0.51100000000E-03 0.  1.
         11   -1    0    0    0    0 -0.00000000000E+00 -0.00000000000E+00 -0.45593999997E+02  0.45594000000E+02  0.51100000000E-03 0. -1.
    9900012    2    1    2    0    0  0.32307918158E+02  0.28302803086E+02 -0.62267977264E+01  0.47787271341E+02  0.20000001350E+02 0.  0.
        -12    1    1    2    0    0 -0.32307918158E+02 -0.28302803086E+02  0.62267977264E+01  0.43400728659E+02  0.00000000000E+00 0.  1.
         11    1    3    3    0    0  0.61620899300E+01  0.10057617094E+02  0.37107781259E+01  0.12365148138E+02  0.51100000000E-03 0. -1.
        -11    1    3    3    0    0  0.26981317456E+02  0.18894059173E+02 -0.97055295943E+01  0.34339106987E+02  0.51100000000E-03 0.  1.
        -12    1    3    3    0    0 -0.83548922801E+00 -0.64887318147E+00 -0.23204625798E+00  0.10830162148E+01  0.00000000000E+00 0.  1.
</event>
<event>
 7    1  0.2497395E-009  0.4778727E+02  0.7816164E-02  0.1312668E+00
        -11   -1    0    0    0    0  0.00000000000E+00  0.00000000000E+00  0.45593999997E+02  0.45594000000E+02  0.51100000000E-03 0.  1.
         11   -1    0    0    0    0 -0.00000000000E+00 -0.00000000000E+00 -0.45593999997E+02  0.45594000000E+02  0.51100000000E-03 0. -1.
    9900012    2    1    2    0    0  0.21258974009E+02  0.77594871672E+01 -0.37033354181E+02  0.47787274903E+02  0.20000017594E+02 0.  0.
        -12    1    1    2    0    0 -0.21258974009E+02 -0.77594871672E+01  0.37033354181E+02  0.43400725097E+02  0.00000000000E+00 0.  1.
         11    1    3    3    0    0  0.22252459500E+02  0.32480895894E+01 -0.32895470134E+02  0.39847634752E+02  0.51100000000E-03 0. -1.
        -11    1    3    3    0    0 -0.26916212687E+01  0.42193085527E+01 -0.34777816358E+01  0.60944528126E+01  0.51100000000E-03 0.  1.
         12    1    3    3    0    0  0.16981357781E+01  0.29208902516E+00 -0.66010241130E+00  0.18451873382E+01  0.00000000000E+00 0. -1.
</event>
<event>
 7    1  0.2497395E-009  0.4778726E+02  0.7816164E-02  0.1312668E+00
        -11   -1    0    0    0    0  0.00000000000E+00  0.00000000000E+00  0.45593999997E+02  0.45594000000E+02  0.51100000000E-03 0.  1.
         11   -1    0    0    0    0 -0.00000000000E+00 -0.00000000000E+00 -0.45593999997E+02  0.45594000000E+02  0.51100000000E-03 0. -1.
    9900012    2    1    2    0    0 -0.28016262581E+01  0.23178065118E+02 -0.36586237118E+02  0.47787256242E+02  0.19999932508E+02 0.  0.
        -12    1    1    2    0    0  0.28016262581E+01 -0.23178065118E+02  0.36586237118E+02  0.43400743758E+02  0.00000000000E+00 0.  1.
         11    1    3    3    0    0 -0.13286179543E+01 -0.38139722611E+00 -0.14039666530E+02  0.14107548549E+02  0.51100000000E-03 0. -1.
        -11    1    3    3    0    0 -0.47333473750E+01  0.17317922012E+02 -0.16856438252E+02  0.24626297144E+02  0.51100000000E-03 0.  1.
        -12    1    3    3    0    0  0.32603390712E+01  0.62415403321E+01 -0.56901323359E+01  0.90534105495E+01  0.00000000000E+00 0.  1.
</event>
<event>
 7    1  0.2497395E-009  0.4778727E+02  0.7816164E-02  0.1312668E+00
        -11   -1    0    0    0    0  0.00000000000E+00  0.00000000000E+00  0.45593999997E+02  0.45594000000E+02  0.51100000000E-03 0.  1.
         11   -1    0    0    0    0 -0.00000000000E+00 -0.00000000000E+00 -0.45593999997E+02  0.45594000000E+02  0.51100000000E-03 0. -1.
    9900012    2    1    2    0    0 -0.11092020963E+02 -0.37735292107E+02  0.18347696512E+02  0.47787272279E+02  0.20000005628E+02 0.  0.
        -12    1    1    2    0    0  0.11092020963E+02  0.37735292107E+02 -0.18347696512E+02  0.43400727721E+02  0.00000000000E+00 0.  1.
         11    1    3    3    0    0 -0.43707017357E+01 -0.12243305665E+02  0.72653562798E+01  0.14892513871E+02  0.51100000000E-03 0. -1.
        -11    1    3    3    0    0 -0.12139506101E+01 -0.10783391028E+02  0.13154559291E+02  0.17052789465E+02  0.51100000000E-03 0.  1.
        -12    1    3    3    0    0 -0.55073686174E+01 -0.14708595414E+02 -0.20722190590E+01  0.15841968943E+02  0.00000000000E+00 0.  1.
</event>
<event>
 7    1  0.2497395E-009  0.4778728E+02  0.7816164E-02  0.1312668E+00
        -11   -1    0    0    0    0  0.00000000000E+00  0.00000000000E+00  0.45593999997E+02  0.45594000000E+02  0.51100000000E-03 0.  1.
         11   -1    0    0    0    0 -0.00000000000E+00 -0.00000000000E+00 -0.45593999997E+02  0.45594000000E+02  0.51100000000E-03 0. -1.
    9900012    2    1    2    0    0 -0.16592927582E+01 -0.42718169519E+02 -0.74851610375E+01  0.47787275406E+02  0.20000019885E+02 0.  0.
        -12    1    1    2    0    0  0.16592927582E+01  0.42718169519E+02  0.74851610375E+01  0.43400724594E+02  0.00000000000E+00 0.  1.
         11    1    3    3    0    0 -0.21932798065E+01 -0.65873010012E+01 -0.76530558878E+01  0.10333067089E+02  0.51100000000E-03 0. -1.
        -11    1    3    3    0    0  0.30996169953E+01 -0.32230651391E+02 -0.17047601291E+01  0.32424199635E+02  0.51100000000E-03 0.  1.
        -12    1    3    3    0    0 -0.25656299470E+01 -0.39002171267E+01  0.18726549794E+01  0.50300086811E+01  0.00000000000E+00 0.  1.
</event>
<event>
 7    1  0.2497395E-009  0.4778727E+02  0.7816164E-02  0.1312668E+00
        -11   -1    0    0    0    0  0.00000000000E+00  0.00000000000E+00  0.45593999997E+02  0.45594000000E+02  0.51100000000E-03 0.  1.
         11   -1    0    0    0    0 -0.00000000000E+00 -0.00000000000E+00 -0.45593999997E+02  0.45594000000E+02  0.51100000000E-03 0. -1.
    9900012    2    1    2    0    0 -0.16353095636E+02 -0.38922612286E+02 -0.10061313821E+02  0.47787268210E+02  0.19999987077E+02 0.  0.
        -12    1    1    2    0    0  0.16353095636E+02  0.38922612286E+02  0.10061313821E+02  0.43400731790E+02  0.00000000000E+00 0.  1.
         11    1    3    3    0    0 -0.28173059085E+01 -0.79646548862E+01 -0.31043215516E+01  0.90005417945E+01  0.51100000000E-03 0. -1.
        -11    1    3    3    0    0 -0.13541231347E+02 -0.22898165048E+02 -0.12100862867E+02  0.29225362125E+02  0.51100000000E-03 0.  1.
        -12    1    3    3    0    0  0.54416186389E-02 -0.80597923525E+01  0.51438705976E+01  0.95613642908E+01  0.00000000000E+00 0.  1.
</event>
<event>
 7    1  0.2497395E-009  0.4778727E+02  0.7816164E-02  0.1312668E+00
        -11   -1    0    0    0    0  0.00000000000E+00  0.00000000000E+00  0.45593999997E+02  0.45594000000E+02  0.51100000000E-03 0.  1.
         11   -1    0    0    0    0 -0.00000000000E+00 -0.00000000000E+00 -0.45593999997E+02  0.45594000000E+02  0.51100000000E-03 0. -1.
    9900012    2    1    2    0    0 -0.22097724031E+02  0.36642126684E+02 -0.72573286279E+01  0.47787266434E+02  0.19999978980E+02 0.  0.
        -12    1    1    2    0    0  0.22097724031E+02 -0.36642126684E+02  0.72573286279E+01  0.43400733566E+02  0.00000000000E+00 0.  1.
         11    1    3    3    0    0 -0.17756474383E+02  0.29310345102E+02 -0.46914166482E+01  0.34588988175E+02  0.51100000000E-03 0. -1.
        -11    1    3    3    0    0 -0.73584630855E+01  0.42014840666E+01 -0.81964831219E+00  0.85130059885E+01  0.51100000000E-03 0.  1.
         12    1    3    3    0    0  0.30172134375E+01  0.31302975148E+01 -0.17462636675E+01  0.46852722711E+01  0.00000000000E+00 0. -1.
</event>
<event>
 7    1  0.2497395E-009  0.4778728E+02  0.7816164E-02  0.1312668E+00
        -11   -1    0    0    0    0  0.00000000000E+00  0.00000000000E+00  0.45593999997E+02  0.45594000000E+02  0.51100000000E-03 0. -1.
         11   -1    0    0    0    0 -0.00000000000E+00 -0.00000000000E+00 -0.45593999997E+02  0.45594000000E+02  0.51100000000E-03 0.  1.
    9900012    2    1    2    0    0  0.99510250522E+01  0.42244498743E+02  0.48039197210E-01  0.47787275566E+02  0.20000020616E+02 0.  0.
        -12    1    1    2    0    0 -0.99510250522E+01 -0.42244498743E+02 -0.48039197210E-01  0.43400724434E+02  0.00000000000E+00 0.  1.
         11    1    3    3    0    0  0.95393066035E+01  0.20997997519E+02 -0.47749961967E+01  0.23552385425E+02  0.51100000000E-03 0. -1.
        -11    1    3    3    0    0 -0.35126523448E+01  0.18444578201E+02  0.27114992555E+01  0.18970857123E+02  0.51100000000E-03 0.  1.
        -12    1    3    3    0    0  0.39243707935E+01  0.28019230235E+01  0.21115361384E+01  0.52640330183E+01  0.00000000000E+00 0.  1.
</event>
<event>
 7    1  0.2497395E-009  0.4778727E+02  0.7816164E-02  0.1312668E+00
        -11   -1    0    0    0    0  0.00000000000E+00  0.00000000000E+00  0.45593999997E+02  0.45594000000E+02  0.51100000000E-03 0. -1.
         11   -1    0    0    0    0 -0.00000000000E+00 -0.00000000000E+00 -0.45593999997E+02  0.45594000000E+02  0.51100000000E-03 0.  1.
    9900012    2    1    2    0    0 -0.94243787745E+01 -0.26757783819E+01  0.42280545133E+02  0.47787271873E+02  0.20000003776E+02 0.  0.
        -12    1    1    2    0    0  0.94243787745E+01  0.26757783819E+01 -0.42280545133E+02  0.43400728127E+02  0.00000000000E+00 0.  1.
         11    1    3    3    0    0 -0.18497716199E+01 -0.27780398279E+01  0.23532537383E+02  0.23768034759E+02  0.51100000000E-03 0. -1.
        -11    1    3    3    0    0 -0.86867963761E+01  0.49168969906E+01  0.11256053368E+02  0.15044435682E+02  0.51100000000E-03 0.  1.
        -12    1    3    3    0    0  0.11121892216E+01 -0.48146355445E+01  0.74919543814E+01  0.89748014320E+01  0.00000000000E+00 0.  1.
</event>
<event>
 7    1  0.2497395E-009  0.4778726E+02  0.7816164E-02  0.1312668E+00
        -11   -1    0    0    0    0  0.00000000000E+00  0.00000000000E+00  0.45593999997E+02  0.45594000000E+02  0.51100000000E-03 0.  1.
         11   -1    0    0    0    0 -0.00000000000E+00 -0.00000000000E+00 -0.45593999997E+02  0.45594000000E+02  0.51100000000E-03 0. -1.
    9900012    2    1    2    0    0  0.14792154756E+02  0.12008162455E+01 -0.40784483419E+02  0.47787263950E+02  0.19999967652E+02 0.  0.
        -12    1    1    2    0    0 -0.14792154756E+02 -0.12008162455E+01  0.40784483419E+02  0.43400736050E+02  0.00000000000E+00 0.  1.
         11    1    3    3    0    0 -0.26087298275E+01  0.16953897132E+01 -0.60687494198E+01  0.68197901268E+01  0.51100000000E-03 0.  1.
        -11    1    3    3    0    0  0.17071445888E+02 -0.26803327499E+01 -0.21576063210E+02  0.27643171892E+02  0.51100000000E-03 0. -1.
         12    1    3    3    0    0  0.32943869520E+00  0.21857592822E+01 -0.13139670789E+02  0.13324301931E+02  0.00000000000E+00 0. -1.
</event>
<event>
 7    1  0.2497395E-009  0.4778727E+02  0.7816164E-02  0.1312668E+00
        -11   -1    0    0    0    0  0.00000000000E+00  0.00000000000E+00  0.45593999997E+02  0.45594000000E+02  0.51100000000E-03 0. -1.
         11   -1    0    0    0    0 -0.00000000000E+00 -0.00000000000E+00 -0.45593999997E+02  0.45594000000E+02  0.51100000000E-03 0.  1.
    9900012    2    1    2    0    0 -0.25018854879E+02  0.72665799930E+00  0.35456340514E+02  0.47787271735E+02  0.20000003148E+02 0.  0.
        -12    1    1    2    0    0  0.25018854879E+02 -0.72665799930E+00 -0.35456340514E+02  0.43400728265E+02  0.00000000000E+00 0.  1.
         11    1    3    3    0    0 -0.84461016114E+01 -0.36435085143E+01  0.66201638035E+01  0.11333064712E+02  0.51100000000E-03 0. -1.
        -11    1    3    3    0    0 -0.62070219223E+01  0.86888019554E+01  0.10655479631E+02  0.15085146568E+02  0.51100000000E-03 0.  1.
        -12    1    3    3    0    0 -0.10365731345E+02 -0.43186354419E+01  0.18180697080E+02  0.21369060454E+02  0.00000000000E+00 0.  1.
</event>
<event>
 7    1  0.2497395E-009  0.4778729E+02  0.7816164E-02  0.1312668E+00
        -11   -1    0    0    0    0  0.00000000000E+00  0.00000000000E+00  0.45593999997E+02  0.45594000000E+02  0.51100000000E-03 0.  1.
         11   -1    0    0    0    0 -0.00000000000E+00 -0.00000000000E+00 -0.45593999997E+02  0.45594000000E+02  0.51100000000E-03 0. -1.
    9900012    2    1    2    0    0  0.14346217645E+02  0.19346187930E+02 -0.36104465181E+02  0.47787293161E+02  0.20000100839E+02 0.  0.
        -12    1    1    2    0    0 -0.14346217645E+02 -0.19346187930E+02  0.36104465181E+02  0.43400706839E+02  0.00000000000E+00 0.  1.
         11    1    3    3    0    0  0.31027393346E+00 -0.37371530506E+00 -0.56463625634E+01  0.56672165568E+01  0.51100000000E-03 0. -1.
        -11    1    3    3    0    0  0.36535003045E+01  0.12370460733E+01  0.11822352226E+01  0.40343559393E+01  0.51100000000E-03 0.  1.
         12    1    3    3    0    0  0.10382443407E+02  0.18482857161E+02 -0.31640337840E+02  0.38085720665E+02  0.00000000000E+00 0. -1.
</event>
<event>
 7    1  0.2497395E-009  0.4778726E+02  0.7816164E-02  0.1312668E+00
        -11   -1    0    0    0    0  0.00000000000E+00  0.00000000000E+00  0.45593999997E+02  0.45594000000E+02  0.51100000000E-03 0.  1.
         11   -1    0    0    0    0 -0.00000000000E+00 -0.00000000000E+00 -0.45593999997E+02  0.45594000000E+02  0.51100000000E-03 0. -1.
    9900012    2    1    2    0    0  0.16437489503E+02  0.23691402393E+02 -0.32436866462E+02  0.47787263665E+02  0.19999966356E+02 0.  0.
        -12    1    1    2    0    0 -0.16437489503E+02 -0.23691402393E+02  0.32436866462E+02  0.43400736335E+02  0.00000000000E+00 0.  1.
         11    1    3    3    0    0  0.41233689311E+01 -0.80684990017E+00 -0.81493268753E+01  0.91686807603E+01  0.51100000000E-03 0. -1.
        -11    1    3    3    0    0  0.10271135955E+01 -0.10597547818E+01  0.17140189819E+00  0.14857393471E+01  0.51100000000E-03 0.  1.
         12    1    3    3    0    0  0.11287006977E+02  0.25558007075E+02 -0.24458941485E+02  0.37132843558E+02  0.00000000000E+00 0. -1.
</event>
<event>
 7    1  0.2497395E-009  0.4778727E+02  0.7816164E-02  0.1312668E+00
        -11   -1    0    0    0    0  0.00000000000E+00  0.00000000000E+00  0.45593999997E+02  0.45594000000E+02  0.51100000000E-03 0. -1.
         11   -1    0    0    0    0 -0.00000000000E+00 -0.00000000000E+00 -0.45593999997E+02  0.45594000000E+02  0.51100000000E-03 0.  1.
    9900012    2    1    2    0    0 -0.35907487384E+02  0.96837168554E+01  0.22371884823E+02  0.47787271286E+02  0.20000001101E+02 0.  0.
        -12    1    1    2    0    0  0.35907487384E+02 -0.96837168554E+01 -0.22371884823E+02  0.43400728714E+02  0.00000000000E+00 0.  1.
         11    1    3    3    0    0 -0.35741481398E+02  0.78678344174E+01  0.14113002071E+02  0.39224139744E+02  0.51100000000E-03 0. -1.
        -11    1    3    3    0    0  0.48167541089E+00  0.12817610414E+01  0.41734286226E+01  0.43923147995E+01  0.51100000000E-03 0.  1.
         12    1    3    3    0    0 -0.64768139759E+00  0.53412139659E+00  0.40854541291E+01  0.41708167425E+01  0.00000000000E+00 0. -1.
</event>
<event>
 7    1  0.2497395E-009  0.4778727E+02  0.7816164E-02  0.1312668E+00
        -11   -1    0    0    0    0  0.00000000000E+00  0.00000000000E+00  0.45593999997E+02  0.45594000000E+02  0.51100000000E-03 0.  1.
         11   -1    0    0    0    0 -0.00000000000E+00 -0.00000000000E+00 -0.45593999997E+02  0.45594000000E+02  0.51100000000E-03 0. -1.
    9900012    2    1    2    0    0  0.27414985131E+02  0.14489215584E+01 -0.33614617643E+02  0.47787270713E+02  0.19999998487E+02 0.  0.
        -12    1    1    2    0    0 -0.27414985131E+02 -0.14489215584E+01  0.33614617643E+02  0.43400729287E+02  0.00000000000E+00 0.  1.
         11    1    3    3    0    0  0.49993157844E+01 -0.66649539832E+01 -0.55613426121E+01  0.10017150384E+02  0.51100000000E-03 0. -1.
        -11    1    3    3    0    0  0.43121311165E+00  0.20352211980E+01 -0.79416128003E+00  0.22268278946E+01  0.51100000000E-03 0.  1.
         12    1    3    3    0    0  0.21984456235E+02  0.60786543436E+01 -0.27259113750E+02  0.35543292434E+02  0.00000000000E+00 0. -1.
</event>
<event>
 7    1  0.2497395E-009  0.4778727E+02  0.7816164E-02  0.1312668E+00
        -11   -1    0    0    0    0  0.00000000000E+00  0.00000000000E+00  0.45593999997E+02  0.45594000000E+02  0.51100000000E-03 0.  1.
         11   -1    0    0    0    0 -0.00000000000E+00 -0.00000000000E+00 -0.45593999997E+02  0.45594000000E+02  0.51100000000E-03 0. -1.
    9900012    2    1    2    0    0  0.12327254776E+02  0.41378739093E+02  0.44115735510E+01  0.47787271430E+02  0.20000001757E+02 0.  0.
        -12    1    1    2    0    0 -0.12327254776E+02 -0.41378739093E+02 -0.44115735510E+01  0.43400728570E+02  0.00000000000E+00 0.  1.
         11    1    3    3    0    0  0.32473411878E+01  0.13268198776E+02  0.28421014873E+01  0.13952342623E+02  0.51100000000E-03 0. -1.
        -11    1    3    3    0    0  0.71630555636E+01  0.18938804457E+02  0.87222737614E+01  0.22046898627E+02  0.51100000000E-03 0.  1.
        -12    1    3    3    0    0  0.19168580243E+01  0.91717358604E+01 -0.71528016977E+01  0.11788030179E+02  0.00000000000E+00 0.  1.
</event>
<event>
 7    1  0.2497395E-009  0.4778728E+02  0.7816164E-02  0.1312668E+00
        -11   -1    0    0    0    0  0.00000000000E+00  0.00000000000E+00  0.45593999997E+02  0.45594000000E+02  0.51100000000E-03 0.  1.
         11   -1    0    0    0    0 -0.00000000000E+00 -0.00000000000E+00 -0.45593999997E+02  0.45594000000E+02  0.51100000000E-03 0. -1.
    9900012    2    1    2    0    0 -0.11685307479E+02 -0.41280743271E+02 -0.65556607280E+01  0.47787275773E+02  0.20000021559E+02 0.  0.
        -12    1    1    2    0    0  0.11685307479E+02  0.41280743271E+02  0.65556607280E+01  0.43400724227E+02  0.00000000000E+00 0.  1.
         11    1    3    3    0    0  0.91399175384E+00 -0.44971915143E+01 -0.26848767244E+01  0.53168294809E+01  0.51100000000E-03 0. -1.
        -11    1    3    3    0    0  0.12342962986E+01 -0.15665267727E+02  0.36423099307E+01  0.16130422257E+02  0.51100000000E-03 0.  1.
        -12    1    3    3    0    0 -0.13833595531E+02 -0.21118284030E+02 -0.75130939342E+01  0.26340024035E+02  0.00000000000E+00 0.  1.
</event>
<event>
 7    1  0.2497395E-009  0.4778727E+02  0.7816164E-02  0.1312668E+00
        -11   -1    0    0    0    0  0.00000000000E+00  0.00000000000E+00  0.45593999997E+02  0.45594000000E+02  0.51100000000E-03 0.  1.
         11   -1    0    0    0    0 -0.00000000000E+00 -0.00000000000E+00 -0.45593999997E+02  0.45594000000E+02  0.51100000000E-03 0. -1.
    9900012    2    1    2    0    0 -0.32221987667E+02  0.25093059376E+02  0.14686906301E+02  0.47787270343E+02  0.19999996801E+02 0.  0.
        -12    1    1    2    0    0  0.32221987667E+02 -0.25093059376E+02 -0.14686906301E+02  0.43400729657E+02  0.00000000000E+00 0.  1.
         11    1    3    3    0    0 -0.28720058808E+01  0.77782847477E+01  0.75473302461E+01  0.11212150797E+02  0.51100000000E-03 0. -1.
        -11    1    3    3    0    0 -0.15617922913E+02  0.28837340051E+01  0.20409528113E+01  0.16012524054E+02  0.51100000000E-03 0.  1.
         12    1    3    3    0    0 -0.13732058873E+02  0.14431040624E+02  0.50986232435E+01  0.20562595492E+02  0.00000000000E+00 0. -1.
</event>
<event>
 7    1  0.2497395E-009  0.4778727E+02  0.7816164E-02  0.1312668E+00
        -11   -1    0    0    0    0  0.00000000000E+00  0.00000000000E+00  0.45593999997E+02  0.45594000000E+02  0.51100000000E-03 0.  1.
         11   -1    0    0    0    0 -0.00000000000E+00 -0.00000000000E+00 -0.45593999997E+02  0.45594000000E+02  0.51100000000E-03 0. -1.
    9900012    2    1    2    0    0  0.13791745320E+02 -0.63669242481E+01 -0.40655542773E+02  0.47787272800E+02  0.20000008003E+02 0.  0.
        -12    1    1    2    0    0 -0.13791745320E+02  0.63669242481E+01  0.40655542773E+02  0.43400727200E+02  0.00000000000E+00 0.  1.
         11    1    3    3    0    0  0.10848563174E+01 -0.41972437391E+01 -0.18144329417E+02  0.18655038421E+02  0.51100000000E-03 0. -1.
        -11    1    3    3    0    0  0.85788808931E+01  0.27112903527E+01 -0.45803223430E+01  0.10095922235E+02  0.51100000000E-03 0.  1.
        -12    1    3    3    0    0  0.41280081094E+01 -0.48809708617E+01 -0.17930891013E+02  0.19036312144E+02  0.00000000000E+00 0.  1.
</event>
<event>
 7    1  0.2497395E-009  0.4778727E+02  0.7816164E-02  0.1312668E+00
        -11   -1    0    0    0    0  0.00000000000E+00  0.00000000000E+00  0.45593999997E+02  0.45594000000E+02  0.51100000000E-03 0.  1.
         11   -1    0    0    0    0 -0.00000000000E+00 -0.00000000000E+00 -0.45593999997E+02  0.45594000000E+02  0.51100000000E-03 0. -1.
    9900012    2    1    2    0    0 -0.12663059302E+02 -0.11016854042E+02 -0.40023737087E+02  0.47787266432E+02  0.19999978970E+02 0.  0.
        -12    1    1    2    0    0  0.12663059302E+02  0.11016854042E+02  0.40023737087E+02  0.43400733568E+02  0.00000000000E+00 0.  1.
         11    1    3    3    0    0 -0.20384013723E+01  0.13973730280E+01 -0.60962410153E+01  0.65781369940E+01  0.51100000000E-03 0. -1.
        -11    1    3    3    0    0 -0.85279853965E+00  0.32111291418E+01 -0.12559592528E+02  0.12991611926E+02  0.51100000000E-03 0.  1.
        -12    1    3    3    0    0 -0.97718593901E+01 -0.15625356211E+02 -0.21367903543E+02  0.28217517511E+02  0.00000000000E+00 0.  1.
</event>
<event>
 7    1  0.2497395E-009  0.4778726E+02  0.7816164E-02  0.1312668E+00
        -11   -1    0    0    0    0  0.00000000000E+00  0.00000000000E+00  0.45593999997E+02  0.45594000000E+02  0.51100000000E-03 0.  1.
         11   -1    0    0    0    0 -0.00000000000E+00 -0.00000000000E+00 -0.45593999997E+02  0.45594000000E+02  0.51100000000E-03 0. -1.
    9900012    2    1    2    0    0 -0.41257563161E+02 -0.13221881513E+02 -0.25727781947E+01  0.47787264334E+02  0.19999969404E+02 0.  0.
        -12    1    1    2    0    0  0.41257563161E+02  0.13221881513E+02  0.25727781947E+01  0.43400735666E+02  0.00000000000E+00 0.  1.
         11    1    3    3    0    0 -0.17234292259E+02 -0.59728552901E+01 -0.63785741412E+01  0.19323095982E+02  0.51100000000E-03 0. -1.
        -11    1    3    3    0    0 -0.37517453468E+00  0.23859383922E+01  0.14572751463E+01  0.28208348154E+01  0.51100000000E-03 0.  1.
        -12    1    3    3    0    0 -0.23648096367E+02 -0.96349646156E+01  0.23485208002E+01  0.25643333537E+02  0.00000000000E+00 0.  1.
</event>
<event>
 7    1  0.2497395E-009  0.4778728E+02  0.7816164E-02  0.1312668E+00
        -11   -1    0    0    0    0  0.00000000000E+00  0.00000000000E+00  0.45593999997E+02  0.45594000000E+02  0.51100000000E-03 0.  1.
         11   -1    0    0    0    0 -0.00000000000E+00 -0.00000000000E+00 -0.45593999997E+02  0.45594000000E+02  0.51100000000E-03 0. -1.
    9900012    2    1    2    0    0  0.39237557540E+02 -0.60858878793E-01 -0.18548127573E+02  0.47787278094E+02  0.20000032140E+02 0.  0.
        -12    1    1    2    0    0 -0.39237557540E+02  0.60858878793E-01  0.18548127573E+02  0.43400721906E+02  0.00000000000E+00 0.  1.
         11    1    3    3    0    0  0.31136808693E+02 -0.21561139801E+01 -0.15451664786E+02  0.34826765971E+02  0.51100000000E-03 0. -1.
        -11    1    3    3    0    0  0.59255852497E+01 -0.32201948421E+01 -0.86645200847E+00  0.67994819448E+01  0.51100000000E-03 0.  1.
         12    1    3    3    0    0  0.21751635972E+01  0.53154499435E+01 -0.22300107788E+01  0.61610301776E+01  0.00000000000E+00 0. -1.
</event>
<event>
 7    1  0.2497395E-009  0.4778727E+02  0.7816164E-02  0.1312668E+00
        -11   -1    0    0    0    0  0.00000000000E+00  0.00000000000E+00  0.45593999997E+02  0.45594000000E+02  0.51100000000E-03 0.  1.
         11   -1    0    0    0    0 -0.00000000000E+00 -0.00000000000E+00 -0.45593999997E+02  0.45594000000E+02  0.51100000000E-03 0. -1.
    9900012    2    1    2    0    0  0.39547500022E+02 -0.21823333440E+01 -0.17744183699E+02  0.47787269684E+02  0.19999993797E+02 0.  0.
        -12    1    1    2    0    0 -0.39547500022E+02  0.21823333440E+01  0.17744183699E+02  0.43400730316E+02  0.00000000000E+00 0.  1.
         11    1    3    3    0    0  0.97014816556E+01 -0.13022576629E+01 -0.22184162428E+01  0.10036732149E+02  0.51100000000E-03 0.  1.
        -11    1    3    3    0    0  0.25315586711E+02 -0.12794546447E+01 -0.19284954721E+02  0.31850045739E+02  0.51100000000E-03 0. -1.
        -12    1    3    3    0    0  0.45304316553E+01  0.39937896353E+00  0.37591872652E+01  0.59004917960E+01  0.00000000000E+00 0.  1.
</event>
<event>
 7    1  0.2497395E-009  0.4778727E+02  0.7816164E-02  0.1312668E+00
        -11   -1    0    0    0    0  0.00000000000E+00  0.00000000000E+00  0.45593999997E+02  0.45594000000E+02  0.51100000000E-03 0.  1.
         11   -1    0    0    0    0 -0.00000000000E+00 -0.00000000000E+00 -0.45593999997E+02  0.45594000000E+02  0.51100000000E-03 0. -1.
    9900012    2    1    2    0    0 -0.29177297046E+02 -0.28853385620E+02 -0.14134741584E+02  0.47787269081E+02  0.19999991050E+02 0.  0.
        -12    1    1    2    0    0  0.29177297046E+02  0.28853385620E+02  0.14134741584E+02  0.43400730919E+02  0.00000000000E+00 0.  1.
         11    1    3    3    0    0 -0.96375004810E+01 -0.79638682608E+01 -0.84643545418E+01  0.15098010176E+02  0.51100000000E-03 0. -1.
        -11    1    3    3    0    0 -0.72563273872E+01 -0.22799944862E+01  0.37533027249E+01  0.84817417794E+01  0.51100000000E-03 0.  1.
        -12    1    3    3    0    0 -0.12283469178E+02 -0.18609522873E+02 -0.94236897668E+01  0.24207517126E+02  0.00000000000E+00 0.  1.
</event>
<event>
 7    1  0.2497395E-009  0.4778727E+02  0.7816164E-02  0.1312668E+00
        -11   -1    0    0    0    0  0.00000000000E+00  0.00000000000E+00  0.45593999997E+02  0.45594000000E+02  0.51100000000E-03 0.  1.
         11   -1    0    0    0    0 -0.00000000000E+00 -0.00000000000E+00 -0.45593999997E+02  0.45594000000E+02  0.51100000000E-03 0. -1.
    9900012    2    1    2    0    0  0.40811079943E+01  0.43033130619E+02  0.38881190831E+01  0.47787271396E+02  0.20000001602E+02 0.  0.
        -12    1    1    2    0    0 -0.40811079943E+01 -0.43033130619E+02 -0.38881190831E+01  0.43400728604E+02  0.00000000000E+00 0.  1.
         11    1    3    3    0    0 -0.17813096201E+01 -0.89302863356E+00  0.69803013287E+00  0.21113527490E+01  0.51100000000E-03 0. -1.
        -11    1    3    3    0    0  0.84474985636E+01  0.28251568391E+02  0.40606431471E+01  0.29765755014E+02  0.51100000000E-03 0.  1.
         12    1    3    3    0    0 -0.25850809492E+01  0.15674590862E+02 -0.87055419695E+00  0.15910163633E+02  0.00000000000E+00 0. -1.
</event>
<event>
 7    1  0.2497395E-009  0.4778727E+02  0.7816164E-02  0.1312668E+00
        -11   -1    0    0    0    0  0.00000000000E+00  0.00000000000E+00  0.45593999997E+02  0.45594000000E+02  0.51100000000E-03 0.  1.
         11   -1    0    0    0    0 -0.00000000000E+00 -0.00000000000E+00 -0.45593999997E+02  0.45594000000E+02  0.51100000000E-03 0. -1.
    9900012    2    1    2    0    0 -0.17858254940E+01  0.16773769650E+02 -0.39988436329E+02  0.47787267737E+02  0.19999984919E+02 0.  0.
        -12    1    1    2    0    0  0.17858254940E+01 -0.16773769650E+02  0.39988436329E+02  0.43400732263E+02  0.00000000000E+00 0.  1.
         11    1    3    3    0    0  0.69758237540E+01  0.72131455075E+01 -0.26618293755E+02  0.28446882920E+02  0.51100000000E-03 0. -1.
        -11    1    3    3    0    0 -0.63364986320E+01  0.46885106701E+01 -0.10667849225E+02  0.13264100217E+02  0.51100000000E-03 0.  1.
         12    1    3    3    0    0 -0.24251506159E+01  0.48721134724E+01 -0.27022933488E+01  0.60762846000E+01  0.00000000000E+00 0. -1.
</event>
<event>
 7    1  0.2497395E-009  0.4778727E+02  0.7816164E-02  0.1312668E+00
        -11   -1    0    0    0    0  0.00000000000E+00  0.00000000000E+00  0.45593999997E+02  0.45594000000E+02  0.51100000000E-03 0.  1.
         11   -1    0    0    0    0 -0.00000000000E+00 -0.00000000000E+00 -0.45593999997E+02  0.45594000000E+02  0.51100000000E-03 0. -1.
    9900012    2    1    2    0    0  0.28273301636E+02  0.32900772854E+02 -0.13352062397E+01  0.47787271717E+02  0.20000003068E+02 0.  0.
        -12    1    1    2    0    0 -0.28273301636E+02 -0.32900772854E+02  0.13352062397E+01  0.43400728283E+02  0.00000000000E+00 0.  1.
         11    1    3    3    0    0  0.25823778334E+02  0.34616460669E+02 -0.24234526498E+01  0.43255519875E+02  0.51100000000E-03 0. -1.
        -11    1    3    3    0    0  0.28020771389E+01 -0.21205412395E+01  0.23269177038E+00  0.35217150881E+01  0.51100000000E-03 0.  1.
         12    1    3    3    0    0 -0.35255383687E+00  0.40485342441E+00  0.85555463972E+00  0.10100367541E+01  0.00000000000E+00 0. -1.
</event>
<event>
 7    1  0.2497395E-009  0.4778727E+02  0.7816164E-02  0.1312668E+00
        -11   -1    0    0    0    0  0.00000000000E+00  0.00000000000E+00  0.45593999997E+02  0.45594000000E+02  0.51100000000E-03 0. -1.
         11   -1    0    0    0    0 -0.00000000000E+00 -0.00000000000E+00 -0.45593999997E+02  0.45594000000E+02  0.51100000000E-03 0.  1.
    9900012    2    1    2    0    0 -0.17330475213E+02  0.31746528061E+02  0.23988247450E+02  0.47787269237E+02  0.19999991761E+02 0.  0.
        -12    1    1    2    0    0  0.17330475213E+02 -0.31746528061E+02 -0.23988247450E+02  0.43400730763E+02  0.00000000000E+00 0.  1.
         11    1    3    3    0    0 -0.73372880805E+01  0.26200210336E+02  0.17480527330E+02  0.32339691619E+02  0.51100000000E-03 0. -1.
        -11    1    3    3    0    0 -0.11395427282E+02  0.48509428320E+01  0.62087207188E+01  0.13854083244E+02  0.51100000000E-03 0.  1.
        -12    1    3    3    0    0  0.14022401498E+01  0.69537489261E+00  0.29899940105E+00  0.15934943743E+01  0.00000000000E+00 0.  1.
</event>
<event>
 7    1  0.2497395E-009  0.4778727E+02  0.7816164E-02  0.1312668E+00
        -11   -1    0    0    0    0  0.00000000000E+00  0.00000000000E+00  0.45593999997E+02  0.45594000000E+02  0.51100000000E-03 0. -1.
         11   -1    0    0    0    0 -0.00000000000E+00 -0.00000000000E+00 -0.45593999997E+02  0.45594000000E+02  0.51100000000E-03 0.  1.
    9900012    2    1    2    0    0 -0.25541126203E+02 -0.34717330385E+02  0.50972069304E+01  0.47787266420E+02  0.19999978915E+02 0.  0.
        -12    1    1    2    0    0  0.25541126203E+02  0.34717330385E+02 -0.50972069304E+01  0.43400733580E+02  0.00000000000E+00 0.  1.
         11    1    3    3    0    0 -0.16791795533E+02 -0.85621431398E+01  0.28225693650E+01  0.19058897933E+02  0.51100000000E-03 0. -1.
        -11    1    3    3    0    0 -0.16058035885E+01 -0.14759068919E+02 -0.10186882764E+01  0.14881076795E+02  0.51100000000E-03 0.  1.
        -12    1    3    3    0    0 -0.71435270820E+01 -0.11396118327E+02  0.32933258419E+01  0.13847291692E+02  0.00000000000E+00 0.  1.
</event>
<event>
 7    1  0.2497395E-009  0.4778727E+02  0.7816164E-02  0.1312668E+00
        -11   -1    0    0    0    0  0.00000000000E+00  0.00000000000E+00  0.45593999997E+02  0.45594000000E+02  0.51100000000E-03 0.  1.
         11   -1    0    0    0    0 -0.00000000000E+00 -0.00000000000E+00 -0.45593999997E+02  0.45594000000E+02  0.51100000000E-03 0. -1.
    9900012    2    1    2    0    0 -0.25977515102E+02 -0.94026463166E+01 -0.33472113965E+02  0.47787268878E+02  0.19999990122E+02 0.  0.
        -12    1    1    2    0    0  0.25977515102E+02  0.94026463166E+01  0.33472113965E+02  0.43400731122E+02  0.00000000000E+00 0.  1.
         11    1    3    3    0    0 -0.26253889363E+02 -0.56535803902E+01 -0.26222535124E+02  0.37534664332E+02  0.51100000000E-03 0. -1.
        -11    1    3    3    0    0  0.13547046531E+01 -0.60373511672E+00  0.69675549496E+00  0.16386547133E+01  0.51100000000E-03 0.  1.
        -12    1    3    3    0    0 -0.10783303915E+01 -0.31453308096E+01 -0.79463343360E+01  0.86139498324E+01  0.00000000000E+00 0.  1.
</event>
<event>
 7    1 -0.2497395E-009  0.4778727E+02  0.7816164E-02  0.1312668E+00
        -11   -1    0    0    0    0  0.00000000000E+00  0.00000000000E+00  0.45593999997E+02  0.45594000000E+02  0.51100000000E-03 0. -1.
         11   -1    0    0    0    0 -0.00000000000E+00 -0.00000000000E+00 -0.45593999997E+02  0.45594000000E+02  0.51100000000E-03 0.  1.
    9900012    2    1    2    0    0  0.29385857342E+02  0.14198507348E+02  0.28609390706E+02  0.47787268909E+02  0.19999990265E+02 0.  0.
        -12    1    1    2    0    0 -0.29385857342E+02 -0.14198507348E+02 -0.28609390706E+02  0.43400731091E+02  0.00000000000E+00 0.  1.
         11    1    3    3    0    0  0.69080564518E+00  0.25726899052E+01  0.59476421641E+01  0.65169312840E+01  0.51100000000E-03 0. -1.
        -11    1    3    3    0    0  0.24419613081E+02  0.11852442583E+02  0.24542372475E+02  0.36594069809E+02  0.51100000000E-03 0.  1.
        -12    1    3    3    0    0  0.42754386152E+01 -0.22662514069E+00 -0.18806239331E+01  0.46762678157E+01  0.00000000000E+00 0.  1.
</event>
<event>
 7    1  0.2497395E-009  0.4778727E+02  0.7816164E-02  0.1312668E+00
        -11   -1    0    0    0    0  0.00000000000E+00  0.00000000000E+00  0.45593999997E+02  0.45594000000E+02  0.51100000000E-03 0.  1.
         11   -1    0    0    0    0 -0.00000000000E+00 -0.00000000000E+00 -0.45593999997E+02  0.45594000000E+02  0.51100000000E-03 0. -1.
    9900012    2    1    2    0    0  0.15675034835E+01 -0.49157924050E+01 -0.43092937121E+02  0.47787270607E+02  0.19999998004E+02 0.  0.
        -12    1    1    2    0    0 -0.15675034835E+01  0.49157924050E+01  0.43092937121E+02  0.43400729393E+02  0.00000000000E+00 0.  1.
         11    1    3    3    0    0 -0.69378239255E+01 -0.58569700949E+01 -0.17037593047E+02  0.19305881917E+02  0.51100000000E-03 0. -1.
        -11    1    3    3    0    0  0.57332356332E+01  0.38184474069E+01 -0.11668568065E+02  0.13550129607E+02  0.51100000000E-03 0.  1.
         12    1    3    3    0    0  0.27720917758E+01 -0.28772697169E+01 -0.14386776009E+02  0.14931259082E+02  0.00000000000E+00 0. -1.
</event>
<event>
 7    1  0.2497395E-009  0.4778727E+02  0.7816164E-02  0.1312668E+00
        -11   -1    0    0    0    0  0.00000000000E+00  0.00000000000E+00  0.45593999997E+02  0.45594000000E+02  0.51100000000E-03 0.  1.
         11   -1    0    0    0    0 -0.00000000000E+00 -0.00000000000E+00 -0.45593999997E+02  0.45594000000E+02  0.51100000000E-03 0. -1.
    9900012    2    1    2    0    0  0.48975053489E+01 -0.23940426677E+02 -0.35867728064E+02  0.47787268387E+02  0.19999987882E+02 0.  0.
        -12    1    1    2    0    0 -0.48975053489E+01  0.23940426677E+02  0.35867728064E+02  0.43400731613E+02  0.00000000000E+00 0.  1.
         11    1    3    3    0    0 -0.35628563775E+01 -0.17967079098E+02 -0.24306963090E+02  0.30435806739E+02  0.51100000000E-03 0.  1.
        -11    1    3    3    0    0  0.90234873405E+01 -0.51172651886E+01 -0.66206792325E+01  0.12306222839E+02  0.51100000000E-03 0. -1.
         12    1    3    3    0    0 -0.56312561415E+00 -0.85608238957E+00 -0.49400857410E+01  0.50452388094E+01  0.00000000000E+00 0. -1.
</event>
<event>
 7    1  0.2497395E-009  0.4778727E+02  0.7816164E-02  0.1312668E+00
        -11   -1    0    0    0    0  0.00000000000E+00  0.00000000000E+00  0.45593999997E+02  0.45594000000E+02  0.51100000000E-03 0.  1.
         11   -1    0    0    0    0 -0.00000000000E+00 -0.00000000000E+00 -0.45593999997E+02  0.45594000000E+02  0.51100000000E-03 0. -1.
    9900012    2    1    2    0    0 -0.34990537779E+02 -0.25610404586E+02 -0.18418978607E+01  0.47787272531E+02  0.20000006777E+02 0.  0.
        -12    1    1    2    0    0  0.34990537779E+02  0.25610404586E+02  0.18418978607E+01  0.43400727469E+02  0.00000000000E+00 0.  1.
         11    1    3    3    0    0 -0.12222586513E+02 -0.11759660235E+02 -0.77212284242E+01  0.18635949092E+02  0.51100000000E-03 0. -1.
        -11    1    3    3    0    0 -0.23445119697E+02 -0.11962387146E+02  0.44645640514E+01  0.26696529292E+02  0.51100000000E-03 0.  1.
        -12    1    3    3    0    0  0.67716843100E+00 -0.18883572051E+01  0.14147665122E+01  0.24547941465E+01  0.00000000000E+00 0.  1.
</event>
<event>
 7    1  0.2497395E-009  0.4778727E+02  0.7816164E-02  0.1312668E+00
        -11   -1    0    0    0    0  0.00000000000E+00  0.00000000000E+00  0.45593999997E+02  0.45594000000E+02  0.51100000000E-03 0.  1.
         11   -1    0    0    0    0 -0.00000000000E+00 -0.00000000000E+00 -0.45593999997E+02  0.45594000000E+02  0.51100000000E-03 0. -1.
    9900012    2    1    2    0    0  0.29572594781E+02 -0.51971442912E+01 -0.31338077375E+02  0.47787265393E+02  0.19999974233E+02 0.  0.
        -12    1    1    2    0    0 -0.29572594781E+02  0.51971442912E+01  0.31338077375E+02  0.43400734607E+02  0.00000000000E+00 0.  1.
         11    1    3    3    0    0  0.21361523237E+01 -0.27379815631E+01 -0.54958401283E+01  0.65010728935E+01  0.51100000000E-03 0. -1.
        -11    1    3    3    0    0  0.79824049338E+01 -0.47862917207E+01 -0.59217009466E+00  0.93262019411E+01  0.51100000000E-03 0.  1.
        -12    1    3    3    0    0  0.19454037524E+02  0.23271289927E+01 -0.25250067152E+02  0.31959990558E+02  0.00000000000E+00 0.  1.
</event>
<event>
 7    1  0.2497395E-009  0.4778727E+02  0.7816164E-02  0.1312668E+00
        -11   -1    0    0    0    0  0.00000000000E+00  0.00000000000E+00  0.45593999997E+02  0.45594000000E+02  0.51100000000E-03 0.  1.
         11   -1    0    0    0    0 -0.00000000000E+00 -0.00000000000E+00 -0.45593999997E+02  0.45594000000E+02  0.51100000000E-03 0. -1.
    9900012    2    1    2    0    0  0.87932691193E+00  0.33789184268E+02 -0.27223913595E+02  0.47787266588E+02  0.19999979680E+02 0.  0.
        -12    1    1    2    0    0 -0.87932691193E+00 -0.33789184268E+02  0.27223913595E+02  0.43400733412E+02  0.00000000000E+00 0.  1.
         11    1    3    3    0    0  0.55180965050E+01  0.23109245321E+02 -0.23333497272E+02  0.33300731276E+02  0.51100000000E-03 0. -1.
        -11    1    3    3    0    0 -0.12375488702E+00  0.13109735903E+01  0.21043323944E+01  0.24823742896E+01  0.51100000000E-03 0.  1.
        -12    1    3    3    0    0 -0.45150147061E+01  0.93689653566E+01 -0.59947487172E+01  0.12004161022E+02  0.00000000000E+00 0.  1.
</event>
<event>
 7    1  0.2497395E-009  0.4778727E+02  0.7816164E-02  0.1312668E+00
        -11   -1    0    0    0    0  0.00000000000E+00  0.00000000000E+00  0.45593999997E+02  0.45594000000E+02  0.51100000000E-03 0.  1.
         11   -1    0    0    0    0 -0.00000000000E+00 -0.00000000000E+00 -0.45593999997E+02  0.45594000000E+02  0.51100000000E-03 0. -1.
    9900012    2    1    2    0    0  0.11803223827E+02 -0.11330100992E+01 -0.41749533325E+02  0.47787270312E+02  0.19999996659E+02 0.  0.
        -12    1    1    2    0    0 -0.11803223827E+02  0.11330100992E+01  0.41749533325E+02  0.43400729688E+02  0.00000000000E+00 0.  1.
         11    1    3    3    0    0 -0.16245045956E+00  0.81218882595E+00 -0.23134776642E+00  0.85997842470E+00  0.51100000000E-03 0.  1.
        -11    1    3    3    0    0  0.11330135795E+02  0.40678545522E+01 -0.38153522577E+02  0.40007633060E+02  0.51100000000E-03 0. -1.
        -12    1    3    3    0    0  0.63553849152E+00 -0.60130534774E+01 -0.33646629822E+01  0.69196588268E+01  0.00000000000E+00 0.  1.
</event>
<event>
 7    1  0.2497395E-009  0.4778728E+02  0.7816164E-02  0.1312668E+00
        -11   -1    0    0    0    0  0.00000000000E+00  0.00000000000E+00  0.45593999997E+02  0.45594000000E+02  0.51100000000E-03 0.  1.
         11   -1    0    0    0    0 -0.00000000000E+00 -0.00000000000E+00 -0.45593999997E+02  0.45594000000E+02  0.51100000000E-03 0. -1.
    9900012    2    1    2    0    0  0.40681262951E+02  0.77010346615E+01  0.13013513500E+02  0.47787278535E+02  0.20000034151E+02 0.  0.
        -12    1    1    2    0    0 -0.40681262951E+02 -0.77010346615E+01 -0.13013513500E+02  0.43400721465E+02  0.00000000000E+00 0.  1.
         11    1    3    3    0    0 -0.59067169560E+00  0.13617793228E+01 -0.21883820686E+01  0.26443056396E+01  0.51100000000E-03 0. -1.
        -11    1    3    3    0    0  0.17810369509E+02  0.65902455080E+01  0.56825993118E+01  0.19822525901E+02  0.51100000000E-03 0.  1.
         12    1    3    3    0    0  0.23461565137E+02 -0.25099016930E+00  0.95192962566E+01  0.25320446994E+02  0.00000000000E+00 0. -1.
</event>
<event>
 7    1  0.2497395E-009  0.4778727E+02  0.7816164E-02  0.1312668E+00
        -11   -1    0    0    0    0  0.00000000000E+00  0.00000000000E+00  0.45593999997E+02  0.45594000000E+02  0.51100000000E-03 0.  1.
         11   -1    0    0    0    0 -0.00000000000E+00 -0.00000000000E+00 -0.45593999997E+02  0.45594000000E+02  0.51100000000E-03 0. -1.
    9900012    2    1    2    0    0 -0.40557400939E+02 -0.34187094545E+00 -0.15446807175E+02  0.47787268456E+02  0.19999988196E+02 0.  0.
        -12    1    1    2    0    0  0.40557400939E+02  0.34187094545E+00  0.15446807175E+02  0.43400731544E+02  0.00000000000E+00 0.  1.
         11    1    3    3    0    0 -0.27534412265E+02  0.61278057559E+01 -0.70953749799E+01  0.29086735956E+02  0.51100000000E-03 0. -1.
        -11    1    3    3    0    0 -0.72044949541E+01 -0.79364461786E+01 -0.50011956514E+01  0.11828097214E+02  0.51100000000E-03 0.  1.
        -12    1    3    3    0    0 -0.58184937196E+01  0.14667694773E+01 -0.33502365441E+01  0.68724352864E+01  0.00000000000E+00 0.  1.
</event>
<event>
 7    1  0.2497395E-009  0.4778724E+02  0.7816164E-02  0.1312668E+00
        -11   -1    0    0    0    0  0.00000000000E+00  0.00000000000E+00  0.45593999997E+02  0.45594000000E+02  0.51100000000E-03 0.  1.
         11   -1    0    0    0    0 -0.00000000000E+00 -0.00000000000E+00 -0.45593999997E+02  0.45594000000E+02  0.51100000000E-03 0. -1.
    9900012    2    1    2    0    0  0.41010869731E+02 -0.13647606864E+02  0.39340861383E+01  0.47787243752E+02  0.19999875560E+02 0.  0.
        -12    1    1    2    0    0 -0.41010869731E+02  0.13647606864E+02 -0.39340861383E+01  0.43400756248E+02  0.00000000000E+00 0.  1.
         11    1    3    3    0    0  0.14259267657E+02 -0.19205566933E+01 -0.73907539699E+01  0.16175243325E+02  0.51100000000E-03 0. -1.
        -11    1    3    3    0    0  0.23545426925E+01  0.21377263006E-01  0.15701004468E+01  0.28301137702E+01  0.51100000000E-03 0.  1.
         12    1    3    3    0    0  0.24397059381E+02 -0.11748427434E+02  0.97547396613E+01  0.28781886656E+02  0.00000000000E+00 0. -1.
</event>
<event>
 7    1  0.2497395E-009  0.4778727E+02  0.7816164E-02  0.1312668E+00
        -11   -1    0    0    0    0  0.00000000000E+00  0.00000000000E+00  0.45593999997E+02  0.45594000000E+02  0.51100000000E-03 0.  1.
         11   -1    0    0    0    0 -0.00000000000E+00 -0.00000000000E+00 -0.45593999997E+02  0.45594000000E+02  0.51100000000E-03 0. -1.
    9900012    2    1    2    0    0  0.13541609131E+01 -0.39276635161E+02 -0.18415633621E+02  0.47787269787E+02  0.19999994268E+02 0.  0.
        -12    1    1    2    0    0 -0.13541609131E+01  0.39276635161E+02  0.18415633621E+02  0.43400730213E+02  0.00000000000E+00 0.  1.
         11    1    3    3    0    0  0.48151035821E+01 -0.32817123333E+01 -0.32039201699E+01  0.66498092500E+01  0.51100000000E-03 0.  1.
        -11    1    3    3    0    0 -0.19364789422E+01 -0.36088250735E+02 -0.12913433756E+02  0.38377969767E+02  0.51100000000E-03 0. -1.
        -12    1    3    3    0    0 -0.15244637268E+01  0.93327907507E-01 -0.22982796951E+01  0.27594907700E+01  0.00000000000E+00 0.  1.
</event>
<event>
 7    1  0.2497395E-009  0.4778727E+02  0.7816164E-02  0.1312668E+00
        -11   -1    0    0    0    0  0.00000000000E+00  0.00000000000E+00  0.45593999997E+02  0.45594000000E+02  0.51100000000E-03 0.  1.
         11   -1    0    0    0    0 -0.00000000000E+00 -0.00000000000E+00 -0.45593999997E+02  0.45594000000E+02  0.51100000000E-03 0. -1.
    9900012    2    1    2    0    0 -0.20639077882E+02  0.31344078506E+02 -0.21799101086E+02  0.47787267272E+02  0.19999982800E+02 0.  0.
        -12    1    1    2    0    0  0.20639077882E+02 -0.31344078506E+02  0.21799101086E+02  0.43400732728E+02  0.00000000000E+00 0.  1.
         11    1    3    3    0    0 -0.16772184715E+02  0.30873819564E+02 -0.18040304486E+02  0.39496221348E+02  0.51100000000E-03 0. -1.
        -11    1    3    3    0    0  0.10536046300E+01 -0.16107378023E+01 -0.35720382188E+00  0.19575887760E+01  0.51100000000E-03 0.  1.
         12    1    3    3    0    0 -0.49204977968E+01  0.20809967443E+01 -0.34015927779E+01  0.63334571480E+01  0.00000000000E+00 0. -1.
</event>
<event>
 7    1  0.2497395E-009  0.4778729E+02  0.7816164E-02  0.1312668E+00
        -11   -1    0    0    0    0  0.00000000000E+00  0.00000000000E+00  0.45593999997E+02  0.45594000000E+02  0.51100000000E-03 0.  1.
         11   -1    0    0    0    0 -0.00000000000E+00 -0.00000000000E+00 -0.45593999997E+02  0.45594000000E+02  0.51100000000E-03 0. -1.
    9900012    2    1    2    0    0  0.27617623536E+02 -0.32120687733E+02 -0.94419326398E+01  0.47787287999E+02  0.20000077302E+02 0.  0.
        -12    1    1    2    0    0 -0.27617623536E+02  0.32120687733E+02  0.94419326398E+01  0.43400712001E+02  0.00000000000E+00 0.  1.
         11    1    3    3    0    0  0.11184624169E+02 -0.47394125364E+01 -0.24466234330E+01  0.12391279816E+02  0.51100000000E-03 0. -1.
        -11    1    3    3    0    0  0.77998969731E+01 -0.19208922636E+02 -0.10169247662E+02  0.23091875192E+02  0.51100000000E-03 0.  1.
        -12    1    3    3    0    0  0.86331023937E+01 -0.81723525612E+01  0.31739384557E+01  0.12304132990E+02  0.00000000000E+00 0.  1.
</event>
<event>
 7    1  0.2497395E-009  0.4778727E+02  0.7816164E-02  0.1312668E+00
        -11   -1    0    0    0    0  0.00000000000E+00  0.00000000000E+00  0.45593999997E+02  0.45594000000E+02  0.51100000000E-03 0.  1.
         11   -1    0    0    0    0 -0.00000000000E+00 -0.00000000000E+00 -0.45593999997E+02  0.45594000000E+02  0.51100000000E-03 0. -1.
    9900012    2    1    2    0    0  0.26567737755E+02  0.33437656627E+02  0.77266749945E+01  0.47787273317E+02  0.20000010364E+02 0.  0.
        -12    1    1    2    0    0 -0.26567737755E+02 -0.33437656627E+02 -0.77266749945E+01  0.43400726683E+02  0.00000000000E+00 0.  1.
         11    1    3    3    0    0  0.14734709928E+02  0.10515914420E+02 -0.48102960911E+01  0.18730592129E+02  0.51100000000E-03 0. -1.
        -11    1    3    3    0    0  0.55431774844E+01  0.10871028981E+02  0.85178188767E+01  0.14881509548E+02  0.51100000000E-03 0.  1.
         12    1    3    3    0    0  0.62898503424E+01  0.12050713226E+02  0.40191522089E+01  0.14175171641E+02  0.00000000000E+00 0. -1.
</event>
<event>
 7    1  0.2497395E-009  0.4778727E+02  0.7816164E-02  0.1312668E+00
        -11   -1    0    0    0    0  0.00000000000E+00  0.00000000000E+00  0.45593999997E+02  0.45594000000E+02  0.51100000000E-03 0.  1.
         11   -1    0    0    0    0 -0.00000000000E+00 -0.00000000000E+00 -0.45593999997E+02  0.45594000000E+02  0.51100000000E-03 0. -1.
    9900012    2    1    2    0    0  0.25776561804E+02 -0.13846190271E+02 -0.32054259776E+02  0.47787266213E+02  0.19999977973E+02 0.  0.
        -12    1    1    2    0    0 -0.25776561804E+02  0.13846190271E+02  0.32054259776E+02  0.43400733787E+02  0.00000000000E+00 0.  1.
         11    1    3    3    0    0  0.88366049054E+01 -0.35326709803E+01 -0.22548967955E+02  0.24474911780E+02  0.51100000000E-03 0. -1.
        -11    1    3    3    0    0  0.16958714389E+02 -0.11244037091E+02 -0.92184653923E+01  0.22338452683E+02  0.51100000000E-03 0.  1.
         12    1    3    3    0    0 -0.18757490314E-01  0.93051780024E+00 -0.28682642833E+00  0.97390175069E+00  0.00000000000E+00 0. -1.
</event>
<event>
 7    1  0.2497395E-009  0.4778728E+02  0.7816164E-02  0.1312668E+00
        -11   -1    0    0    0    0  0.00000000000E+00  0.00000000000E+00  0.45593999997E+02  0.45594000000E+02  0.51100000000E-03 0.  1.
         11   -1    0    0    0    0 -0.00000000000E+00 -0.00000000000E+00 -0.45593999997E+02  0.45594000000E+02  0.51100000000E-03 0. -1.
    9900012    2    1    2    0    0 -0.35121971198E+02 -0.19330548900E+02 -0.16625274152E+02  0.47787277399E+02  0.20000028974E+02 0.  0.
        -12    1    1    2    0    0  0.35121971198E+02  0.19330548900E+02  0.16625274152E+02  0.43400722601E+02  0.00000000000E+00 0.  1.
         11    1    3    3    0    0 -0.10424512702E+02 -0.64963388049E+01  0.27353002493E+01  0.12583908402E+02  0.51100000000E-03 0. -1.
        -11    1    3    3    0    0 -0.56975287911E+01  0.11292410626E+01 -0.42642754410E+01  0.72056273148E+01  0.51100000000E-03 0.  1.
         12    1    3    3    0    0 -0.18999929705E+02 -0.13963451158E+02 -0.15096298960E+02  0.27997741683E+02  0.00000000000E+00 0. -1.
</event>
<event>
 7    1  0.2497395E-009  0.4778727E+02  0.7816164E-02  0.1312668E+00
        -11   -1    0    0    0    0  0.00000000000E+00  0.00000000000E+00  0.45593999997E+02  0.45594000000E+02  0.51100000000E-03 0.  1.
         11   -1    0    0    0    0 -0.00000000000E+00 -0.00000000000E+00 -0.45593999997E+02  0.45594000000E+02  0.51100000000E-03 0. -1.
    9900012    2    1    2    0    0 -0.23170183351E+02 -0.20095435167E+02 -0.30707322044E+02  0.47787267999E+02  0.19999986116E+02 0.  0.
        -12    1    1    2    0    0  0.23170183351E+02  0.20095435167E+02  0.30707322044E+02  0.43400732001E+02  0.00000000000E+00 0.  1.
         11    1    3    3    0    0 -0.44700795530E+01 -0.77758951609E+01 -0.20647937564E+02  0.22511852049E+02  0.51100000000E-03 0. -1.
        -11    1    3    3    0    0 -0.13626732387E+02 -0.93011592759E+01 -0.43488150569E+01  0.17061992618E+02  0.51100000000E-03 0.  1.
         12    1    3    3    0    0 -0.50733714113E+01 -0.30183807307E+01 -0.57105694226E+01  0.82134233327E+01  0.00000000000E+00 0. -1.
</event>
<event>
 7    1  0.2497395E-009  0.4778727E+02  0.7816164E-02  0.1312668E+00
        -11   -1    0    0    0    0  0.00000000000E+00  0.00000000000E+00  0.45593999997E+02  0.45594000000E+02  0.51100000000E-03 0.  1.
         11   -1    0    0    0    0 -0.00000000000E+00 -0.00000000000E+00 -0.45593999997E+02  0.45594000000E+02  0.51100000000E-03 0. -1.
    9900012    2    1    2    0    0 -0.41101363820E+01 -0.19784588990E+02 -0.38409637216E+02  0.47787269434E+02  0.19999992660E+02 0.  0.
        -12    1    1    2    0    0  0.41101363820E+01  0.19784588990E+02  0.38409637216E+02  0.43400730566E+02  0.00000000000E+00 0.  1.
         11    1    3    3    0    0 -0.53901140343E+01 -0.46221170204E+01 -0.23399239488E+01  0.74761313125E+01  0.51100000000E-03 0. -1.
        -11    1    3    3    0    0  0.43784143739E+01 -0.55010404707E+01 -0.20986859785E+02  0.22133238412E+02  0.51100000000E-03 0.  1.
        -12    1    3    3    0    0 -0.30984367216E+01 -0.96614314990E+01 -0.15082853481E+02  0.18177899710E+02  0.00000000000E+00 0.  1.
</event>
<event>
 7    1  0.2497395E-009  0.4778729E+02  0.7816164E-02  0.1312668E+00
        -11   -1    0    0    0    0  0.00000000000E+00  0.00000000000E+00  0.45593999997E+02  0.45594000000E+02  0.51100000000E-03 0.  1.
         11   -1    0    0    0    0 -0.00000000000E+00 -0.00000000000E+00 -0.45593999997E+02  0.45594000000E+02  0.51100000000E-03 0. -1.
    9900012    2    1    2    0    0 -0.41966503329E+02 -0.93468041278E+01 -0.59220885949E+01  0.47787293987E+02  0.20000104604E+02 0.  0.
        -12    1    1    2    0    0  0.41966503329E+02  0.93468041278E+01  0.59220885949E+01  0.43400706013E+02  0.00000000000E+00 0.  1.
         11    1    3    3    0    0 -0.15626993827E+02 -0.21271065518E+00 -0.34257991124E+01  0.15999508796E+02  0.51100000000E-03 0. -1.
        -11    1    3    3    0    0 -0.28173887250E+02 -0.95979687100E+01 -0.19965129842E+01  0.29830772543E+02  0.51100000000E-03 0.  1.
        -12    1    3    3    0    0  0.18343777477E+01  0.46387523731E+00 -0.49977649832E+00  0.19570126483E+01  0.00000000000E+00 0.  1.
</event>
<event>
 7    1  0.2497395E-009  0.4778726E+02  0.7816164E-02  0.1312668E+00
        -11   -1    0    0    0    0  0.00000000000E+00  0.00000000000E+00  0.45593999997E+02  0.45594000000E+02  0.51100000000E-03 0. -1.
         11   -1    0    0    0    0 -0.00000000000E+00 -0.00000000000E+00 -0.45593999997E+02  0.45594000000E+02  0.51100000000E-03 0.  1.
    9900012    2    1    2    0    0 -0.14956890141E+02  0.40265073126E+02 -0.62160540021E+01  0.47787262635E+02  0.19999961657E+02 0.  0.
        -12    1    1    2    0    0  0.14956890141E+02 -0.40265073126E+02  0.62160540021E+01  0.43400737365E+02  0.00000000000E+00 0.  1.
         11    1    3    3    0    0 -0.37516671999E+01  0.26409912868E+02  0.35474962695E+01  0.26909909597E+02  0.51100000000E-03 0. -1.
        -11    1    3    3    0    0 -0.79934937112E+01  0.10948948311E+02 -0.94689586852E+01  0.16535918169E+02  0.51100000000E-03 0.  1.
         12    1    3    3    0    0 -0.32117292297E+01  0.29062119465E+01 -0.29459158639E+00  0.43414348695E+01  0.00000000000E+00 0. -1.
</event>
<event>
 7    1  0.2497395E-009  0.4778728E+02  0.7816164E-02  0.1312668E+00
        -11   -1    0    0    0    0  0.00000000000E+00  0.00000000000E+00  0.45593999997E+02  0.45594000000E+02  0.51100000000E-03 0.  1.
         11   -1    0    0    0    0 -0.00000000000E+00 -0.00000000000E+00 -0.45593999997E+02  0.45594000000E+02  0.51100000000E-03 0. -1.
    9900012    2    1    2    0    0  0.11680763588E+02 -0.41760534160E+02  0.18000434724E+01  0.47787278718E+02  0.20000034986E+02 0.  0.
        -12    1    1    2    0    0 -0.11680763588E+02  0.41760534160E+02 -0.18000434724E+01  0.43400721282E+02  0.00000000000E+00 0.  1.
         11    1    3    3    0    0  0.33823926976E+01 -0.96156456689E+01  0.45993647341E+01  0.11182816202E+02  0.51100000000E-03 0. -1.
        -11    1    3    3    0    0 -0.16159650070E+01  0.23295670989E+00  0.18018584406E+01  0.24315233566E+01  0.51100000000E-03 0.  1.
        -12    1    3    3    0    0  0.99143358973E+01 -0.32377845201E+02 -0.46011797023E+01  0.34172939159E+02  0.00000000000E+00 0.  1.
</event>
<event>
 7    1  0.2497395E-009  0.4778727E+02  0.7816164E-02  0.1312668E+00
        -11   -1    0    0    0    0  0.00000000000E+00  0.00000000000E+00  0.45593999997E+02  0.45594000000E+02  0.51100000000E-03 0. -1.
         11   -1    0    0    0    0 -0.00000000000E+00 -0.00000000000E+00 -0.45593999997E+02  0.45594000000E+02  0.51100000000E-03 0.  1.
    9900012    2    1    2    0    0 -0.27641051463E+02 -0.63169589185E+01  0.32858659502E+02  0.47787271893E+02  0.20000003870E+02 0.  0.
        -12    1    1    2    0    0  0.27641051463E+02  0.63169589185E+01 -0.32858659502E+02  0.43400728107E+02  0.00000000000E+00 0.  1.
         11    1    3    3    0    0 -0.23832555176E+01  0.95632170050E-01 -0.64389746669E+00  0.24705579497E+01  0.51100000000E-03 0. -1.
        -11    1    3    3    0    0 -0.20159660887E+02 -0.91296837789E+01  0.17223623856E+02  0.28043114520E+02  0.51100000000E-03 0.  1.
        -12    1    3    3    0    0 -0.50981350580E+01  0.27170926904E+01  0.16278933112E+02  0.17273599423E+02  0.00000000000E+00 0.  1.
</event>
<event>
 7    1  0.2497395E-009  0.4778727E+02  0.7816164E-02  0.1312668E+00
        -11   -1    0    0    0    0  0.00000000000E+00  0.00000000000E+00  0.45593999997E+02  0.45594000000E+02  0.51100000000E-03 0.  1.
         11   -1    0    0    0    0 -0.00000000000E+00 -0.00000000000E+00 -0.45593999997E+02  0.45594000000E+02  0.51100000000E-03 0. -1.
    9900012    2    1    2    0    0  0.36736739448E+02  0.60709002026E+01 -0.22297518673E+02  0.47787271970E+02  0.20000004222E+02 0.  0.
        -12    1    1    2    0    0 -0.36736739448E+02 -0.60709002026E+01  0.22297518673E+02  0.43400728030E+02  0.00000000000E+00 0.  1.
         11    1    3    3    0    0  0.31692488281E+02  0.36498328208E+01 -0.89988246849E+01  0.33146854135E+02  0.51100000000E-03 0. -1.
        -11    1    3    3    0    0  0.10435468437E+01 -0.48658088182E+00 -0.30696378629E+01  0.32784795012E+01  0.51100000000E-03 0.  1.
         12    1    3    3    0    0  0.40007043232E+01  0.29076482636E+01 -0.10229056125E+02  0.11361938334E+02  0.00000000000E+00 0. -1.
</event>
<event>
 7    1  0.2497395E-009  0.4778727E+02  0.7816164E-02  0.1312668E+00
        -11   -1    0    0    0    0  0.00000000000E+00  0.00000000000E+00  0.45593999997E+02  0.45594000000E+02  0.51100000000E-03 0. -1.
         11   -1    0    0    0    0 -0.00000000000E+00 -0.00000000000E+00 -0.45593999997E+02  0.45594000000E+02  0.51100000000E-03 0.  1.
    9900012    2    1    2    0    0 -0.33725974497E+02 -0.27286481970E+02  0.12765288420E+01  0.47787274430E+02  0.20000015436E+02 0.  0.
        -12    1    1    2    0    0  0.33725974497E+02  0.27286481970E+02 -0.12765288420E+01  0.43400725570E+02  0.00000000000E+00 0.  1.
         11    1    3    3    0    0 -0.23129069049E+02 -0.22333646738E+02  0.48095682530E+01  0.32509653316E+02  0.51100000000E-03 0. -1.
        -11    1    3    3    0    0 -0.30513958006E+01 -0.64822209283E+01 -0.16861516965E+01  0.73602521900E+01  0.51100000000E-03 0.  1.
         12    1    3    3    0    0 -0.75455096476E+01  0.15293856957E+01 -0.18468877145E+01  0.79173689240E+01  0.00000000000E+00 0. -1.
</event>
<event>
 7    1  0.2497395E-009  0.4778727E+02  0.7816164E-02  0.1312668E+00
        -11   -1    0    0    0    0  0.00000000000E+00  0.00000000000E+00  0.45593999997E+02  0.45594000000E+02  0.51100000000E-03 0.  1.
         11   -1    0    0    0    0 -0.00000000000E+00 -0.00000000000E+00 -0.45593999997E+02  0.45594000000E+02  0.51100000000E-03 0. -1.
    9900012    2    1    2    0    0  0.31644901197E+02 -0.91979604010E+01 -0.28242182924E+02  0.47787272545E+02  0.20000006840E+02 0.  0.
        -12    1    1    2    0    0 -0.31644901197E+02  0.91979604010E+01  0.28242182924E+02  0.43400727455E+02  0.00000000000E+00 0.  1.
         11    1    3    3    0    0  0.71775004006E+01 -0.74359617274E+00 -0.16767293014E+02  0.18254083449E+02  0.51100000000E-03 0. -1.
        -11    1    3    3    0    0  0.45145161995E+01 -0.41903269740E+01 -0.72755705914E-01  0.61599505127E+01  0.51100000000E-03 0.  1.
         12    1    3    3    0    0  0.19952884597E+02 -0.42640372542E+01 -0.11402134204E+02  0.23373238583E+02  0.00000000000E+00 0. -1.
</event>
<event>
 7    1  0.2497395E-009  0.4778727E+02  0.7816164E-02  0.1312668E+00
        -11   -1    0    0    0    0  0.00000000000E+00  0.00000000000E+00  0.45593999997E+02  0.45594000000E+02  0.51100000000E-03 0. -1.
         11   -1    0    0    0    0 -0.00000000000E+00 -0.00000000000E+00 -0.45593999997E+02  0.45594000000E+02  0.51100000000E-03 0.  1.
    9900012    2    1    2    0    0  0.25512619095E+02 -0.14403735204E+02  0.32019717109E+02  0.47787267234E+02  0.19999982628E+02 0.  0.
        -12    1    1    2    0    0 -0.25512619095E+02  0.14403735204E+02 -0.32019717109E+02  0.43400732766E+02  0.00000000000E+00 0.  1.
         11    1    3    3    0    0  0.67520246426E+01 -0.20799690130E+01  0.12791034764E+02  0.14612552086E+02  0.51100000000E-03 0. -1.
        -11    1    3    3    0    0  0.15223931971E+02 -0.14581195533E+02  0.10634069511E+02  0.23610650191E+02  0.51100000000E-03 0.  1.
        -12    1    3    3    0    0  0.35366624810E+01  0.22574293427E+01  0.85946128333E+01  0.95640649567E+01  0.00000000000E+00 0.  1.
</event>
<event>
 7    1  0.2497395E-009  0.4778727E+02  0.7816164E-02  0.1312668E+00
        -11   -1    0    0    0    0  0.00000000000E+00  0.00000000000E+00  0.45593999997E+02  0.45594000000E+02  0.51100000000E-03 0.  1.
         11   -1    0    0    0    0 -0.00000000000E+00 -0.00000000000E+00 -0.45593999997E+02  0.45594000000E+02  0.51100000000E-03 0. -1.
    9900012    2    1    2    0    0  0.81965001134E+01 -0.11848811305E+02 -0.40939546078E+02  0.47787269862E+02  0.19999994608E+02 0.  0.
        -12    1    1    2    0    0 -0.81965001134E+01  0.11848811305E+02  0.40939546078E+02  0.43400730138E+02  0.00000000000E+00 0.  1.
         11    1    3    3    0    0  0.88982111777E+01  0.11167841920E+01 -0.25133700473E+02  0.26685731559E+02  0.51100000000E-03 0. -1.
        -11    1    3    3    0    0 -0.26876048253E+01 -0.63235185557E+01 -0.95410859068E+01  0.11757653982E+02  0.51100000000E-03 0.  1.
         12    1    3    3    0    0  0.19858937609E+01 -0.66420769413E+01 -0.62647596983E+01  0.93438843209E+01  0.00000000000E+00 0. -1.
</event>
<event>
 7    1  0.2497395E-009  0.4778727E+02  0.7816164E-02  0.1312668E+00
        -11   -1    0    0    0    0  0.00000000000E+00  0.00000000000E+00  0.45593999997E+02  0.45594000000E+02  0.51100000000E-03 0.  1.
         11   -1    0    0    0    0 -0.00000000000E+00 -0.00000000000E+00 -0.45593999997E+02  0.45594000000E+02  0.51100000000E-03 0. -1.
    9900012    2    1    2    0    0  0.20145671647E+02 -0.35023090781E+02  0.15847968259E+02  0.47787273371E+02  0.20000010609E+02 0.  0.
        -12    1    1    2    0    0 -0.20145671647E+02  0.35023090781E+02 -0.15847968259E+02  0.43400726629E+02  0.00000000000E+00 0.  1.
         11    1    3    3    0    0  0.47291588058E+01 -0.37422512531E-01  0.96844526222E+00  0.48274454882E+01  0.51100000000E-03 0. -1.
        -11    1    3    3    0    0  0.12544467720E+02 -0.31326992188E+02  0.17071712580E+02  0.37817819618E+02  0.51100000000E-03 0.  1.
         12    1    3    3    0    0  0.28720451208E+01 -0.36586760799E+01 -0.21921895829E+01  0.51420082654E+01  0.00000000000E+00 0. -1.
</event>
<event>
 7    1  0.2497395E-009  0.4778727E+02  0.7816164E-02  0.1312668E+00
        -11   -1    0    0    0    0  0.00000000000E+00  0.00000000000E+00  0.45593999997E+02  0.45594000000E+02  0.51100000000E-03 0. -1.
         11   -1    0    0    0    0 -0.00000000000E+00 -0.00000000000E+00 -0.45593999997E+02  0.45594000000E+02  0.51100000000E-03 0.  1.
    9900012    2    1    2    0    0 -0.18556879565E+02  0.26179326165E+02  0.29221707136E+02  0.47787273443E+02  0.20000010938E+02 0.  0.
        -12    1    1    2    0    0  0.18556879565E+02 -0.26179326165E+02 -0.29221707136E+02  0.43400726557E+02  0.00000000000E+00 0.  1.
         11    1    3    3    0    0 -0.51301984182E+01  0.33941525812E+00  0.68581272578E+01  0.85713504346E+01  0.51100000000E-03 0. -1.
        -11    1    3    3    0    0 -0.11558858796E+02  0.14413791402E+02  0.65196895618E+01  0.19592624925E+02  0.51100000000E-03 0.  1.
        -12    1    3    3    0    0 -0.18678223516E+01  0.11426119506E+02  0.15843890317E+02  0.19623298083E+02  0.00000000000E+00 0.  1.
</event>
<event>
 7    1  0.2497395E-009  0.4778727E+02  0.7816164E-02  0.1312668E+00
        -11   -1    0    0    0    0  0.00000000000E+00  0.00000000000E+00  0.45593999997E+02  0.45594000000E+02  0.51100000000E-03 0.  1.
         11   -1    0    0    0    0 -0.00000000000E+00 -0.00000000000E+00 -0.45593999997E+02  0.45594000000E+02  0.51100000000E-03 0. -1.
    9900012    2    1    2    0    0  0.54220211731E+01  0.41120673658E+02 -0.12779500439E+02  0.47787265592E+02  0.19999975142E+02 0.  0.
        -12    1    1    2    0    0 -0.54220211731E+01 -0.41120673658E+02  0.12779500439E+02  0.43400734408E+02  0.00000000000E+00 0.  1.
         11    1    3    3    0    0  0.20085729216E+01  0.83200886249E+01 -0.27235386763E+01  0.89819765692E+01  0.51100000000E-03 0. -1.
        -11    1    3    3    0    0  0.95463287558E+01  0.25003602992E+02 -0.36869931551E+01  0.27016781342E+02  0.51100000000E-03 0.  1.
        -12    1    3    3    0    0 -0.61328805043E+01  0.77969820403E+01 -0.63689686072E+01  0.11788507681E+02  0.00000000000E+00 0.  1.
</event>
<event>
 7    1  0.2497395E-009  0.4778727E+02  0.7816164E-02  0.1312668E+00
        -11   -1    0    0    0    0  0.00000000000E+00  0.00000000000E+00  0.45593999997E+02  0.45594000000E+02  0.51100000000E-03 0.  1.
         11   -1    0    0    0    0 -0.00000000000E+00 -0.00000000000E+00 -0.45593999997E+02  0.45594000000E+02  0.51100000000E-03 0. -1.
    9900012    2    1    2    0    0  0.80750195045E+01  0.38398334204E+02 -0.18546841542E+02  0.47787270273E+02  0.19999996484E+02 0.  0.
        -12    1    1    2    0    0 -0.80750195045E+01 -0.38398334204E+02  0.18546841542E+02  0.43400729727E+02  0.00000000000E+00 0.  1.
         11    1    3    3    0    0  0.97733303199E+01  0.23476586574E+02 -0.14222720498E+02  0.29136813164E+02  0.51100000000E-03 0. -1.
        -11    1    3    3    0    0 -0.34533377250E+01  0.38122146878E+01 -0.52690634129E+01  0.73635284870E+01  0.51100000000E-03 0.  1.
        -12    1    3    3    0    0  0.17550269096E+01  0.11109532942E+02  0.94494236922E+00  0.11286928622E+02  0.00000000000E+00 0.  1.
</event>
<event>
 7    1  0.2497395E-009  0.4778727E+02  0.7816164E-02  0.1312668E+00
        -11   -1    0    0    0    0  0.00000000000E+00  0.00000000000E+00  0.45593999997E+02  0.45594000000E+02  0.51100000000E-03 0.  1.
         11   -1    0    0    0    0 -0.00000000000E+00 -0.00000000000E+00 -0.45593999997E+02  0.45594000000E+02  0.51100000000E-03 0. -1.
    9900012    2    1    2    0    0  0.32859139442E+01  0.94559481943E+01 -0.42230452603E+02  0.47787270585E+02  0.19999997906E+02 0.  0.
        -12    1    1    2    0    0 -0.32859139442E+01 -0.94559481943E+01  0.42230452603E+02  0.43400729415E+02  0.00000000000E+00 0.  1.
         11    1    3    3    0    0  0.12708562736E+01  0.12129007584E+01 -0.43098310185E+01  0.46541215699E+01  0.51100000000E-03 0. -1.
        -11    1    3    3    0    0 -0.47331372136E+01  0.10242262982E+02 -0.32016758392E+02  0.33946713494E+02  0.51100000000E-03 0.  1.
        -12    1    3    3    0    0  0.67481948842E+01 -0.19992155458E+01 -0.59038631926E+01  0.91864355214E+01  0.00000000000E+00 0.  1.
</event>
<event>
 7    1  0.2497395E-009  0.4778727E+02  0.7816164E-02  0.1312668E+00
        -11   -1    0    0    0    0  0.00000000000E+00  0.00000000000E+00  0.45593999997E+02  0.45594000000E+02  0.51100000000E-03 0.  1.
         11   -1    0    0    0    0 -0.00000000000E+00 -0.00000000000E+00 -0.45593999997E+02  0.45594000000E+02  0.51100000000E-03 0. -1.
    9900012    2    1    2    0    0  0.35935953101E+02  0.49400266512E+01 -0.23829117684E+02  0.47787269151E+02  0.19999991368E+02 0.  0.
        -12    1    1    2    0    0 -0.35935953101E+02 -0.49400266512E+01  0.23829117684E+02  0.43400730849E+02  0.00000000000E+00 0.  1.
         11    1    3    3    0    0  0.22889359708E+02  0.62942908536E+01 -0.20129326876E+02  0.31124438725E+02  0.51100000000E-03 0. -1.
        -11    1    3    3    0    0  0.11605478122E+02  0.34545116145E+00 -0.63231430113E+01  0.13220763849E+02  0.51100000000E-03 0.  1.
         12    1    3    3    0    0  0.14411152712E+01 -0.16997153638E+01  0.26233522032E+01  0.34420665777E+01  0.00000000000E+00 0. -1.
</event>
<event>
 7    1  0.2497395E-009  0.4778728E+02  0.7816164E-02  0.1312668E+00
        -11   -1    0    0    0    0  0.00000000000E+00  0.00000000000E+00  0.45593999997E+02  0.45594000000E+02  0.51100000000E-03 0. -1.
         11   -1    0    0    0    0 -0.00000000000E+00 -0.00000000000E+00 -0.45593999997E+02  0.45594000000E+02  0.51100000000E-03 0.  1.
    9900012    2    1    2    0    0  0.40657234790E+02 -0.28967709655E+01  0.14907063008E+02  0.47787279380E+02  0.20000038007E+02 0.  0.
        -12    1    1    2    0    0 -0.40657234790E+02  0.28967709655E+01 -0.14907063008E+02  0.43400720620E+02  0.00000000000E+00 0.  1.
         11    1    3    3    0    0  0.19268669635E+02 -0.25067094454E+01  0.11874312757E+02  0.22772011888E+02  0.51100000000E-03 0. -1.
        -11    1    3    3    0    0  0.14677067160E+02 -0.16478388289E+01 -0.39091944873E+01  0.15277875344E+02  0.51100000000E-03 0.  1.
        -12    1    3    3    0    0  0.67114979952E+01  0.12577773088E+01  0.69419447383E+01  0.97373921482E+01  0.00000000000E+00 0.  1.
</event>
<event>
 7    1  0.2497395E-009  0.4778727E+02  0.7816164E-02  0.1312668E+00
        -11   -1    0    0    0    0  0.00000000000E+00  0.00000000000E+00  0.45593999997E+02  0.45594000000E+02  0.51100000000E-03 0.  1.
         11   -1    0    0    0    0 -0.00000000000E+00 -0.00000000000E+00 -0.45593999997E+02  0.45594000000E+02  0.51100000000E-03 0. -1.
    9900012    2    1    2    0    0  0.19271382007E+02 -0.31928293290E+02 -0.22199576183E+02  0.47787271210E+02  0.20000000753E+02 0.  0.
        -12    1    1    2    0    0 -0.19271382007E+02  0.31928293290E+02  0.22199576183E+02  0.43400728790E+02  0.00000000000E+00 0.  1.
         11    1    3    3    0    0  0.18741791595E+01 -0.83615934330E+01 -0.11270709834E+02  0.14158308257E+02  0.51100000000E-03 0. -1.
        -11    1    3    3    0    0  0.13127422310E+02 -0.24047798407E+02 -0.84629729745E+01  0.28674862451E+02  0.51100000000E-03 0.  1.
        -12    1    3    3    0    0  0.42697805373E+01  0.48109855087E+00 -0.24658933740E+01  0.49541005020E+01  0.00000000000E+00 0.  1.
</event>
<event>
 7    1  0.2497395E-009  0.4778727E+02  0.7816164E-02  0.1312668E+00
        -11   -1    0    0    0    0  0.00000000000E+00  0.00000000000E+00  0.45593999997E+02  0.45594000000E+02  0.51100000000E-03 0. -1.
         11   -1    0    0    0    0 -0.00000000000E+00 -0.00000000000E+00 -0.45593999997E+02  0.45594000000E+02  0.51100000000E-03 0.  1.
    9900012    2    1    2    0    0  0.33828955410E+01 -0.42191277543E+02  0.95955871149E+01  0.47787272183E+02  0.20000005190E+02 0.  0.
        -12    1    1    2    0    0 -0.33828955410E+01  0.42191277543E+02 -0.95955871149E+01  0.43400727817E+02  0.00000000000E+00 0.  1.
         11    1    3    3    0    0 -0.17155318866E+01 -0.19722968114E+02  0.78972970816E+01  0.21314451022E+02  0.51100000000E-03 0. -1.
        -11    1    3    3    0    0  0.68244122752E+01 -0.62706260609E+01  0.38620514760E+01  0.10040358358E+02  0.51100000000E-03 0.  1.
        -12    1    3    3    0    0 -0.17259848477E+01 -0.16197683368E+02 -0.21637614426E+01  0.16432462803E+02  0.00000000000E+00 0.  1.
</event>
<event>
 7    1  0.2497395E-009  0.4778727E+02  0.7816164E-02  0.1312668E+00
        -11   -1    0    0    0    0  0.00000000000E+00  0.00000000000E+00  0.45593999997E+02  0.45594000000E+02  0.51100000000E-03 0.  1.
         11   -1    0    0    0    0 -0.00000000000E+00 -0.00000000000E+00 -0.45593999997E+02  0.45594000000E+02  0.51100000000E-03 0. -1.
    9900012    2    1    2    0    0 -0.16007438905E+02  0.84760447731E+01 -0.39440362997E+02  0.47787266497E+02  0.19999979264E+02 0.  0.
        -12    1    1    2    0    0  0.16007438905E+02 -0.84760447731E+01  0.39440362997E+02  0.43400733503E+02  0.00000000000E+00 0.  1.
         11    1    3    3    0    0 -0.12890519982E+02  0.14103149180E+02 -0.21773659736E+02  0.28968199474E+02  0.51100000000E-03 0. -1.
        -11    1    3    3    0    0 -0.20302781998E+01 -0.43911347639E+01 -0.13301724079E+02  0.14154149845E+02  0.51100000000E-03 0.  1.
         12    1    3    3    0    0 -0.10866407234E+01 -0.12359696430E+01 -0.43649791816E+01  0.46649171779E+01  0.00000000000E+00 0. -1.
</event>
<event>
 7    1  0.2497395E-009  0.4778727E+02  0.7816164E-02  0.1312668E+00
        -11   -1    0    0    0    0  0.00000000000E+00  0.00000000000E+00  0.45593999997E+02  0.45594000000E+02  0.51100000000E-03 0.  1.
         11   -1    0    0    0    0 -0.00000000000E+00 -0.00000000000E+00 -0.45593999997E+02  0.45594000000E+02  0.51100000000E-03 0. -1.
    9900012    2    1    2    0    0 -0.14809289398E+02 -0.20746290090E+02 -0.35126911099E+02  0.47787268574E+02  0.19999988735E+02 0.  0.
        -12    1    1    2    0    0  0.14809289398E+02  0.20746290090E+02  0.35126911099E+02  0.43400731426E+02  0.00000000000E+00 0.  1.
         11    1    3    3    0    0  0.26262398292E+01 -0.32391275155E+01 -0.68540324902E+01  0.80228950100E+01  0.51100000000E-03 0. -1.
        -11    1    3    3    0    0 -0.17042960847E+02 -0.12487018108E+02 -0.16012326231E+02  0.26510049552E+02  0.51100000000E-03 0.  1.
        -12    1    3    3    0    0 -0.39256838062E+00 -0.50201444665E+01 -0.12260552378E+02  0.13254324012E+02  0.00000000000E+00 0.  1.
</event>
<event>
 7    1  0.2497395E-009  0.4778727E+02  0.7816164E-02  0.1312668E+00
        -11   -1    0    0    0    0  0.00000000000E+00  0.00000000000E+00  0.45593999997E+02  0.45594000000E+02  0.51100000000E-03 0. -1.
         11   -1    0    0    0    0 -0.00000000000E+00 -0.00000000000E+00 -0.45593999997E+02  0.45594000000E+02  0.51100000000E-03 0.  1.
    9900012    2    1    2    0    0  0.38811879805E+02  0.19366889048E+02 -0.14781142619E+01  0.47787271583E+02  0.20000002454E+02 0.  0.
        -12    1    1    2    0    0 -0.38811879805E+02 -0.19366889048E+02  0.14781142619E+01  0.43400728417E+02  0.00000000000E+00 0.  1.
         11    1    3    3    0    0  0.58290268085E+01  0.34884245404E+01  0.11548279730E+01  0.68905941120E+01  0.51100000000E-03 0. -1.
        -11    1    3    3    0    0  0.11619207661E+02  0.14613735054E+02 -0.50997409905E+01  0.19353929765E+02  0.51100000000E-03 0.  1.
        -12    1    3    3    0    0  0.21363645335E+02  0.12647294529E+01  0.24667987556E+01  0.21542747706E+02  0.00000000000E+00 0.  1.
</event>
<event>
 7    1  0.2497395E-009  0.4778727E+02  0.7816164E-02  0.1312668E+00
        -11   -1    0    0    0    0  0.00000000000E+00  0.00000000000E+00  0.45593999997E+02  0.45594000000E+02  0.51100000000E-03 0. -1.
         11   -1    0    0    0    0 -0.00000000000E+00 -0.00000000000E+00 -0.45593999997E+02  0.45594000000E+02  0.51100000000E-03 0.  1.
    9900012    2    1    2    0    0  0.51584354081E+01 -0.26735738407E+02  0.33796659168E+02  0.47787270341E+02  0.19999996791E+02 0.  0.
        -12    1    1    2    0    0 -0.51584354081E+01  0.26735738407E+02 -0.33796659168E+02  0.43400729659E+02  0.00000000000E+00 0.  1.
         11    1    3    3    0    0  0.20547688881E+01 -0.12683321812E+02  0.25181640455E+02  0.28270191786E+02  0.51100000000E-03 0. -1.
        -11    1    3    3    0    0  0.57120054957E+01 -0.11422958697E+02  0.92366556134E+01  0.15761560816E+02  0.51100000000E-03 0.  1.
         12    1    3    3    0    0 -0.26083389756E+01 -0.26294578981E+01 -0.62163689975E+00  0.37555177386E+01  0.00000000000E+00 0. -1.
</event>
<event>
 7    1  0.2497395E-009  0.4778727E+02  0.7816164E-02  0.1312668E+00
        -11   -1    0    0    0    0  0.00000000000E+00  0.00000000000E+00  0.45593999997E+02  0.45594000000E+02  0.51100000000E-03 0.  1.
         11   -1    0    0    0    0 -0.00000000000E+00 -0.00000000000E+00 -0.45593999997E+02  0.45594000000E+02  0.51100000000E-03 0. -1.
    9900012    2    1    2    0    0  0.15621121187E+02  0.19186094518E+01 -0.40446542456E+02  0.47787270905E+02  0.19999999363E+02 0.  0.
        -12    1    1    2    0    0 -0.15621121187E+02 -0.19186094518E+01  0.40446542456E+02  0.43400729095E+02  0.00000000000E+00 0.  1.
         11    1    3    3    0    0  0.11990722405E+02  0.49146552873E+01 -0.32903915761E+02  0.35363808238E+02  0.51100000000E-03 0. -1.
        -11    1    3    3    0    0 -0.31785939142E+00 -0.32527328426E+00  0.18421737552E+01  0.18974829927E+01  0.51100000000E-03 0.  1.
        -12    1    3    3    0    0  0.39482581739E+01 -0.26707725512E+01 -0.93848004494E+01  0.10525979674E+02  0.00000000000E+00 0.  1.
</event>
<event>
 7    1  0.2497395E-009  0.4778727E+02  0.7816164E-02  0.1312668E+00
        -11   -1    0    0    0    0  0.00000000000E+00  0.00000000000E+00  0.45593999997E+02  0.45594000000E+02  0.51100000000E-03 0. -1.
         11   -1    0    0    0    0 -0.00000000000E+00 -0.00000000000E+00 -0.45593999997E+02  0.45594000000E+02  0.51100000000E-03 0.  1.
    9900012    2    1    2    0    0 -0.31500911213E+02  0.14218534543E+02  0.26251647626E+02  0.47787272646E+02  0.20000007301E+02 0.  0.
        -12    1    1    2    0    0  0.31500911213E+02 -0.14218534543E+02 -0.26251647626E+02  0.43400727354E+02  0.00000000000E+00 0.  1.
         11    1    3    3    0    0 -0.19261564516E+02  0.10409212403E+02  0.93142588807E+01  0.23793171063E+02  0.51100000000E-03 0. -1.
        -11    1    3    3    0    0 -0.35555352612E+01  0.25872896526E+01  0.14111366415E+02  0.14780614368E+02  0.51100000000E-03 0.  1.
        -12    1    3    3    0    0 -0.86838114352E+01  0.12220324878E+01  0.28260223305E+01  0.92134872147E+01  0.00000000000E+00 0.  1.
</event>
<event>
 7    1  0.2497395E-009  0.4778727E+02  0.7816164E-02  0.1312668E+00
        -11   -1    0    0    0    0  0.00000000000E+00  0.00000000000E+00  0.45593999997E+02  0.45594000000E+02  0.51100000000E-03 0.  1.
         11   -1    0    0    0    0 -0.00000000000E+00 -0.00000000000E+00 -0.45593999997E+02  0.45594000000E+02  0.51100000000E-03 0. -1.
    9900012    2    1    2    0    0 -0.13680854148E+02  0.82758229976E+01 -0.40348090873E+02  0.47787268974E+02  0.19999990559E+02 0.  0.
        -12    1    1    2    0    0  0.13680854148E+02 -0.82758229976E+01  0.40348090873E+02  0.43400731026E+02  0.00000000000E+00 0.  1.
         11    1    3    3    0    0 -0.13778745811E+02  0.78472994396E+01 -0.25798361485E+02  0.30281832841E+02  0.51100000000E-03 0.  1.
        -11    1    3    3    0    0 -0.43313427795E+01  0.53026277285E+00 -0.34779265574E+01  0.55801148986E+01  0.51100000000E-03 0. -1.
         12    1    3    3    0    0  0.44292344432E+01 -0.10173921494E+00 -0.11071802831E+02  0.11925321235E+02  0.00000000000E+00 0. -1.
</event>
<event>
 7    1  0.2497395E-009  0.4778727E+02  0.7816164E-02  0.1312668E+00
        -11   -1    0    0    0    0  0.00000000000E+00  0.00000000000E+00  0.45593999997E+02  0.45594000000E+02  0.51100000000E-03 0.  1.
         11   -1    0    0    0    0 -0.00000000000E+00 -0.00000000000E+00 -0.45593999997E+02  0.45594000000E+02  0.51100000000E-03 0. -1.
    9900012    2    1    2    0    0 -0.85249418566E+01  0.77317293191E+01 -0.41846971280E+02  0.47787271006E+02  0.19999999826E+02 0.  0.
        -12    1    1    2    0    0  0.85249418566E+01 -0.77317293191E+01  0.41846971280E+02  0.43400728994E+02  0.00000000000E+00 0.  1.
         11    1    3    3    0    0 -0.64823941393E+01 -0.18352346889E+01 -0.19934218293E+02  0.21041924326E+02  0.51100000000E-03 0. -1.
        -11    1    3    3    0    0  0.36899426958E+01  0.85006901787E+01 -0.11093034175E+02  0.14454508573E+02  0.51100000000E-03 0.  1.
        -12    1    3    3    0    0 -0.57324904130E+01  0.10662738293E+01 -0.10819718811E+02  0.12290838107E+02  0.00000000000E+00 0.  1.
</event>
<event>
 7    1  0.2497395E-009  0.4778727E+02  0.7816164E-02  0.1312668E+00
        -11   -1    0    0    0    0  0.00000000000E+00  0.00000000000E+00  0.45593999997E+02  0.45594000000E+02  0.51100000000E-03 0.  1.
         11   -1    0    0    0    0 -0.00000000000E+00 -0.00000000000E+00 -0.45593999997E+02  0.45594000000E+02  0.51100000000E-03 0. -1.
    9900012    2    1    2    0    0 -0.18326930663E+02  0.39146000231E+02  0.39163390222E+01  0.47787269212E+02  0.19999991645E+02 0.  0.
        -12    1    1    2    0    0  0.18326930663E+02 -0.39146000231E+02 -0.39163390222E+01  0.43400730788E+02  0.00000000000E+00 0.  1.
         11    1    3    3    0    0 -0.49821375239E+01  0.72693256812E+01  0.52609827247E+00  0.88284522890E+01  0.51100000000E-03 0. -1.
        -11    1    3    3    0    0 -0.96468981999E+01  0.41225731344E+01 -0.12938357484E+01  0.10570348402E+02  0.51100000000E-03 0.  1.
        -12    1    3    3    0    0 -0.36978949390E+01  0.27754101415E+02  0.46840764982E+01  0.28388468521E+02  0.00000000000E+00 0.  1.
</event>
<event>
 7    1  0.2497395E-009  0.4778727E+02  0.7816164E-02  0.1312668E+00
        -11   -1    0    0    0    0  0.00000000000E+00  0.00000000000E+00  0.45593999997E+02  0.45594000000E+02  0.51100000000E-03 0.  1.
         11   -1    0    0    0    0 -0.00000000000E+00 -0.00000000000E+00 -0.45593999997E+02  0.45594000000E+02  0.51100000000E-03 0. -1.
    9900012    2    1    2    0    0 -0.16957934065E+02  0.34676849185E+02 -0.19838546095E+02  0.47787270648E+02  0.19999998192E+02 0.  0.
        -12    1    1    2    0    0  0.16957934065E+02 -0.34676849185E+02  0.19838546095E+02  0.43400729352E+02  0.00000000000E+00 0.  1.
         11    1    3    3    0    0 -0.31230250162E+00  0.10014132767E+02 -0.11585312469E+02  0.15316652806E+02  0.51100000000E-03 0. -1.
        -11    1    3    3    0    0 -0.16983371916E+02  0.25250233247E+02 -0.72875125794E+01  0.31290845954E+02  0.51100000000E-03 0.  1.
        -12    1    3    3    0    0  0.33774035211E+00 -0.58751682831E+00 -0.96572104583E+00  0.11797718878E+01  0.00000000000E+00 0.  1.
</event>
<event>
 7    1  0.2497395E-009  0.4778727E+02  0.7816164E-02  0.1312668E+00
        -11   -1    0    0    0    0  0.00000000000E+00  0.00000000000E+00  0.45593999997E+02  0.45594000000E+02  0.51100000000E-03 0.  1.
         11   -1    0    0    0    0 -0.00000000000E+00 -0.00000000000E+00 -0.45593999997E+02  0.45594000000E+02  0.51100000000E-03 0. -1.
    9900012    2    1    2    0    0  0.24689001079E+02  0.28963131728E+02 -0.20861773796E+02  0.47787269826E+02  0.19999994443E+02 0.  0.
        -12    1    1    2    0    0 -0.24689001079E+02 -0.28963131728E+02  0.20861773796E+02  0.43400730174E+02  0.00000000000E+00 0.  1.
         11    1    3    3    0    0  0.18216905533E+02  0.23230704811E+02 -0.12878196801E+02  0.32208217062E+02  0.51100000000E-03 0. -1.
        -11    1    3    3    0    0  0.75887080996E+01  0.80605118366E+00 -0.71535144732E+01  0.10459970302E+02  0.51100000000E-03 0.  1.
         12    1    3    3    0    0 -0.11166125541E+01  0.49263757329E+01 -0.83006252247E+00  0.51190824616E+01  0.00000000000E+00 0. -1.
</event>
<event>
 7    1  0.2497395E-009  0.4778728E+02  0.7816164E-02  0.1312668E+00
        -11   -1    0    0    0    0  0.00000000000E+00  0.00000000000E+00  0.45593999997E+02  0.45594000000E+02  0.51100000000E-03 0. -1.
         11   -1    0    0    0    0 -0.00000000000E+00 -0.00000000000E+00 -0.45593999997E+02  0.45594000000E+02  0.51100000000E-03 0.  1.
    9900012    2    1    2    0    0  0.23122982680E+02 -0.34731456626E+02 -0.11944715321E+02  0.47787278445E+02  0.20000033743E+02 0.  0.
        -12    1    1    2    0    0 -0.23122982680E+02  0.34731456626E+02  0.11944715321E+02  0.43400721555E+02  0.00000000000E+00 0.  1.
         11    1    3    3    0    0  0.73767542731E+01 -0.10007129884E+02 -0.63281666881E+01  0.13950084086E+02  0.51100000000E-03 0. -1.
        -11    1    3    3    0    0 -0.76332938615E+00 -0.12115847919E+02 -0.47794189317E+01  0.13046811417E+02  0.51100000000E-03 0.  1.
        -12    1    3    3    0    0  0.16509557793E+02 -0.12608478822E+02 -0.83712970103E+00  0.20790382942E+02  0.00000000000E+00 0.  1.
</event>
<event>
 7    1  0.2497395E-009  0.4778727E+02  0.7816164E-02  0.1312668E+00
        -11   -1    0    0    0    0  0.00000000000E+00  0.00000000000E+00  0.45593999997E+02  0.45594000000E+02  0.51100000000E-03 0.  1.
         11   -1    0    0    0    0 -0.00000000000E+00 -0.00000000000E+00 -0.45593999997E+02  0.45594000000E+02  0.51100000000E-03 0. -1.
    9900012    2    1    2    0    0 -0.27306073976E+02  0.20065135195E+02 -0.27118113773E+02  0.47787269350E+02  0.19999992274E+02 0.  0.
        -12    1    1    2    0    0  0.27306073976E+02 -0.20065135195E+02  0.27118113773E+02  0.43400730650E+02  0.00000000000E+00 0.  1.
         11    1    3    3    0    0 -0.10067704598E+02  0.10907858448E+01 -0.10215222662E+01  0.10178015407E+02  0.51100000000E-03 0. -1.
        -11    1    3    3    0    0 -0.18004758607E+02  0.17035014957E+02 -0.22625983768E+02  0.33560366637E+02  0.51100000000E-03 0.  1.
         12    1    3    3    0    0  0.76638922907E+00  0.19393343930E+01 -0.34706077386E+01  0.40488873056E+01  0.00000000000E+00 0. -1.
</event>
<event>
 7    1  0.2497395E-009  0.4778727E+02  0.7816164E-02  0.1312668E+00
        -11   -1    0    0    0    0  0.00000000000E+00  0.00000000000E+00  0.45593999997E+02  0.45594000000E+02  0.51100000000E-03 0.  1.
         11   -1    0    0    0    0 -0.00000000000E+00 -0.00000000000E+00 -0.45593999997E+02  0.45594000000E+02  0.51100000000E-03 0. -1.
    9900012    2    1    2    0    0 -0.36360588405E+02 -0.94083287560E+01  0.21748887626E+02  0.47787272448E+02  0.20000006397E+02 0.  0.
        -12    1    1    2    0    0  0.36360588405E+02  0.94083287560E+01 -0.21748887626E+02  0.43400727552E+02  0.00000000000E+00 0.  1.
         11    1    3    3    0    0 -0.16483252269E+02 -0.13816509505E+02  0.14648097037E+02  0.26022303652E+02  0.51100000000E-03 0. -1.
        -11    1    3    3    0    0 -0.55431801194E+01  0.22915332640E+01  0.11841418871E+01  0.61139318614E+01  0.51100000000E-03 0.  1.
         12    1    3    3    0    0 -0.14334156016E+02  0.21166474846E+01  0.59166487013E+01  0.15651036935E+02  0.00000000000E+00 0. -1.
</event>
<event>
 7    1  0.2497395E-009  0.4778727E+02  0.7816164E-02  0.1312668E+00
        -11   -1    0    0    0    0  0.00000000000E+00  0.00000000000E+00  0.45593999997E+02  0.45594000000E+02  0.51100000000E-03 0.  1.
         11   -1    0    0    0    0 -0.00000000000E+00 -0.00000000000E+00 -0.45593999997E+02  0.45594000000E+02  0.51100000000E-03 0. -1.
    9900012    2    1    2    0    0  0.26401135404E+02 -0.32246647469E+02 -0.12114327530E+02  0.47787272413E+02  0.20000006239E+02 0.  0.
        -12    1    1    2    0    0 -0.26401135404E+02  0.32246647469E+02  0.12114327530E+02  0.43400727587E+02  0.00000000000E+00 0.  1.
         11    1    3    3    0    0  0.40192012633E+01 -0.21861376538E+01 -0.50943066917E+01  0.68472722719E+01  0.51100000000E-03 0. -1.
        -11    1    3    3    0    0  0.15971762680E+02 -0.25601994136E+02  0.38626828734E+00  0.30177947417E+02  0.51100000000E-03 0.  1.
        -12    1    3    3    0    0  0.64101714614E+01 -0.44585156787E+01 -0.74062891257E+01  0.10762052724E+02  0.00000000000E+00 0.  1.
</event>
<event>
 7    1  0.2497395E-009  0.4778727E+02  0.7816164E-02  0.1312668E+00
        -11   -1    0    0    0    0  0.00000000000E+00  0.00000000000E+00  0.45593999997E+02  0.45594000000E+02  0.51100000000E-03 0. -1.
         11   -1    0    0    0    0 -0.00000000000E+00 -0.00000000000E+00 -0.45593999997E+02  0.45594000000E+02  0.51100000000E-03 0.  1.
    9900012    2    1    2    0    0 -0.22039320969E+02  0.32464342917E+02 -0.18546108169E+02  0.47787270075E+02  0.19999995581E+02 0.  0.
        -12    1    1    2    0    0  0.22039320969E+02 -0.32464342917E+02  0.18546108169E+02  0.43400729925E+02  0.00000000000E+00 0.  1.
         11    1    3    3    0    0 -0.71966585450E+01  0.23346298048E+02 -0.13421976343E+02  0.27874557861E+02  0.51100000000E-03 0. -1.
        -11    1    3    3    0    0 -0.12659585645E+02  0.97142109965E+01 -0.20394767177E+01  0.16086965828E+02  0.51100000000E-03 0.  1.
        -12    1    3    3    0    0 -0.21830767787E+01 -0.59616612760E+00 -0.30846551085E+01  0.38257463863E+01  0.00000000000E+00 0.  1.
</event>
<event>
 7    1  0.2497395E-009  0.4778728E+02  0.7816164E-02  0.1312668E+00
        -11   -1    0    0    0    0  0.00000000000E+00  0.00000000000E+00  0.45593999997E+02  0.45594000000E+02  0.51100000000E-03 0. -1.
         11   -1    0    0    0    0 -0.00000000000E+00 -0.00000000000E+00 -0.45593999997E+02  0.45594000000E+02  0.51100000000E-03 0.  1.
    9900012    2    1    2    0    0 -0.89090757408E+01  0.42111143352E+02 -0.55590363284E+01  0.47787275238E+02  0.20000019120E+02 0.  0.
        -12    1    1    2    0    0  0.89090757408E+01 -0.42111143352E+02  0.55590363284E+01  0.43400724762E+02  0.00000000000E+00 0.  1.
         11    1    3    3    0    0 -0.57057154857E+01  0.42211848593E+02 -0.44216388838E+01  0.42824598556E+02  0.51100000000E-03 0. -1.
        -11    1    3    3    0    0 -0.31606845864E+01  0.12548281313E+01 -0.11969511630E+01  0.36051647731E+01  0.51100000000E-03 0.  1.
         12    1    3    3    0    0 -0.42675668613E-01 -0.13555333723E+01  0.59553718438E-01  0.13575119084E+01  0.00000000000E+00 0. -1.
</event>
<event>
 7    1  0.2497395E-009  0.4778727E+02  0.7816164E-02  0.1312668E+00
        -11   -1    0    0    0    0  0.00000000000E+00  0.00000000000E+00  0.45593999997E+02  0.45594000000E+02  0.51100000000E-03 0. -1.
         11   -1    0    0    0    0 -0.00000000000E+00 -0.00000000000E+00 -0.45593999997E+02  0.45594000000E+02  0.51100000000E-03 0.  1.
    9900012    2    1    2    0    0 -0.38161491875E+01  0.43038090798E+02 -0.40966917967E+01  0.47787272611E+02  0.20000007144E+02 0.  0.
        -12    1    1    2    0    0  0.38161491875E+01 -0.43038090798E+02  0.40966917967E+01  0.43400727389E+02  0.00000000000E+00 0.  1.
         11    1    3    3    0    0  0.44914050032E+01  0.18268222247E+02  0.36174579757E+01  0.19156896028E+02  0.51100000000E-03 0.  1.
        -11    1    3    3    0    0 -0.10122165532E+02  0.20812988466E+02 -0.72485189259E+01  0.24252417422E+02  0.51100000000E-03 0. -1.
         12    1    3    3    0    0  0.18146113412E+01  0.39568800856E+01 -0.46563084652E+00  0.43779591611E+01  0.00000000000E+00 0. -1.
</event>
<event>
 7    1  0.2497395E-009  0.4778727E+02  0.7816164E-02  0.1312668E+00
        -11   -1    0    0    0    0  0.00000000000E+00  0.00000000000E+00  0.45593999997E+02  0.45594000000E+02  0.51100000000E-03 0.  1.
         11   -1    0    0    0    0 -0.00000000000E+00 -0.00000000000E+00 -0.45593999997E+02  0.45594000000E+02  0.51100000000E-03 0. -1.
    9900012    2    1    2    0    0  0.34465148642E+02  0.20488724791E+02 -0.16612916316E+02  0.47787270709E+02  0.19999998470E+02 0.  0.
        -12    1    1    2    0    0 -0.34465148642E+02 -0.20488724791E+02  0.16612916316E+02  0.43400729291E+02  0.00000000000E+00 0.  1.
         11    1    3    3    0    0  0.21345062718E+02  0.29584642477E+01 -0.82259607338E+01  0.23065789460E+02  0.51100000000E-03 0.  1.
        -11    1    3    3    0    0  0.12630947038E+02  0.15940685719E+02 -0.97655189004E+01  0.22561286398E+02  0.51100000000E-03 0. -1.
        -12    1    3    3    0    0  0.48913888632E+00  0.15895748248E+01  0.13785633186E+01  0.21601948516E+01  0.00000000000E+00 0.  1.
</event>
<event>
 7    1  0.2497395E-009  0.4778726E+02  0.7816164E-02  0.1312668E+00
        -11   -1    0    0    0    0  0.00000000000E+00  0.00000000000E+00  0.45593999997E+02  0.45594000000E+02  0.51100000000E-03 0. -1.
         11   -1    0    0    0    0 -0.00000000000E+00 -0.00000000000E+00 -0.45593999997E+02  0.45594000000E+02  0.51100000000E-03 0.  1.
    9900012    2    1    2    0    0 -0.36755970061E+02 -0.10478771689E+02  0.20562542867E+02  0.47787260832E+02  0.19999953436E+02 0.  0.
        -12    1    1    2    0    0  0.36755970061E+02  0.10478771689E+02 -0.20562542867E+02  0.43400739168E+02  0.00000000000E+00 0.  1.
         11    1    3    3    0    0 -0.41153408373E+01  0.73048795001E+00  0.76128902509E+01  0.86847994269E+01  0.51100000000E-03 0. -1.
        -11    1    3    3    0    0 -0.21705869108E+02 -0.36411390270E+01  0.24231579142E+01  0.22142139501E+02  0.51100000000E-03 0.  1.
         12    1    3    3    0    0 -0.10934760116E+02 -0.75681206119E+01  0.10526494702E+02  0.16960321904E+02  0.00000000000E+00 0. -1.
</event>
<event>
 7    1  0.2497395E-009  0.4778727E+02  0.7816164E-02  0.1312668E+00
        -11   -1    0    0    0    0  0.00000000000E+00  0.00000000000E+00  0.45593999997E+02  0.45594000000E+02  0.51100000000E-03 0.  1.
         11   -1    0    0    0    0 -0.00000000000E+00 -0.00000000000E+00 -0.45593999997E+02  0.45594000000E+02  0.51100000000E-03 0. -1.
    9900012    2    1    2    0    0  0.25331836168E+01  0.81061607081E+01 -0.42561677995E+02  0.47787270808E+02  0.19999998921E+02 0.  0.
        -12    1    1    2    0    0 -0.25331836168E+01 -0.81061607081E+01  0.42561677995E+02  0.43400729192E+02  0.00000000000E+00 0.  1.
         11    1    3    3    0    0  0.39478700594E+01 -0.34410385716E+01 -0.41068696274E+01  0.66552838298E+01  0.51100000000E-03 0. -1.
        -11    1    3    3    0    0 -0.31908094148E+01  0.11703230608E+01 -0.15644324032E+02  0.16009240940E+02  0.51100000000E-03 0.  1.
         12    1    3    3    0    0  0.17761229722E+01  0.10376876219E+02 -0.22810484335E+02  0.25122746038E+02  0.00000000000E+00 0. -1.
</event>
<event>
 7    1  0.2497395E-009  0.4778727E+02  0.7816164E-02  0.1312668E+00
        -11   -1    0    0    0    0  0.00000000000E+00  0.00000000000E+00  0.45593999997E+02  0.45594000000E+02  0.51100000000E-03 0. -1.
         11   -1    0    0    0    0 -0.00000000000E+00 -0.00000000000E+00 -0.45593999997E+02  0.45594000000E+02  0.51100000000E-03 0.  1.
    9900012    2    1    2    0    0 -0.14814575154E+02  0.27806592129E+02  0.29848705670E+02  0.47787269211E+02  0.19999991643E+02 0.  0.
        -12    1    1    2    0    0  0.14814575154E+02 -0.27806592129E+02 -0.29848705670E+02  0.43400730789E+02  0.00000000000E+00 0.  1.
         11    1    3    3    0    0 -0.99566846154E+01  0.12838414450E+02  0.23881966045E+02  0.28884403344E+02  0.51100000000E-03 0. -1.
        -11    1    3    3    0    0 -0.40972340021E+01  0.14936233740E+02  0.74869304735E+01  0.17202689702E+02  0.51100000000E-03 0.  1.
         12    1    3    3    0    0 -0.76065653614E+00  0.31943938723E-01 -0.15201908476E+01  0.17001761657E+01  0.00000000000E+00 0. -1.
</event>
<event>
 7    1  0.2497395E-009  0.4778727E+02  0.7816164E-02  0.1312668E+00
        -11   -1    0    0    0    0  0.00000000000E+00  0.00000000000E+00  0.45593999997E+02  0.45594000000E+02  0.51100000000E-03 0. -1.
         11   -1    0    0    0    0 -0.00000000000E+00 -0.00000000000E+00 -0.45593999997E+02  0.45594000000E+02  0.51100000000E-03 0.  1.
    9900012    2    1    2    0    0  0.39872106178E+02 -0.61717946598E+01  0.15992104886E+02  0.47787270524E+02  0.19999997625E+02 0.  0.
        -12    1    1    2    0    0 -0.39872106178E+02  0.61717946598E+01 -0.15992104886E+02  0.43400729476E+02  0.00000000000E+00 0.  1.
         11    1    3    3    0    0  0.35292049949E+02 -0.10827195191E+02  0.11414675205E+02  0.38640027893E+02  0.51100000000E-03 0. -1.
        -11    1    3    3    0    0  0.54475300786E+01  0.44084258317E+01  0.41956740349E+01  0.81678322178E+01  0.51100000000E-03 0.  1.
         12    1    3    3    0    0 -0.86747384961E+00  0.24697469959E+00  0.38175564655E+00  0.97941041227E+00  0.00000000000E+00 0. -1.
</event>
<event>
 7    1  0.2497395E-009  0.4778727E+02  0.7816164E-02  0.1312668E+00
        -11   -1    0    0    0    0  0.00000000000E+00  0.00000000000E+00  0.45593999997E+02  0.45594000000E+02  0.51100000000E-03 0. -1.
         11   -1    0    0    0    0 -0.00000000000E+00 -0.00000000000E+00 -0.45593999997E+02  0.45594000000E+02  0.51100000000E-03 0.  1.
    9900012    2    1    2    0    0  0.13163288697E+02 -0.31825610605E+02  0.26409876555E+02  0.47787271442E+02  0.20000001814E+02 0.  0.
        -12    1    1    2    0    0 -0.13163288697E+02  0.31825610605E+02 -0.26409876555E+02  0.43400728558E+02  0.00000000000E+00 0.  1.
         11    1    3    3    0    0  0.56085785437E+01 -0.13467603663E+02  0.13652764038E+01  0.14652524752E+02  0.51100000000E-03 0. -1.
        -11    1    3    3    0    0  0.91743220964E+01 -0.11859492261E+02  0.17016547089E+02  0.22679916616E+02  0.51100000000E-03 0.  1.
        -12    1    3    3    0    0 -0.16196119426E+01 -0.64985146812E+01  0.80280530622E+01  0.10454830074E+02  0.00000000000E+00 0.  1.
</event>
<event>
 7    1  0.2497395E-009  0.4778733E+02  0.7816164E-02  0.1312667E+00
        -11   -1    0    0    0    0  0.00000000000E+00  0.00000000000E+00  0.45593999997E+02  0.45594000000E+02  0.51100000000E-03 0. -1.
         11   -1    0    0    0    0 -0.00000000000E+00 -0.00000000000E+00 -0.45593999997E+02  0.45594000000E+02  0.51100000000E-03 0.  1.
    9900012    2    1    2    0    0 -0.29980161860E+02 -0.25187849115E+02  0.18718443932E+02  0.47787331901E+02  0.20000277468E+02 0.  0.
        -12    1    1    2    0    0  0.29980161860E+02  0.25187849115E+02 -0.18718443932E+02  0.43400668099E+02  0.00000000000E+00 0.  1.
         11    1    3    3    0    0 -0.23755196955E+02 -0.24744556763E+02  0.14715025629E+02  0.37324716359E+02  0.51100000000E-03 0. -1.
        -11    1    3    3    0    0 -0.70091663734E+01  0.17527501322E+01  0.23262616096E+01  0.75902595221E+01  0.51100000000E-03 0.  1.
         12    1    3    3    0    0  0.78420146751E+00 -0.21960424840E+01  0.16771566938E+01  0.28723560205E+01  0.00000000000E+00 0. -1.
</event>
<event>
 7    1  0.2497395E-009  0.4778727E+02  0.7816164E-02  0.1312668E+00
        -11   -1    0    0    0    0  0.00000000000E+00  0.00000000000E+00  0.45593999997E+02  0.45594000000E+02  0.51100000000E-03 0.  1.
         11   -1    0    0    0    0 -0.00000000000E+00 -0.00000000000E+00 -0.45593999997E+02  0.45594000000E+02  0.51100000000E-03 0. -1.
    9900012    2    1    2    0    0  0.32874976673E+01  0.37077202185E+02 -0.22318077268E+02  0.47787272636E+02  0.20000007258E+02 0.  0.
        -12    1    1    2    0    0 -0.32874976673E+01 -0.37077202185E+02  0.22318077268E+02  0.43400727364E+02  0.00000000000E+00 0.  1.
         11    1    3    3    0    0 -0.20926839109E+01  0.55096795389E+00  0.14833355544E+01  0.26235808097E+01  0.51100000000E-03 0. -1.
        -11    1    3    3    0    0 -0.16778612425E+01  0.98908895423E+00 -0.28199976117E+00  0.19680039215E+01  0.51100000000E-03 0.  1.
         12    1    3    3    0    0  0.70580428208E+01  0.35537145276E+02 -0.23519413061E+02  0.43195687905E+02  0.00000000000E+00 0. -1.
</event>
<event>
 7    1  0.2497395E-009  0.4778727E+02  0.7816164E-02  0.1312668E+00
        -11   -1    0    0    0    0  0.00000000000E+00  0.00000000000E+00  0.45593999997E+02  0.45594000000E+02  0.51100000000E-03 0.  1.
         11   -1    0    0    0    0 -0.00000000000E+00 -0.00000000000E+00 -0.45593999997E+02  0.45594000000E+02  0.51100000000E-03 0. -1.
    9900012    2    1    2    0    0 -0.38258985625E+02  0.74866407378E+01 -0.19074154739E+02  0.47787272477E+02  0.20000006530E+02 0.  0.
        -12    1    1    2    0    0  0.38258985625E+02 -0.74866407378E+01  0.19074154739E+02  0.43400727523E+02  0.00000000000E+00 0.  1.
         11    1    3    3    0    0 -0.19227985517E+02 -0.22278026417E+01 -0.16631360825E+02  0.25520201699E+02  0.51100000000E-03 0. -1.
        -11    1    3    3    0    0 -0.10493578282E+02  0.45520417043E+01  0.15061572410E+01  0.11537104434E+02  0.51100000000E-03 0.  1.
         12    1    3    3    0    0 -0.85374218262E+01  0.51624016752E+01 -0.39489511553E+01  0.10729966343E+02  0.00000000000E+00 0. -1.
</event>
<event>
 7    1  0.2497395E-009  0.4778727E+02  0.7816164E-02  0.1312668E+00
        -11   -1    0    0    0    0  0.00000000000E+00  0.00000000000E+00  0.45593999997E+02  0.45594000000E+02  0.51100000000E-03 0.  1.
         11   -1    0    0    0    0 -0.00000000000E+00 -0.00000000000E+00 -0.45593999997E+02  0.45594000000E+02  0.51100000000E-03 0. -1.
    9900012    2    1    2    0    0 -0.30627195804E+02  0.15838555080E+02 -0.26357895315E+02  0.47787267342E+02  0.19999983119E+02 0.  0.
        -12    1    1    2    0    0  0.30627195804E+02 -0.15838555080E+02  0.26357895315E+02  0.43400732658E+02  0.00000000000E+00 0.  1.
         11    1    3    3    0    0 -0.85948228824E+01  0.10146096178E+02 -0.27502822642E+01  0.13578597159E+02  0.51100000000E-03 0. -1.
        -11    1    3    3    0    0 -0.12009831639E+01  0.42769010924E+00  0.94139849979E+00  0.15847746799E+01  0.51100000000E-03 0.  1.
         12    1    3    3    0    0 -0.20831389757E+02  0.52647687934E+01 -0.24549011550E+02  0.32623895503E+02  0.00000000000E+00 0. -1.
</event>
<event>
 7    1  0.2497395E-009  0.4778727E+02  0.7816164E-02  0.1312668E+00
        -11   -1    0    0    0    0  0.00000000000E+00  0.00000000000E+00  0.45593999997E+02  0.45594000000E+02  0.51100000000E-03 0.  1.
         11   -1    0    0    0    0 -0.00000000000E+00 -0.00000000000E+00 -0.45593999997E+02  0.45594000000E+02  0.51100000000E-03 0. -1.
    9900012    2    1    2    0    0 -0.17081187857E+02 -0.27784896767E+02 -0.28633124343E+02  0.47787271013E+02  0.19999999857E+02 0.  0.
        -12    1    1    2    0    0  0.17081187857E+02  0.27784896767E+02  0.28633124343E+02  0.43400728987E+02  0.00000000000E+00 0.  1.
         11    1    3    3    0    0 -0.68141581474E+01 -0.16350706358E+02 -0.19273970687E+02  0.26177553285E+02  0.51100000000E-03 0. -1.
        -11    1    3    3    0    0 -0.65338647883E+00 -0.40956046627E+01  0.23574669699E+01  0.47705913910E+01  0.51100000000E-03 0.  1.
        -12    1    3    3    0    0 -0.96136432304E+01 -0.73385857460E+01 -0.11716620626E+02  0.16839126337E+02  0.00000000000E+00 0.  1.
</event>
<event>
 7    1  0.2497395E-009  0.4778726E+02  0.7816164E-02  0.1312668E+00
        -11   -1    0    0    0    0  0.00000000000E+00  0.00000000000E+00  0.45593999997E+02  0.45594000000E+02  0.51100000000E-03 0.  1.
         11   -1    0    0    0    0 -0.00000000000E+00 -0.00000000000E+00 -0.45593999997E+02  0.45594000000E+02  0.51100000000E-03 0. -1.
    9900012    2    1    2    0    0  0.22917004301E+02  0.32412283203E+02  0.17546471852E+02  0.47787264257E+02  0.19999969055E+02 0.  0.
        -12    1    1    2    0    0 -0.22917004301E+02 -0.32412283203E+02 -0.17546471852E+02  0.43400735743E+02  0.00000000000E+00 0.  1.
         11    1    3    3    0    0  0.72224363861E+00  0.13824722717E+02  0.68923465100E+01  0.15464444211E+02  0.51100000000E-03 0. -1.
        -11    1    3    3    0    0 -0.41233871081E+00 -0.19458830071E+00 -0.68261777334E+00  0.82088677953E+00  0.51100000000E-03 0.  1.
         12    1    3    3    0    0  0.22607099373E+02  0.18782148787E+02  0.11336743115E+02  0.31501933267E+02  0.00000000000E+00 0. -1.
</event>
<event>
 7    1  0.2497395E-009  0.4778728E+02  0.7816164E-02  0.1312668E+00
        -11   -1    0    0    0    0  0.00000000000E+00  0.00000000000E+00  0.45593999997E+02  0.45594000000E+02  0.51100000000E-03 0.  1.
         11   -1    0    0    0    0 -0.00000000000E+00 -0.00000000000E+00 -0.45593999997E+02  0.45594000000E+02  0.51100000000E-03 0. -1.
    9900012    2    1    2    0    0 -0.18142842929E+02  0.37875741195E+02 -0.10949342224E+02  0.47787278626E+02  0.20000034568E+02 0.  0.
        -12    1    1    2    0    0  0.18142842929E+02 -0.37875741195E+02  0.10949342224E+02  0.43400721374E+02  0.00000000000E+00 0.  1.
         11    1    3    3    0    0 -0.31725639140E+01  0.63470080975E+01 -0.45016600954E+01  0.84032504100E+01  0.51100000000E-03 0. -1.
        -11    1    3    3    0    0 -0.39675595024E+01 -0.13418401010E+01 -0.79032692812E+00  0.42622388689E+01  0.51100000000E-03 0.  1.
        -12    1    3    3    0    0 -0.11002719513E+02  0.32870573199E+02 -0.56573552003E+01  0.35121789347E+02  0.00000000000E+00 0.  1.
</event>
<event>
 7    1  0.2497395E-009  0.4778726E+02  0.7816164E-02  0.1312668E+00
        -11   -1    0    0    0    0  0.00000000000E+00  0.00000000000E+00  0.45593999997E+02  0.45594000000E+02  0.51100000000E-03 0. -1.
         11   -1    0    0    0    0 -0.00000000000E+00 -0.00000000000E+00 -0.45593999997E+02  0.45594000000E+02  0.51100000000E-03 0.  1.
    9900012    2    1    2    0    0 -0.74553684775E+01  0.35361871280E+02  0.24032896582E+02  0.47787256024E+02  0.19999931516E+02 0.  0.
        -12    1    1    2    0    0  0.74553684775E+01 -0.35361871280E+02 -0.24032896582E+02  0.43400743976E+02  0.00000000000E+00 0.  1.
         11    1    3    3    0    0 -0.10369099451E+02  0.16308083969E+02  0.13282217778E+02  0.23449715041E+02  0.51100000000E-03 0. -1.
        -11    1    3    3    0    0 -0.22717137175E+01  0.49477913653E+01  0.69627604849E+01  0.88386286516E+01  0.51100000000E-03 0.  1.
         12    1    3    3    0    0  0.51854446906E+01  0.14105995945E+02  0.37879183190E+01  0.15498912331E+02  0.00000000000E+00 0. -1.
</event>
<event>
 7    1  0.2497395E-009  0.4778727E+02  0.7816164E-02  0.1312668E+00
        -11   -1    0    0    0    0  0.00000000000E+00  0.00000000000E+00  0.45593999997E+02  0.45594000000E+02  0.51100000000E-03 0.  1.
         11   -1    0    0    0    0 -0.00000000000E+00 -0.00000000000E+00 -0.45593999997E+02  0.45594000000E+02  0.51100000000E-03 0. -1.
    9900012    2    1    2    0    0  0.14006018752E+02  0.36842536708E+01 -0.40913086956E+02  0.47787274537E+02  0.20000015925E+02 0.  0.
        -12    1    1    2    0    0 -0.14006018752E+02 -0.36842536708E+01  0.40913086956E+02  0.43400725463E+02  0.00000000000E+00 0.  1.
         11    1    3    3    0    0  0.86554649853E+00  0.66317820598E+00 -0.20583175634E+02  0.20612037636E+02  0.51100000000E-03 0. -1.
        -11    1    3    3    0    0  0.82955710161E+01 -0.37040188114E+01 -0.69600206748E+01  0.11444568227E+02  0.51100000000E-03 0.  1.
        -12    1    3    3    0    0  0.48449012370E+01  0.67250942762E+01 -0.13369890648E+02  0.15730668675E+02  0.00000000000E+00 0.  1.
</event>
<event>
 7    1  0.2497395E-009  0.4778727E+02  0.7816164E-02  0.1312668E+00
        -11   -1    0    0    0    0  0.00000000000E+00  0.00000000000E+00  0.45593999997E+02  0.45594000000E+02  0.51100000000E-03 0.  1.
         11   -1    0    0    0    0 -0.00000000000E+00 -0.00000000000E+00 -0.45593999997E+02  0.45594000000E+02  0.51100000000E-03 0. -1.
    9900012    2    1    2    0    0  0.26475279503E+02  0.15269618611E+02 -0.30814308693E+02  0.47787270772E+02  0.19999998757E+02 0.  0.
        -12    1    1    2    0    0 -0.26475279503E+02 -0.15269618611E+02  0.30814308693E+02  0.43400729228E+02  0.00000000000E+00 0.  1.
         11    1    3    3    0    0  0.78048887983E+01 -0.28347709842E+01 -0.10659931930E+02  0.13512452209E+02  0.51100000000E-03 0. -1.
        -11    1    3    3    0    0  0.17089153202E+01  0.71957353662E+01 -0.38273432418E+01  0.83275179726E+01  0.51100000000E-03 0.  1.
         12    1    3    3    0    0  0.16961475385E+02  0.10908654229E+02 -0.16327033522E+02  0.25947300590E+02  0.00000000000E+00 0. -1.
</event>
<event>
 7    1  0.2497395E-009  0.4778727E+02  0.7816164E-02  0.1312668E+00
        -11   -1    0    0    0    0  0.00000000000E+00  0.00000000000E+00  0.45593999997E+02  0.45594000000E+02  0.51100000000E-03 0. -1.
         11   -1    0    0    0    0 -0.00000000000E+00 -0.00000000000E+00 -0.45593999997E+02  0.45594000000E+02  0.51100000000E-03 0.  1.
    9900012    2    1    2    0    0 -0.50902858192E+01 -0.39101403921E+02  0.18132643882E+02  0.47787267604E+02  0.19999984314E+02 0.  0.
        -12    1    1    2    0    0  0.50902858192E+01  0.39101403921E+02 -0.18132643882E+02  0.43400732396E+02  0.00000000000E+00 0.  1.
         11    1    3    3    0    0 -0.33531586968E+01 -0.49318421190E+01  0.37164200189E+01  0.70269849830E+01  0.51100000000E-03 0. -1.
        -11    1    3    3    0    0 -0.51562508653E+01 -0.32452198711E+02  0.16086249076E+02  0.36585509888E+02  0.51100000000E-03 0.  1.
        -12    1    3    3    0    0  0.34191237429E+01 -0.17173630911E+01 -0.16700252135E+01  0.41747727327E+01  0.00000000000E+00 0.  1.
</event>
<event>
 7    1  0.2497395E-009  0.4778726E+02  0.7816164E-02  0.1312668E+00
        -11   -1    0    0    0    0  0.00000000000E+00  0.00000000000E+00  0.45593999997E+02  0.45594000000E+02  0.51100000000E-03 0.  1.
         11   -1    0    0    0    0 -0.00000000000E+00 -0.00000000000E+00 -0.45593999997E+02  0.45594000000E+02  0.51100000000E-03 0. -1.
    9900012    2    1    2    0    0  0.15830567481E+02 -0.22372706411E+02 -0.33652326379E+02  0.47787263490E+02  0.19999965557E+02 0.  0.
        -12    1    1    2    0    0 -0.15830567481E+02  0.22372706411E+02  0.33652326379E+02  0.43400736510E+02  0.00000000000E+00 0.  1.
         11    1    3    3    0    0  0.54338928928E+01 -0.17814019227E+02 -0.99375559996E+01  0.21109748755E+02  0.51100000000E-03 0. -1.
        -11    1    3    3    0    0  0.87729762314E+01 -0.23448808553E+01 -0.14940589030E+02  0.17483843371E+02  0.51100000000E-03 0.  1.
        -12    1    3    3    0    0  0.16236983571E+01 -0.22138063278E+01 -0.87741813488E+01  0.91936713642E+01  0.00000000000E+00 0.  1.
</event>
<event>
 7    1  0.2497395E-009  0.4778727E+02  0.7816164E-02  0.1312668E+00
        -11   -1    0    0    0    0  0.00000000000E+00  0.00000000000E+00  0.45593999997E+02  0.45594000000E+02  0.51100000000E-03 0. -1.
         11   -1    0    0    0    0 -0.00000000000E+00 -0.00000000000E+00 -0.45593999997E+02  0.45594000000E+02  0.51100000000E-03 0.  1.
    9900012    2    1    2    0    0  0.20505889387E+02 -0.30973468217E+02  0.22444955092E+02  0.47787271411E+02  0.20000001673E+02 0.  0.
        -12    1    1    2    0    0 -0.20505889387E+02  0.30973468217E+02 -0.22444955092E+02  0.43400728589E+02  0.00000000000E+00 0.  1.
         11    1    3    3    0    0  0.14738695315E+02 -0.24481261211E+02  0.16750630967E+02  0.33123178110E+02  0.51100000000E-03 0. -1.
        -11    1    3    3    0    0  0.23233850784E+01 -0.59264861639E-01  0.68887334602E+01  0.72702324236E+01  0.51100000000E-03 0.  1.
        -12    1    3    3    0    0  0.34438089936E+01 -0.64329421446E+01 -0.11944093349E+01  0.73938608777E+01  0.00000000000E+00 0.  1.
</event>
<event>
 7    1  0.2497395E-009  0.4778727E+02  0.7816164E-02  0.1312668E+00
        -11   -1    0    0    0    0  0.00000000000E+00  0.00000000000E+00  0.45593999997E+02  0.45594000000E+02  0.51100000000E-03 0.  1.
         11   -1    0    0    0    0 -0.00000000000E+00 -0.00000000000E+00 -0.45593999997E+02  0.45594000000E+02  0.51100000000E-03 0. -1.
    9900012    2    1    2    0    0  0.85876576736E+01 -0.31383267280E+02 -0.28722219106E+02  0.47787271897E+02  0.20000003888E+02 0.  0.
        -12    1    1    2    0    0 -0.85876576736E+01  0.31383267280E+02  0.28722219106E+02  0.43400728103E+02  0.00000000000E+00 0.  1.
         11    1    3    3    0    0  0.12299102218E+02 -0.12143673798E+02 -0.19537277447E+02  0.26085282038E+02  0.51100000000E-03 0. -1.
        -11    1    3    3    0    0 -0.11303937747E+01 -0.62139462841E+01 -0.21306815378E+01  0.66656374477E+01  0.51100000000E-03 0.  1.
         12    1    3    3    0    0 -0.25810507694E+01 -0.13025647198E+02 -0.70542601212E+01  0.15036352412E+02  0.00000000000E+00 0. -1.
</event>
<event>
 7    1  0.2497395E-009  0.4778727E+02  0.7816164E-02  0.1312668E+00
        -11   -1    0    0    0    0  0.00000000000E+00  0.00000000000E+00  0.45593999997E+02  0.45594000000E+02  0.51100000000E-03 0.  1.
         11   -1    0    0    0    0 -0.00000000000E+00 -0.00000000000E+00 -0.45593999997E+02  0.45594000000E+02  0.51100000000E-03 0. -1.
    9900012    2    1    2    0    0  0.19256120573E+02 -0.38219170827E+02 -0.72194349072E+01  0.47787269147E+02  0.19999991349E+02 0.  0.
        -12    1    1    2    0    0 -0.19256120573E+02  0.38219170827E+02  0.72194349072E+01  0.43400730853E+02  0.00000000000E+00 0.  1.
         11    1    3    3    0    0  0.20114011172E+00 -0.58745107859E+01 -0.22399524432E+00  0.58822196873E+01  0.51100000000E-03 0. -1.
        -11    1    3    3    0    0  0.16843755112E+02 -0.23980172088E+02  0.20649547551E+01  0.29377283368E+02  0.51100000000E-03 0.  1.
        -12    1    3    3    0    0  0.22112253492E+01 -0.83644879522E+01 -0.90603944179E+01  0.12527766092E+02  0.00000000000E+00 0.  1.
</event>
<event>
 7    1  0.2497395E-009  0.4778727E+02  0.7816164E-02  0.1312668E+00
        -11   -1    0    0    0    0  0.00000000000E+00  0.00000000000E+00  0.45593999997E+02  0.45594000000E+02  0.51100000000E-03 0.  1.
         11   -1    0    0    0    0 -0.00000000000E+00 -0.00000000000E+00 -0.45593999997E+02  0.45594000000E+02  0.51100000000E-03 0. -1.
    9900012    2    1    2    0    0 -0.40224024508E+02  0.12993748203E+02  0.98393806740E+01  0.47787273600E+02  0.20000011651E+02 0.  0.
        -12    1    1    2    0    0  0.40224024508E+02 -0.12993748203E+02 -0.98393806740E+01  0.43400726400E+02  0.00000000000E+00 0.  1.
         11    1    3    3    0    0 -0.72048698005E+01  0.91016659293E+01  0.51842800215E+01  0.12713269884E+02  0.51100000000E-03 0. -1.
        -11    1    3    3    0    0 -0.26873354654E+02  0.47754264668E+01 -0.32271855637E-01  0.27294375428E+02  0.51100000000E-03 0.  1.
        -12    1    3    3    0    0 -0.61458000541E+01 -0.88334419302E+00  0.46873725081E+01  0.77796282879E+01  0.00000000000E+00 0.  1.
</event>
<event>
 7    1  0.2497395E-009  0.4778731E+02  0.7816164E-02  0.1312668E+00
        -11   -1    0    0    0    0  0.00000000000E+00  0.00000000000E+00  0.45593999997E+02  0.45594000000E+02  0.51100000000E-03 0.  1.
         11   -1    0    0    0    0 -0.00000000000E+00 -0.00000000000E+00 -0.45593999997E+02  0.45594000000E+02  0.51100000000E-03 0. -1.
    9900012    2    1    2    0    0  0.36167045002E+01  0.43231930130E+02 -0.12409310863E+01  0.47787305949E+02  0.20000159141E+02 0.  0.
        -12    1    1    2    0    0 -0.36167045002E+01 -0.43231930130E+02  0.12409310863E+01  0.43400694051E+02  0.00000000000E+00 0.  1.
         11    1    3    3    0    0  0.55216889109E+01  0.31174652578E+02 -0.25737091560E+01  0.31764319461E+02  0.51100000000E-03 0. -1.
        -11    1    3    3    0    0  0.18201170200E+00  0.15320342191E+01  0.45633164526E+01  0.48170649171E+01  0.51100000000E-03 0.  1.
         12    1    3    3    0    0 -0.20869961128E+01  0.10525243333E+02 -0.32305383829E+01  0.11205921570E+02  0.00000000000E+00 0. -1.
</event>
<event>
 7    1  0.2497395E-009  0.4778727E+02  0.7816164E-02  0.1312668E+00
        -11   -1    0    0    0    0  0.00000000000E+00  0.00000000000E+00  0.45593999997E+02  0.45594000000E+02  0.51100000000E-03 0.  1.
         11   -1    0    0    0    0 -0.00000000000E+00 -0.00000000000E+00 -0.45593999997E+02  0.45594000000E+02  0.51100000000E-03 0. -1.
    9900012    2    1    2    0    0  0.17578191051E+02  0.80664007345E+00 -0.39673413821E+02  0.47787271515E+02  0.20000002147E+02 0.  0.
        -12    1    1    2    0    0 -0.17578191051E+02 -0.80664007345E+00  0.39673413821E+02  0.43400728485E+02  0.00000000000E+00 0.  1.
         11    1    3    3    0    0  0.14525527548E+02  0.36534668671E+01 -0.22939027527E+02  0.27395944131E+02  0.51100000000E-03 0. -1.
        -11    1    3    3    0    0 -0.39199424524E+01 -0.67494619554E+00 -0.36083916991E+01  0.53704741050E+01  0.51100000000E-03 0.  1.
        -12    1    3    3    0    0  0.69726059555E+01 -0.21718805981E+01 -0.13125994594E+02  0.15020853279E+02  0.00000000000E+00 0.  1.
</event>
<event>
 7    1  0.2497395E-009  0.4778727E+02  0.7816164E-02  0.1312668E+00
        -11   -1    0    0    0    0  0.00000000000E+00  0.00000000000E+00  0.45593999997E+02  0.45594000000E+02  0.51100000000E-03 0.  1.
         11   -1    0    0    0    0 -0.00000000000E+00 -0.00000000000E+00 -0.45593999997E+02  0.45594000000E+02  0.51100000000E-03 0. -1.
    9900012    2    1    2    0    0 -0.36318834847E+02  0.17331157195E+02  0.16254122160E+02  0.47787271187E+02  0.20000000649E+02 0.  0.
        -12    1    1    2    0    0  0.36318834847E+02 -0.17331157195E+02 -0.16254122160E+02  0.43400728813E+02  0.00000000000E+00 0.  1.
         11    1    3    3    0    0 -0.26590057963E+02  0.51365820231E+01  0.11807051634E+02  0.29543563189E+02  0.51100000000E-03 0. -1.
        -11    1    3    3    0    0 -0.20957978242E+00  0.66979262189E+01  0.16771010046E+01  0.69078800916E+01  0.51100000000E-03 0.  1.
        -12    1    3    3    0    0 -0.95191971010E+01  0.54966489531E+01  0.27699695212E+01  0.11335827906E+02  0.00000000000E+00 0.  1.
</event>
<event>
 7    1  0.2497395E-009  0.4778727E+02  0.7816164E-02  0.1312668E+00
        -11   -1    0    0    0    0  0.00000000000E+00  0.00000000000E+00  0.45593999997E+02  0.45594000000E+02  0.51100000000E-03 0.  1.
         11   -1    0    0    0    0 -0.00000000000E+00 -0.00000000000E+00 -0.45593999997E+02  0.45594000000E+02  0.51100000000E-03 0. -1.
    9900012    2    1    2    0    0 -0.17810741010E+02  0.29277456829E+02 -0.26631401245E+02  0.47787268370E+02  0.19999987808E+02 0.  0.
        -12    1    1    2    0    0  0.17810741010E+02 -0.29277456829E+02  0.26631401245E+02  0.43400731630E+02  0.00000000000E+00 0.  1.
         11    1    3    3    0    0  0.40685780850E+01  0.42168611735E+01 -0.44044570706E+01  0.73303811728E+01  0.51100000000E-03 0. -1.
        -11    1    3    3    0    0 -0.20375547022E+01  0.39994387131E+00 -0.20678814639E+01  0.29304808948E+01  0.51100000000E-03 0.  1.
         12    1    3    3    0    0 -0.19841764393E+02  0.24660651784E+02 -0.20159062711E+02  0.37526406303E+02  0.00000000000E+00 0. -1.
</event>
<event>
 7    1  0.2497395E-009  0.4778727E+02  0.7816164E-02  0.1312668E+00
        -11   -1    0    0    0    0  0.00000000000E+00  0.00000000000E+00  0.45593999997E+02  0.45594000000E+02  0.51100000000E-03 0.  1.
         11   -1    0    0    0    0 -0.00000000000E+00 -0.00000000000E+00 -0.45593999997E+02  0.45594000000E+02  0.51100000000E-03 0. -1.
    9900012    2    1    2    0    0  0.11102560344E+02 -0.40197196713E+02 -0.12022557682E+02  0.47787270017E+02  0.19999995317E+02 0.  0.
        -12    1    1    2    0    0 -0.11102560344E+02  0.40197196713E+02  0.12022557682E+02  0.43400729983E+02  0.00000000000E+00 0.  1.
         11    1    3    3    0    0 -0.55823455595E+00  0.55352559746E+00 -0.18864002800E+01  0.20436542477E+01  0.51100000000E-03 0. -1.
        -11    1    3    3    0    0  0.44966458199E+01 -0.23269836780E+02  0.11659538588E+01  0.23728981775E+02  0.51100000000E-03 0.  1.
        -12    1    3    3    0    0  0.71641490802E+01 -0.17480885531E+02 -0.11302111261E+02  0.22014633995E+02  0.00000000000E+00 0.  1.
</event>
<event>
 7    1  0.2497395E-009  0.4778727E+02  0.7816164E-02  0.1312668E+00
        -11   -1    0    0    0    0  0.00000000000E+00  0.00000000000E+00  0.45593999997E+02  0.45594000000E+02  0.51100000000E-03 0. -1.
         11   -1    0    0    0    0 -0.00000000000E+00 -0.00000000000E+00 -0.45593999997E+02  0.45594000000E+02  0.51100000000E-03 0.  1.
    9900012    2    1    2    0    0 -0.31016900373E+02 -0.24410642746E+02  0.18047043345E+02  0.47787270035E+02  0.19999995397E+02 0.  0.
        -12    1    1    2    0    0  0.31016900373E+02  0.24410642746E+02 -0.18047043345E+02  0.43400729965E+02  0.00000000000E+00 0.  1.
         11    1    3    3    0    0 -0.17998178652E+02 -0.13230479009E+02  0.55646937982E+01  0.23020552272E+02  0.51100000000E-03 0. -1.
        -11    1    3    3    0    0  0.89166754534E+00 -0.59924559815E+01  0.61295917434E+01  0.86183812229E+01  0.51100000000E-03 0.  1.
        -12    1    3    3    0    0 -0.13910389267E+02 -0.51877077555E+01  0.63527578036E+01  0.16148336540E+02  0.00000000000E+00 0.  1.
</event>
<event>
 7    1  0.2497395E-009  0.4778727E+02  0.7816164E-02  0.1312668E+00
        -11   -1    0    0    0    0  0.00000000000E+00  0.00000000000E+00  0.45593999997E+02  0.45594000000E+02  0.51100000000E-03 0.  1.
         11   -1    0    0    0    0 -0.00000000000E+00 -0.00000000000E+00 -0.45593999997E+02  0.45594000000E+02  0.51100000000E-03 0. -1.
    9900012    2    1    2    0    0 -0.21653246790E+02  0.15519586176E+02 -0.34262263279E+02  0.47787270322E+02  0.19999996705E+02 0.  0.
        -12    1    1    2    0    0  0.21653246790E+02 -0.15519586176E+02  0.34262263279E+02  0.43400729678E+02  0.00000000000E+00 0.  1.
         11    1    3    3    0    0 -0.18054168768E+02  0.16823013605E+02 -0.32345850880E+02  0.40684405686E+02  0.51100000000E-03 0. -1.
        -11    1    3    3    0    0 -0.42876130827E+01 -0.26652422430E+01 -0.22717416362E+01  0.55360592919E+01  0.51100000000E-03 0.  1.
         12    1    3    3    0    0  0.68853506079E+00  0.13618148141E+01  0.35532923719E+00  0.15668053436E+01  0.00000000000E+00 0. -1.
</event>
<event>
 7    1  0.2497395E-009  0.4778728E+02  0.7816164E-02  0.1312668E+00
        -11   -1    0    0    0    0  0.00000000000E+00  0.00000000000E+00  0.45593999997E+02  0.45594000000E+02  0.51100000000E-03 0.  1.
         11   -1    0    0    0    0 -0.00000000000E+00 -0.00000000000E+00 -0.45593999997E+02  0.45594000000E+02  0.51100000000E-03 0. -1.
    9900012    2    1    2    0    0 -0.15484560159E+02  0.40066939576E+02  0.62041329728E+01  0.47787279773E+02  0.20000039797E+02 0.  0.
        -12    1    1    2    0    0  0.15484560159E+02 -0.40066939576E+02 -0.62041329728E+01  0.43400720227E+02  0.00000000000E+00 0.  1.
         11    1    3    3    0    0 -0.83538849618E+01  0.81312162535E+01 -0.52993652245E+00  0.11669828820E+02  0.51100000000E-03 0. -1.
        -11    1    3    3    0    0 -0.68832998552E+01  0.32563817407E+02  0.83939890294E+01  0.34325516356E+02  0.51100000000E-03 0.  1.
        -12    1    3    3    0    0 -0.24737534184E+00 -0.62809408502E+00 -0.16599195341E+01  0.17919345968E+01  0.00000000000E+00 0.  1.
</event>
<event>
 7    1  0.2497395E-009  0.4778728E+02  0.7816164E-02  0.1312668E+00
        -11   -1    0    0    0    0  0.00000000000E+00  0.00000000000E+00  0.45593999997E+02  0.45594000000E+02  0.51100000000E-03 0.  1.
         11   -1    0    0    0    0 -0.00000000000E+00 -0.00000000000E+00 -0.45593999997E+02  0.45594000000E+02  0.51100000000E-03 0. -1.
    9900012    2    1    2    0    0 -0.21968865534E+02 -0.32542246529E+02 -0.18493081216E+02  0.47787275180E+02  0.20000018856E+02 0.  0.
        -12    1    1    2    0    0  0.21968865534E+02  0.32542246529E+02  0.18493081216E+02  0.43400724820E+02  0.00000000000E+00 0.  1.
         11    1    3    3    0    0 -0.90627258317E+01 -0.25463232768E+02 -0.12243728697E+02  0.29671840442E+02  0.51100000000E-03 0. -1.
        -11    1    3    3    0    0 -0.42884487111E+01  0.11551799758E+00  0.14208650565E+01  0.45191807361E+01  0.51100000000E-03 0.  1.
         12    1    3    3    0    0 -0.86176909910E+01 -0.71945317583E+01 -0.76702175760E+01  0.13596254003E+02  0.00000000000E+00 0. -1.
</event>
<event>
 7    1  0.2497395E-009  0.4778727E+02  0.7816164E-02  0.1312668E+00
        -11   -1    0    0    0    0  0.00000000000E+00  0.00000000000E+00  0.45593999997E+02  0.45594000000E+02  0.51100000000E-03 0.  1.
         11   -1    0    0    0    0 -0.00000000000E+00 -0.00000000000E+00 -0.45593999997E+02  0.45594000000E+02  0.51100000000E-03 0. -1.
    9900012    2    1    2    0    0 -0.46140470859E+01  0.17071334944E+02 -0.39634624247E+02  0.47787270208E+02  0.19999996188E+02 0.  0.
        -12    1    1    2    0    0  0.46140470859E+01 -0.17071334944E+02  0.39634624247E+02  0.43400729792E+02  0.00000000000E+00 0.  1.
         11    1    3    3    0    0 -0.82652397413E+01  0.15252826304E+02 -0.36564763070E+02  0.40471530696E+02  0.51100000000E-03 0. -1.
        -11    1    3    3    0    0  0.28627139906E+01  0.35457995991E+01 -0.29171200245E+01  0.54108609008E+01  0.51100000000E-03 0.  1.
         12    1    3    3    0    0  0.78847866474E+00 -0.17272909597E+01 -0.15274115208E+00  0.19048786113E+01  0.00000000000E+00 0. -1.
</event>
<event>
 7    1  0.2497395E-009  0.4778727E+02  0.7816164E-02  0.1312668E+00
        -11   -1    0    0    0    0  0.00000000000E+00  0.00000000000E+00  0.45593999997E+02  0.45594000000E+02  0.51100000000E-03 0.  1.
         11   -1    0    0    0    0 -0.00000000000E+00 -0.00000000000E+00 -0.45593999997E+02  0.45594000000E+02  0.51100000000E-03 0. -1.
    9900012    2    1    2    0    0  0.33824313130E+02  0.73617585452E+01 -0.26179070940E+02  0.47787269558E+02  0.19999993225E+02 0.  0.
        -12    1    1    2    0    0 -0.33824313130E+02 -0.73617585452E+01  0.26179070940E+02  0.43400730442E+02  0.00000000000E+00 0.  1.
         11    1    3    3    0    0  0.31079295057E+02  0.10324326244E+02 -0.22721300162E+02  0.39859400083E+02  0.51100000000E-03 0. -1.
        -11    1    3    3    0    0  0.19994379557E+01 -0.46440281222E+01 -0.15750790014E+01  0.52958118793E+01  0.51100000000E-03 0.  1.
        -12    1    3    3    0    0  0.74558011681E+00  0.16814604230E+01 -0.18826917764E+01  0.26320575962E+01  0.00000000000E+00 0.  1.
</event>
<event>
 7    1  0.2497395E-009  0.4778727E+02  0.7816164E-02  0.1312668E+00
        -11   -1    0    0    0    0  0.00000000000E+00  0.00000000000E+00  0.45593999997E+02  0.45594000000E+02  0.51100000000E-03 0.  1.
         11   -1    0    0    0    0 -0.00000000000E+00 -0.00000000000E+00 -0.45593999997E+02  0.45594000000E+02  0.51100000000E-03 0. -1.
    9900012    2    1    2    0    0  0.18886940105E+02  0.37636279964E+02 -0.10507975493E+02  0.47787266999E+02  0.19999981554E+02 0.  0.
        -12    1    1    2    0    0 -0.18886940105E+02 -0.37636279964E+02  0.10507975493E+02  0.43400733001E+02  0.00000000000E+00 0.  1.
         11    1    3    3    0    0  0.81376892747E+01  0.24321891982E+01 -0.26823652518E+01  0.89068857988E+01  0.51100000000E-03 0. -1.
        -11    1    3    3    0    0  0.67757149170E+01  0.21843361536E+02  0.50198878614E-01  0.22870183122E+02  0.51100000000E-03 0.  1.
         12    1    3    3    0    0  0.39735359134E+01  0.13360729230E+02 -0.78758091195E+01  0.16010198078E+02  0.00000000000E+00 0. -1.
</event>
<event>
 7    1  0.2497395E-009  0.4778727E+02  0.7816164E-02  0.1312668E+00
        -11   -1    0    0    0    0  0.00000000000E+00  0.00000000000E+00  0.45593999997E+02  0.45594000000E+02  0.51100000000E-03 0. -1.
         11   -1    0    0    0    0 -0.00000000000E+00 -0.00000000000E+00 -0.45593999997E+02  0.45594000000E+02  0.51100000000E-03 0.  1.
    9900012    2    1    2    0    0  0.33824368821E+02 -0.11177076766E+02  0.24791289676E+02  0.47787274027E+02  0.20000013600E+02 0.  0.
        -12    1    1    2    0    0 -0.33824368821E+02  0.11177076766E+02 -0.24791289676E+02  0.43400725973E+02  0.00000000000E+00 0.  1.
         11    1    3    3    0    0  0.31454839786E+02 -0.12974170829E+02  0.20929474086E+02  0.39947201910E+02  0.51100000000E-03 0. -1.
        -11    1    3    3    0    0  0.18419869246E+01  0.14892991085E+01 -0.12592897042E+01  0.26826737568E+01  0.51100000000E-03 0.  1.
         12    1    3    3    0    0  0.52754211001E+00  0.30779495495E+00  0.51211052941E+01  0.51573983601E+01  0.00000000000E+00 0. -1.
</event>
<event>
 7    1  0.2497395E-009  0.4778727E+02  0.7816164E-02  0.1312668E+00
        -11   -1    0    0    0    0  0.00000000000E+00  0.00000000000E+00  0.45593999997E+02  0.45594000000E+02  0.51100000000E-03 0.  1.
         11   -1    0    0    0    0 -0.00000000000E+00 -0.00000000000E+00 -0.45593999997E+02  0.45594000000E+02  0.51100000000E-03 0. -1.
    9900012    2    1    2    0    0  0.42412350563E+02 -0.46788090252E+01 -0.79324897186E+01  0.47787272733E+02  0.20000007697E+02 0.  0.
        -12    1    1    2    0    0 -0.42412350563E+02  0.46788090252E+01  0.79324897186E+01  0.43400727267E+02  0.00000000000E+00 0.  1.
         11    1    3    3    0    0  0.23724924422E+02 -0.91955915636E+01  0.28621530189E+00  0.25446274040E+02  0.51100000000E-03 0. -1.
        -11    1    3    3    0    0  0.38921375648E+01  0.42665174671E+01 -0.37411473535E+01  0.68809948337E+01  0.51100000000E-03 0.  1.
         12    1    3    3    0    0  0.14795288576E+02  0.25026507130E+00 -0.44775576670E+01  0.15460003859E+02  0.00000000000E+00 0. -1.
</event>
<event>
 7    1  0.2497395E-009  0.4778729E+02  0.7816164E-02  0.1312668E+00
        -11   -1    0    0    0    0  0.00000000000E+00  0.00000000000E+00  0.45593999997E+02  0.45594000000E+02  0.51100000000E-03 0. -1.
         11   -1    0    0    0    0 -0.00000000000E+00 -0.00000000000E+00 -0.45593999997E+02  0.45594000000E+02  0.51100000000E-03 0.  1.
    9900012    2    1    2    0    0  0.31025173962E+02 -0.47651257280E+01  0.29972550892E+02  0.47787289757E+02  0.20000085320E+02 0.  0.
        -12    1    1    2    0    0 -0.31025173962E+02  0.47651257280E+01 -0.29972550892E+02  0.43400710243E+02  0.00000000000E+00 0.  1.
         11    1    3    3    0    0  0.20299465115E+01 -0.21417398878E+01  0.84202169255E+01  0.89223195370E+01  0.51100000000E-03 0. -1.
        -11    1    3    3    0    0  0.24464501633E+02 -0.22451706441E+01  0.10135094708E+02  0.26575793053E+02  0.51100000000E-03 0.  1.
        -12    1    3    3    0    0  0.45307258175E+01 -0.37821519606E+00  0.11417239259E+02  0.12289177168E+02  0.00000000000E+00 0.  1.
</event>
<event>
 7    1  0.2497395E-009  0.4778727E+02  0.7816164E-02  0.1312668E+00
        -11   -1    0    0    0    0  0.00000000000E+00  0.00000000000E+00  0.45593999997E+02  0.45594000000E+02  0.51100000000E-03 0.  1.
         11   -1    0    0    0    0 -0.00000000000E+00 -0.00000000000E+00 -0.45593999997E+02  0.45594000000E+02  0.51100000000E-03 0. -1.
    9900012    2    1    2    0    0  0.16085257095E+02  0.39709713227E+02  0.69301156548E+01  0.47787270474E+02  0.19999997400E+02 0.  0.
        -12    1    1    2    0    0 -0.16085257095E+02 -0.39709713227E+02 -0.69301156548E+01  0.43400729526E+02  0.00000000000E+00 0.  1.
         11    1    3    3    0    0  0.23317394582E+01  0.44398852020E+01 -0.22967100338E+01  0.55158378102E+01  0.51100000000E-03 0. -1.
        -11    1    3    3    0    0  0.94229166416E+01  0.34217170235E+02  0.11448401145E+02  0.37291714709E+02  0.51100000000E-03 0.  1.
        -12    1    3    3    0    0  0.43306009952E+01  0.10526577898E+01 -0.22215754560E+01  0.49797179547E+01  0.00000000000E+00 0.  1.
</event>
<event>
 7    1  0.2497395E-009  0.4778727E+02  0.7816164E-02  0.1312668E+00
        -11   -1    0    0    0    0  0.00000000000E+00  0.00000000000E+00  0.45593999997E+02  0.45594000000E+02  0.51100000000E-03 0.  1.
         11   -1    0    0    0    0 -0.00000000000E+00 -0.00000000000E+00 -0.45593999997E+02  0.45594000000E+02  0.51100000000E-03 0. -1.
    9900012    2    1    2    0    0 -0.51561292298E+01 -0.38726622281E+02 -0.18902016329E+02  0.47787272319E+02  0.20000005810E+02 0.  0.
        -12    1    1    2    0    0  0.51561292298E+01  0.38726622281E+02  0.18902016329E+02  0.43400727681E+02  0.00000000000E+00 0.  1.
         11    1    3    3    0    0 -0.48707872120E+01 -0.20327568553E+02 -0.11505567059E+02  0.23860274200E+02  0.51100000000E-03 0. -1.
        -11    1    3    3    0    0  0.15806574950E+00 -0.46819934541E+01  0.39438459305E+01  0.61237217826E+01  0.51100000000E-03 0.  1.
        -12    1    3    3    0    0 -0.44340776724E+00 -0.13717060275E+02 -0.11340295201E+02  0.17803276336E+02  0.00000000000E+00 0.  1.
</event>
<event>
 7    1  0.2497395E-009  0.4778728E+02  0.7816164E-02  0.1312668E+00
        -11   -1    0    0    0    0  0.00000000000E+00  0.00000000000E+00  0.45593999997E+02  0.45594000000E+02  0.51100000000E-03 0. -1.
         11   -1    0    0    0    0 -0.00000000000E+00 -0.00000000000E+00 -0.45593999997E+02  0.45594000000E+02  0.51100000000E-03 0.  1.
    9900012    2    1    2    0    0 -0.38107376366E+01 -0.25477764254E+02  0.34928271767E+02  0.47787281557E+02  0.20000047931E+02 0.  0.
        -12    1    1    2    0    0  0.38107376366E+01  0.25477764254E+02 -0.34928271767E+02  0.43400718443E+02  0.00000000000E+00 0.  1.
         11    1    3    3    0    0  0.82960792828E+00 -0.55156679062E+01  0.81474347763E+01  0.98737802012E+01  0.51100000000E-03 0. -1.
        -11    1    3    3    0    0  0.15756718670E+01 -0.20360350544E+02  0.18526843852E+02  0.27573004179E+02  0.51100000000E-03 0.  1.
        -12    1    3    3    0    0 -0.62160174320E+01  0.39825419609E+00  0.82539931388E+01  0.10340497176E+02  0.00000000000E+00 0.  1.
</event>
<event>
 7    1  0.2497395E-009  0.4778728E+02  0.7816164E-02  0.1312668E+00
        -11   -1    0    0    0    0  0.00000000000E+00  0.00000000000E+00  0.45593999997E+02  0.45594000000E+02  0.51100000000E-03 0.  1.
         11   -1    0    0    0    0 -0.00000000000E+00 -0.00000000000E+00 -0.45593999997E+02  0.45594000000E+02  0.51100000000E-03 0. -1.
    9900012    2    1    2    0    0 -0.32142314566E+02 -0.25963017027E+02 -0.13282170859E+02  0.47787277638E+02  0.20000030064E+02 0.  0.
        -12    1    1    2    0    0  0.32142314566E+02  0.25963017027E+02  0.13282170859E+02  0.43400722362E+02  0.00000000000E+00 0.  1.
         11    1    3    3    0    0 -0.19075464460E+02 -0.14083918716E+02 -0.10685544518E+02  0.26007902120E+02  0.51100000000E-03 0. -1.
        -11    1    3    3    0    0 -0.11028748896E+01  0.23663520080E+01  0.10648050669E+01  0.28195327520E+01  0.51100000000E-03 0.  1.
        -12    1    3    3    0    0 -0.11963975216E+02 -0.14245450320E+02 -0.36614314077E+01  0.18959842767E+02  0.00000000000E+00 0.  1.
</event>
<event>
 7    1  0.2497395E-009  0.4778727E+02  0.7816164E-02  0.1312668E+00
        -11   -1    0    0    0    0  0.00000000000E+00  0.00000000000E+00  0.45593999997E+02  0.45594000000E+02  0.51100000000E-03 0.  1.
         11   -1    0    0    0    0 -0.00000000000E+00 -0.00000000000E+00 -0.45593999997E+02  0.45594000000E+02  0.51100000000E-03 0. -1.
    9900012    2    1    2    0    0 -0.53226789606E+01 -0.12720727744E+02 -0.41151862154E+02  0.47787267467E+02  0.19999983689E+02 0.  0.
        -12    1    1    2    0    0  0.53226789606E+01  0.12720727744E+02  0.41151862154E+02  0.43400732533E+02  0.00000000000E+00 0.  1.
         11    1    3    3    0    0  0.38588565123E+01 -0.34768001972E+01 -0.14088595526E+02  0.15015573161E+02  0.51100000000E-03 0. -1.
        -11    1    3    3    0    0 -0.40735041330E+01  0.17929861500E+01 -0.19309537489E+01  0.48514758474E+01  0.51100000000E-03 0.  1.
        -12    1    3    3    0    0 -0.51080313398E+01 -0.11036913696E+02 -0.25132312879E+02  0.27920218458E+02  0.00000000000E+00 0.  1.
</event>
<event>
 7    1  0.2497395E-009  0.4778727E+02  0.7816164E-02  0.1312668E+00
        -11   -1    0    0    0    0  0.00000000000E+00  0.00000000000E+00  0.45593999997E+02  0.45594000000E+02  0.51100000000E-03 0. -1.
         11   -1    0    0    0    0 -0.00000000000E+00 -0.00000000000E+00 -0.45593999997E+02  0.45594000000E+02  0.51100000000E-03 0.  1.
    9900012    2    1    2    0    0  0.23758515232E+02 -0.36241176307E+02 -0.23944955909E+01  0.47787268264E+02  0.19999987321E+02 0.  0.
        -12    1    1    2    0    0 -0.23758515232E+02  0.36241176307E+02  0.23944955909E+01  0.43400731736E+02  0.00000000000E+00 0.  1.
         11    1    3    3    0    0  0.22982827480E+01 -0.20360959410E+02 -0.30398769648E+01  0.20714526881E+02  0.51100000000E-03 0. -1.
        -11    1    3    3    0    0  0.15137112267E+02 -0.12477395612E+02 -0.12172298924E+01  0.19654496124E+02  0.51100000000E-03 0.  1.
         12    1    3    3    0    0  0.63231202174E+01 -0.34028212849E+01  0.18626112663E+01  0.74182452581E+01  0.00000000000E+00 0. -1.
</event>
<event>
 7    1  0.2497395E-009  0.4778727E+02  0.7816164E-02  0.1312668E+00
        -11   -1    0    0    0    0  0.00000000000E+00  0.00000000000E+00  0.45593999997E+02  0.45594000000E+02  0.51100000000E-03 0.  1.
         11   -1    0    0    0    0 -0.00000000000E+00 -0.00000000000E+00 -0.45593999997E+02  0.45594000000E+02  0.51100000000E-03 0. -1.
    9900012    2    1    2    0    0 -0.36770414563E+02  0.21623632411E+02 -0.79986518650E+01  0.47787270773E+02  0.19999998762E+02 0.  0.
        -12    1    1    2    0    0  0.36770414563E+02 -0.21623632411E+02  0.79986518650E+01  0.43400729227E+02  0.00000000000E+00 0.  1.
         11    1    3    3    0    0 -0.18326414098E+02  0.12632085194E+02 -0.54553052782E+01  0.22916967208E+02  0.51100000000E-03 0. -1.
        -11    1    3    3    0    0 -0.77784042525E+01  0.19620636379E+01  0.55442522707E+01  0.97515127000E+01  0.51100000000E-03 0.  1.
        -12    1    3    3    0    0 -0.10665596212E+02  0.70294835791E+01 -0.80875988575E+01  0.15118790865E+02  0.00000000000E+00 0.  1.
</event>
<event>
 7    1  0.2497395E-009  0.4778727E+02  0.7816164E-02  0.1312668E+00
        -11   -1    0    0    0    0  0.00000000000E+00  0.00000000000E+00  0.45593999997E+02  0.45594000000E+02  0.51100000000E-03 0. -1.
         11   -1    0    0    0    0 -0.00000000000E+00 -0.00000000000E+00 -0.45593999997E+02  0.45594000000E+02  0.51100000000E-03 0.  1.
    9900012    2    1    2    0    0  0.30894772914E+02 -0.22730436586E+02  0.20309201964E+02  0.47787269301E+02  0.19999992050E+02 0.  0.
        -12    1    1    2    0    0 -0.30894772914E+02  0.22730436586E+02 -0.20309201964E+02  0.43400730699E+02  0.00000000000E+00 0.  1.
         11    1    3    3    0    0  0.10346574311E+02 -0.10824961421E+02  0.61068823299E+01  0.16171747023E+02  0.51100000000E-03 0. -1.
        -11    1    3    3    0    0  0.11653422766E+02  0.19154817199E+01  0.58583162642E+01  0.13182989119E+02  0.51100000000E-03 0.  1.
        -12    1    3    3    0    0  0.88947758362E+01 -0.13820956885E+02  0.83440033703E+01  0.18432533159E+02  0.00000000000E+00 0.  1.
</event>
<event>
 7    1  0.2497395E-009  0.4778726E+02  0.7816164E-02  0.1312668E+00
        -11   -1    0    0    0    0  0.00000000000E+00  0.00000000000E+00  0.45593999997E+02  0.45594000000E+02  0.51100000000E-03 0.  1.
         11   -1    0    0    0    0 -0.00000000000E+00 -0.00000000000E+00 -0.45593999997E+02  0.45594000000E+02  0.51100000000E-03 0. -1.
    9900012    2    1    2    0    0  0.12586773223E+02 -0.17149396169E+02 -0.37829818532E+02  0.47787264761E+02  0.19999971350E+02 0.  0.
        -12    1    1    2    0    0 -0.12586773223E+02  0.17149396169E+02  0.37829818532E+02  0.43400735239E+02  0.00000000000E+00 0.  1.
         11    1    3    3    0    0  0.34584644189E+01 -0.33548685693E+01 -0.58174860063E+01  0.75537582003E+01  0.51100000000E-03 0. -1.
        -11    1    3    3    0    0  0.46839538970E+00 -0.14112650258E+02 -0.26310540684E+02  0.29860188259E+02  0.51100000000E-03 0.  1.
        -12    1    3    3    0    0  0.86599134141E+01  0.31812265821E+00 -0.57017918424E+01  0.10373318301E+02  0.00000000000E+00 0.  1.
</event>
<event>
 7    1  0.2497395E-009  0.4778728E+02  0.7816164E-02  0.1312668E+00
        -11   -1    0    0    0    0  0.00000000000E+00  0.00000000000E+00  0.45593999997E+02  0.45594000000E+02  0.51100000000E-03 0. -1.
         11   -1    0    0    0    0 -0.00000000000E+00 -0.00000000000E+00 -0.45593999997E+02  0.45594000000E+02  0.51100000000E-03 0.  1.
    9900012    2    1    2    0    0 -0.26965472886E+02  0.26699573556E+02  0.21062260456E+02  0.47787276831E+02  0.20000026384E+02 0.  0.
        -12    1    1    2    0    0  0.26965472886E+02 -0.26699573556E+02 -0.21062260456E+02  0.43400723169E+02  0.00000000000E+00 0.  1.
         11    1    3    3    0    0 -0.13841946170E+02  0.95055734817E+01 -0.45794577097E+00  0.16797771149E+02  0.51100000000E-03 0. -1.
        -11    1    3    3    0    0 -0.10664988612E+02  0.12166474564E+02  0.18683581700E+02  0.24715204041E+02  0.51100000000E-03 0.  1.
        -12    1    3    3    0    0 -0.24585381038E+01  0.50275255107E+01  0.28366245270E+01  0.62743016404E+01  0.00000000000E+00 0.  1.
</event>
<event>
 7    1  0.2497395E-009  0.4778727E+02  0.7816164E-02  0.1312668E+00
        -11   -1    0    0    0    0  0.00000000000E+00  0.00000000000E+00  0.45593999997E+02  0.45594000000E+02  0.51100000000E-03 0.  1.
         11   -1    0    0    0    0 -0.00000000000E+00 -0.00000000000E+00 -0.45593999997E+02  0.45594000000E+02  0.51100000000E-03 0. -1.
    9900012    2    1    2    0    0  0.58200930869E+01  0.35910878875E+02 -0.23667669561E+02  0.47787270887E+02  0.19999999283E+02 0.  0.
        -12    1    1    2    0    0 -0.58200930869E+01 -0.35910878875E+02  0.23667669561E+02  0.43400729113E+02  0.00000000000E+00 0.  1.
         11    1    3    3    0    0  0.10443072786E+02  0.20831399149E+02 -0.10001948268E+02  0.25358310849E+02  0.51100000000E-03 0. -1.
        -11    1    3    3    0    0  0.73070418209E+00 -0.37891779370E+00  0.34265554164E+00  0.89158307378E+00  0.51100000000E-03 0.  1.
         12    1    3    3    0    0 -0.53536838812E+01  0.15458397520E+02 -0.14008376834E+02  0.21537376964E+02  0.00000000000E+00 0. -1.
</event>
<event>
 7    1  0.2497395E-009  0.4778727E+02  0.7816164E-02  0.1312668E+00
        -11   -1    0    0    0    0  0.00000000000E+00  0.00000000000E+00  0.45593999997E+02  0.45594000000E+02  0.51100000000E-03 0.  1.
         11   -1    0    0    0    0 -0.00000000000E+00 -0.00000000000E+00 -0.45593999997E+02  0.45594000000E+02  0.51100000000E-03 0. -1.
    9900012    2    1    2    0    0 -0.84302218243E+01 -0.11149800256E+02 -0.41088153992E+02  0.47787273229E+02  0.20000009961E+02 0.  0.
        -12    1    1    2    0    0  0.84302218243E+01  0.11149800256E+02  0.41088153992E+02  0.43400726771E+02  0.00000000000E+00 0.  1.
         11    1    3    3    0    0 -0.48180786382E+01  0.45848860006E+01 -0.53761554274E+01  0.85520821349E+01  0.51100000000E-03 0. -1.
        -11    1    3    3    0    0 -0.16110941370E+01 -0.94452879518E+01 -0.19356839506E+02  0.21598525985E+02  0.51100000000E-03 0.  1.
         12    1    3    3    0    0 -0.20010490490E+01 -0.62893983049E+01 -0.16355159059E+02  0.17636665109E+02  0.00000000000E+00 0. -1.
</event>
<event>
 7    1  0.2497395E-009  0.4778727E+02  0.7816164E-02  0.1312668E+00
        -11   -1    0    0    0    0  0.00000000000E+00  0.00000000000E+00  0.45593999997E+02  0.45594000000E+02  0.51100000000E-03 0. -1.
         11   -1    0    0    0    0 -0.00000000000E+00 -0.00000000000E+00 -0.45593999997E+02  0.45594000000E+02  0.51100000000E-03 0.  1.
    9900012    2    1    2    0    0  0.34753576071E+02  0.24249364290E+02  0.93691368247E+01  0.47787269096E+02  0.19999991116E+02 0.  0.
        -12    1    1    2    0    0 -0.34753576071E+02 -0.24249364290E+02 -0.93691368247E+01  0.43400730904E+02  0.00000000000E+00 0.  1.
         11    1    3    3    0    0  0.19676544481E+02  0.21335624372E+02  0.99734903850E+01  0.30689506037E+02  0.51100000000E-03 0. -1.
        -11    1    3    3    0    0  0.15220440056E+02  0.38980463859E+01  0.35518680537E+00  0.15715683855E+02  0.51100000000E-03 0.  1.
        -12    1    3    3    0    0 -0.14340846618E+00 -0.98430646819E+00 -0.95954036574E+00  0.13820792036E+01  0.00000000000E+00 0.  1.
</event>
<event>
 7    1  0.2497395E-009  0.4778727E+02  0.7816164E-02  0.1312668E+00
        -11   -1    0    0    0    0  0.00000000000E+00  0.00000000000E+00  0.45593999997E+02  0.45594000000E+02  0.51100000000E-03 0. -1.
         11   -1    0    0    0    0 -0.00000000000E+00 -0.00000000000E+00 -0.45593999997E+02  0.45594000000E+02  0.51100000000E-03 0.  1.
    9900012    2    1    2    0    0 -0.74713019942E+01  0.21568137520E+02  0.36913661799E+02  0.47787270317E+02  0.19999996686E+02 0.  0.
        -12    1    1    2    0    0  0.74713019942E+01 -0.21568137520E+02 -0.36913661799E+02  0.43400729683E+02  0.00000000000E+00 0.  1.
         11    1    3    3    0    0  0.60783760946E+00  0.43029469315E+01  0.21659722779E+02  0.22091365055E+02  0.51100000000E-03 0.  1.
        -11    1    3    3    0    0 -0.78593939979E+01  0.14806278498E+02  0.15941933403E+02  0.23133119069E+02  0.51100000000E-03 0. -1.
         12    1    3    3    0    0 -0.21974560573E+00  0.24589120902E+01 -0.68799438388E+00  0.25627861929E+01  0.00000000000E+00 0. -1.
</event>
<event>
 7    1  0.2497395E-009  0.4778727E+02  0.7816164E-02  0.1312668E+00
        -11   -1    0    0    0    0  0.00000000000E+00  0.00000000000E+00  0.45593999997E+02  0.45594000000E+02  0.51100000000E-03 0.  1.
         11   -1    0    0    0    0 -0.00000000000E+00 -0.00000000000E+00 -0.45593999997E+02  0.45594000000E+02  0.51100000000E-03 0. -1.
    9900012    2    1    2    0    0 -0.98058403823E+00  0.12964481318E+01 -0.43370274397E+02  0.47787273922E+02  0.20000013120E+02 0.  0.
        -12    1    1    2    0    0  0.98058403823E+00 -0.12964481318E+01  0.43370274397E+02  0.43400726078E+02  0.00000000000E+00 0.  1.
         11    1    3    3    0    0 -0.45691404963E+01  0.70829860308E+01 -0.19941256527E+02  0.21649467618E+02  0.51100000000E-03 0. -1.
        -11    1    3    3    0    0  0.87525901160E+00 -0.47981618907E+01 -0.35062546014E+01  0.60068508770E+01  0.51100000000E-03 0.  1.
        -12    1    3    3    0    0  0.27132974465E+01 -0.98837600824E+00 -0.19922763269E+02  0.20130955427E+02  0.00000000000E+00 0.  1.
</event>
<event>
 7    1  0.2497395E-009  0.4778728E+02  0.7816164E-02  0.1312668E+00
        -11   -1    0    0    0    0  0.00000000000E+00  0.00000000000E+00  0.45593999997E+02  0.45594000000E+02  0.51100000000E-03 0.  1.
         11   -1    0    0    0    0 -0.00000000000E+00 -0.00000000000E+00 -0.45593999997E+02  0.45594000000E+02  0.51100000000E-03 0. -1.
    9900012    2    1    2    0    0 -0.26140368168E+02 -0.33404991808E+01 -0.34483972125E+02  0.47787284381E+02  0.20000060807E+02 0.  0.
        -12    1    1    2    0    0  0.26140368168E+02  0.33404991808E+01  0.34483972125E+02  0.43400715619E+02  0.00000000000E+00 0.  1.
         11    1    3    3    0    0 -0.87241980809E+01 -0.37685648778E+01 -0.12116886501E+02  0.15399112057E+02  0.51100000000E-03 0. -1.
        -11    1    3    3    0    0 -0.14572083392E+02  0.23731570287E+01 -0.64657288254E+01  0.16117789494E+02  0.51100000000E-03 0.  1.
        -12    1    3    3    0    0 -0.28440866951E+01 -0.19450913317E+01 -0.15901356798E+02  0.16270382830E+02  0.00000000000E+00 0.  1.
</event>
<event>
 7    1  0.2497395E-009  0.4778726E+02  0.7816164E-02  0.1312668E+00
        -11   -1    0    0    0    0  0.00000000000E+00  0.00000000000E+00  0.45593999997E+02  0.45594000000E+02  0.51100000000E-03 0. -1.
         11   -1    0    0    0    0 -0.00000000000E+00 -0.00000000000E+00 -0.45593999997E+02  0.45594000000E+02  0.51100000000E-03 0.  1.
    9900012    2    1    2    0    0 -0.27076478087E+02 -0.33713458504E+02  0.37270834014E+01  0.47787261520E+02  0.19999956574E+02 0.  0.
        -12    1    1    2    0    0  0.27076478087E+02  0.33713458504E+02 -0.37270834014E+01  0.43400738480E+02  0.00000000000E+00 0.  1.
         11    1    3    3    0    0 -0.12887186921E+01 -0.17909178581E+01  0.19613240637E+01  0.29521136472E+01  0.51100000000E-03 0. -1.
        -11    1    3    3    0    0 -0.17750703351E+02 -0.22713606702E+02  0.95221316173E+01  0.30358958969E+02  0.51100000000E-03 0.  1.
        -12    1    3    3    0    0 -0.80370560440E+01 -0.92089339443E+01 -0.77563722797E+01  0.14476188904E+02  0.00000000000E+00 0.  1.
</event>
<event>
 7    1  0.2497395E-009  0.4778727E+02  0.7816164E-02  0.1312668E+00
        -11   -1    0    0    0    0  0.00000000000E+00  0.00000000000E+00  0.45593999997E+02  0.45594000000E+02  0.51100000000E-03 0.  1.
         11   -1    0    0    0    0 -0.00000000000E+00 -0.00000000000E+00 -0.45593999997E+02  0.45594000000E+02  0.51100000000E-03 0. -1.
    9900012    2    1    2    0    0 -0.38805937973E+02  0.50576286489E+01 -0.18765467858E+02  0.47787271741E+02  0.20000003174E+02 0.  0.
        -12    1    1    2    0    0  0.38805937973E+02 -0.50576286489E+01  0.18765467858E+02  0.43400728259E+02  0.00000000000E+00 0.  1.
         11    1    3    3    0    0 -0.18091229167E+02  0.12105744602E+01 -0.14567457883E+02  0.23258737987E+02  0.51100000000E-03 0. -1.
        -11    1    3    3    0    0 -0.25323820717E+00  0.10496373699E+01  0.25767961598E+01  0.27938766809E+01  0.51100000000E-03 0.  1.
         12    1    3    3    0    0 -0.20461470599E+02  0.27974168188E+01 -0.67748061346E+01  0.21734657073E+02  0.00000000000E+00 0. -1.
</event>
<event>
 7    1  0.2497395E-009  0.4778727E+02  0.7816164E-02  0.1312668E+00
        -11   -1    0    0    0    0  0.00000000000E+00  0.00000000000E+00  0.45593999997E+02  0.45594000000E+02  0.51100000000E-03 0. -1.
         11   -1    0    0    0    0 -0.00000000000E+00 -0.00000000000E+00 -0.45593999997E+02  0.45594000000E+02  0.51100000000E-03 0.  1.
    9900012    2    1    2    0    0  0.21410471255E+02  0.13967216721E+02 -0.35073234541E+02  0.47787271855E+02  0.20000003697E+02 0.  0.
        -12    1    1    2    0    0 -0.21410471255E+02 -0.13967216721E+02  0.35073234541E+02  0.43400728145E+02  0.00000000000E+00 0.  1.
         11    1    3    3    0    0  0.55586143606E+01  0.45115190693E+01 -0.15559051556E+02  0.17127057060E+02  0.51100000000E-03 0. -1.
        -11    1    3    3    0    0  0.26006992982E+01 -0.27007864900E+01 -0.91882887674E+01  0.99238367197E+01  0.51100000000E-03 0.  1.
        -12    1    3    3    0    0  0.13251157597E+02  0.12156484141E+02 -0.10325894217E+02  0.20736378076E+02  0.00000000000E+00 0.  1.
</event>
<event>
 7    1  0.2497395E-009  0.4778721E+02  0.7816164E-02  0.1312668E+00
        -11   -1    0    0    0    0  0.00000000000E+00  0.00000000000E+00  0.45593999997E+02  0.45594000000E+02  0.51100000000E-03 0.  1.
         11   -1    0    0    0    0 -0.00000000000E+00 -0.00000000000E+00 -0.45593999997E+02  0.45594000000E+02  0.51100000000E-03 0. -1.
    9900012    2    1    2    0    0  0.38026897501E+02 -0.20430050824E+02  0.44940671014E+01  0.47787210268E+02  0.19999722896E+02 0.  0.
        -12    1    1    2    0    0 -0.38026897501E+02  0.20430050824E+02 -0.44940671014E+01  0.43400789732E+02  0.00000000000E+00 0.  1.
         11    1    3    3    0    0  0.13003587249E+02 -0.23390646708E+01 -0.91883548906E+00  0.13244197363E+02  0.51100000000E-03 0. -1.
        -11    1    3    3    0    0  0.59408480107E+01 -0.99658395134E+01  0.73149984868E+01  0.13715714907E+02  0.51100000000E-03 0.  1.
        -12    1    3    3    0    0  0.19082462241E+02 -0.81251466400E+01 -0.19020958964E+01  0.20827297998E+02  0.00000000000E+00 0.  1.
</event>
<event>
 7    1  0.2497395E-009  0.4778727E+02  0.7816164E-02  0.1312668E+00
        -11   -1    0    0    0    0  0.00000000000E+00  0.00000000000E+00  0.45593999997E+02  0.45594000000E+02  0.51100000000E-03 0.  1.
         11   -1    0    0    0    0 -0.00000000000E+00 -0.00000000000E+00 -0.45593999997E+02  0.45594000000E+02  0.51100000000E-03 0. -1.
    9900012    2    1    2    0    0  0.73743633229E+01  0.31345607378E+02 -0.29098021035E+02  0.47787272305E+02  0.20000005746E+02 0.  0.
        -12    1    1    2    0    0 -0.73743633229E+01 -0.31345607378E+02  0.29098021035E+02  0.43400727695E+02  0.00000000000E+00 0.  1.
         11    1    3    3    0    0  0.58053162034E+01  0.28867129655E+02 -0.22737308842E+02  0.37202124730E+02  0.51100000000E-03 0. -1.
        -11    1    3    3    0    0  0.62257290086E+00 -0.28025563137E+01 -0.11095459425E+01  0.30778257534E+01  0.51100000000E-03 0.  1.
        -12    1    3    3    0    0  0.94647421865E+00  0.52810340365E+01 -0.52511662506E+01  0.75073218216E+01  0.00000000000E+00 0.  1.
</event>
<event>
 7    1  0.2497395E-009  0.4778727E+02  0.7816164E-02  0.1312668E+00
        -11   -1    0    0    0    0  0.00000000000E+00  0.00000000000E+00  0.45593999997E+02  0.45594000000E+02  0.51100000000E-03 0.  1.
         11   -1    0    0    0    0 -0.00000000000E+00 -0.00000000000E+00 -0.45593999997E+02  0.45594000000E+02  0.51100000000E-03 0. -1.
    9900012    2    1    2    0    0 -0.11533946953E+02  0.36802653235E+02 -0.19903666561E+02  0.47787272356E+02  0.20000005980E+02 0.  0.
        -12    1    1    2    0    0  0.11533946953E+02 -0.36802653235E+02  0.19903666561E+02  0.43400727644E+02  0.00000000000E+00 0.  1.
         11    1    3    3    0    0 -0.15584061600E+01  0.27186681861E+02 -0.15660921377E+02  0.31413512364E+02  0.51100000000E-03 0. -1.
        -11    1    3    3    0    0 -0.10908399225E+02  0.98660401935E+01 -0.34095783805E+01  0.15098249824E+02  0.51100000000E-03 0.  1.
         12    1    3    3    0    0  0.93285843110E+00 -0.25006881994E+00 -0.83316680381E+00  0.12755101686E+01  0.00000000000E+00 0. -1.
</event>
<event>
 7    1  0.2497395E-009  0.4778729E+02  0.7816164E-02  0.1312668E+00
        -11   -1    0    0    0    0  0.00000000000E+00  0.00000000000E+00  0.45593999997E+02  0.45594000000E+02  0.51100000000E-03 0.  1.
         11   -1    0    0    0    0 -0.00000000000E+00 -0.00000000000E+00 -0.45593999997E+02  0.45594000000E+02  0.51100000000E-03 0. -1.
    9900012    2    1    2    0    0  0.12316098876E+02 -0.10683950556E+02 -0.40221742738E+02  0.47787289408E+02  0.20000083726E+02 0.  0.
        -12    1    1    2    0    0 -0.12316098876E+02  0.10683950556E+02  0.40221742738E+02  0.43400710592E+02  0.00000000000E+00 0.  1.
         11    1    3    3    0    0  0.78633245265E+01 -0.11215294343E+02 -0.34861252560E+02  0.37455595445E+02  0.51100000000E-03 0. -1.
        -11    1    3    3    0    0  0.46620677868E+01  0.29210500900E+01 -0.13601384253E+01  0.56672203481E+01  0.51100000000E-03 0.  1.
         12    1    3    3    0    0 -0.20929343749E+00 -0.23897063028E+01 -0.40003517532E+01  0.46644736151E+01  0.00000000000E+00 0. -1.
</event>
<event>
 7    1  0.2497395E-009  0.4778727E+02  0.7816164E-02  0.1312668E+00
        -11   -1    0    0    0    0  0.00000000000E+00  0.00000000000E+00  0.45593999997E+02  0.45594000000E+02  0.51100000000E-03 0. -1.
         11   -1    0    0    0    0 -0.00000000000E+00 -0.00000000000E+00 -0.45593999997E+02  0.45594000000E+02  0.51100000000E-03 0.  1.
    9900012    2    1    2    0    0 -0.55729652461E+01  0.30689221559E+02  0.30178414073E+02  0.47787274920E+02  0.20000017668E+02 0.  0.
        -12    1    1    2    0    0  0.55729652461E+01 -0.30689221559E+02 -0.30178414073E+02  0.43400725080E+02  0.00000000000E+00 0.  1.
         11    1    3    3    0    0 -0.10564057199E+02  0.21051533687E+02  0.20898714052E+02  0.31488452239E+02  0.51100000000E-03 0. -1.
        -11    1    3    3    0    0  0.56556778725E+01  0.80764893390E+01  0.10348391637E+02  0.14293550362E+02  0.51100000000E-03 0.  1.
         12    1    3    3    0    0 -0.66458591995E+00  0.15611985325E+01 -0.10686916153E+01  0.20052723185E+01  0.00000000000E+00 0. -1.
</event>
<event>
 7    1  0.2497395E-009  0.4778727E+02  0.7816164E-02  0.1312668E+00
        -11   -1    0    0    0    0  0.00000000000E+00  0.00000000000E+00  0.45593999997E+02  0.45594000000E+02  0.51100000000E-03 0. -1.
         11   -1    0    0    0    0 -0.00000000000E+00 -0.00000000000E+00 -0.45593999997E+02  0.45594000000E+02  0.51100000000E-03 0.  1.
    9900012    2    1    2    0    0 -0.16626110655E+02  0.16301200315E+02  0.36626038188E+02  0.47787270046E+02  0.19999995447E+02 0.  0.
        -12    1    1    2    0    0  0.16626110655E+02 -0.16301200315E+02 -0.36626038188E+02  0.43400729954E+02  0.00000000000E+00 0.  1.
         11    1    3    3    0    0 -0.77975471674E+01  0.87879568935E+01  0.10734656799E+02  0.15914232154E+02  0.51100000000E-03 0. -1.
        -11    1    3    3    0    0 -0.11127691436E+02  0.78165034587E+00  0.18585300401E+02  0.21676020973E+02  0.51100000000E-03 0.  1.
        -12    1    3    3    0    0  0.22991279481E+01  0.67315930752E+01  0.73060809876E+01  0.10197016919E+02  0.00000000000E+00 0.  1.
</event>
<event>
 7    1  0.2497395E-009  0.4778731E+02  0.7816164E-02  0.1312668E+00
        -11   -1    0    0    0    0  0.00000000000E+00  0.00000000000E+00  0.45593999997E+02  0.45594000000E+02  0.51100000000E-03 0. -1.
         11   -1    0    0    0    0 -0.00000000000E+00 -0.00000000000E+00 -0.45593999997E+02  0.45594000000E+02  0.51100000000E-03 0.  1.
    9900012    2    1    2    0    0 -0.17396453233E+02 -0.34470791705E+02 -0.19817863306E+02  0.47787311390E+02  0.20000183949E+02 0.  0.
        -12    1    1    2    0    0  0.17396453233E+02  0.34470791705E+02  0.19817863306E+02  0.43400688610E+02  0.00000000000E+00 0.  1.
         11    1    3    3    0    0 -0.13261840453E+02 -0.12624110808E+02 -0.12012444198E+02  0.21898479440E+02  0.51100000000E-03 0. -1.
        -11    1    3    3    0    0 -0.99124771400E+00 -0.11074612186E+02  0.16174217763E+01  0.11235909423E+02  0.51100000000E-03 0.  1.
        -12    1    3    3    0    0 -0.31433650663E+01 -0.10772068710E+02 -0.94228408845E+01  0.14652922527E+02  0.00000000000E+00 0.  1.
</event>
<event>
 7    1  0.2497395E-009  0.4778727E+02  0.7816164E-02  0.1312668E+00
        -11   -1    0    0    0    0  0.00000000000E+00  0.00000000000E+00  0.45593999997E+02  0.45594000000E+02  0.51100000000E-03 0.  1.
         11   -1    0    0    0    0 -0.00000000000E+00 -0.00000000000E+00 -0.45593999997E+02  0.45594000000E+02  0.51100000000E-03 0. -1.
    9900012    2    1    2    0    0 -0.21283245247E+02 -0.21839297101E+02 -0.30881900753E+02  0.47787271663E+02  0.20000002820E+02 0.  0.
        -12    1    1    2    0    0  0.21283245247E+02  0.21839297101E+02  0.30881900753E+02  0.43400728337E+02  0.00000000000E+00 0.  1.
         11    1    3    3    0    0 -0.17571517623E+02 -0.87506876284E+01 -0.21557687391E+02  0.29155902515E+02  0.51100000000E-03 0. -1.
        -11    1    3    3    0    0 -0.45344773242E+00 -0.25080422463E+01  0.16554407127E+01  0.30391404985E+01  0.51100000000E-03 0.  1.
        -12    1    3    3    0    0 -0.32582798915E+01 -0.10580567226E+02 -0.10979654074E+02  0.15592228650E+02  0.00000000000E+00 0.  1.
</event>
<event>
 7    1  0.2497395E-009  0.4778728E+02  0.7816164E-02  0.1312668E+00
        -11   -1    0    0    0    0  0.00000000000E+00  0.00000000000E+00  0.45593999997E+02  0.45594000000E+02  0.51100000000E-03 0.  1.
         11   -1    0    0    0    0 -0.00000000000E+00 -0.00000000000E+00 -0.45593999997E+02  0.45594000000E+02  0.51100000000E-03 0. -1.
    9900012    2    1    2    0    0 -0.36746979712E+02  0.84185889346E+01  0.21503705119E+02  0.47787280058E+02  0.20000041098E+02 0.  0.
        -12    1    1    2    0    0  0.36746979712E+02 -0.84185889346E+01 -0.21503705119E+02  0.43400719942E+02  0.00000000000E+00 0.  1.
         11    1    3    3    0    0 -0.24966691393E+02  0.13841535167E+02  0.18573488407E+02  0.34057278910E+02  0.51100000000E-03 0. -1.
        -11    1    3    3    0    0 -0.25885446675E+01 -0.16205446375E+01 -0.71394078790E+00  0.31363099540E+01  0.51100000000E-03 0.  1.
         12    1    3    3    0    0 -0.91917436515E+01 -0.38024015946E+01  0.36441575001E+01  0.10593691195E+02  0.00000000000E+00 0. -1.
</event>
<event>
 7    1  0.2497395E-009  0.4778727E+02  0.7816164E-02  0.1312668E+00
        -11   -1    0    0    0    0  0.00000000000E+00  0.00000000000E+00  0.45593999997E+02  0.45594000000E+02  0.51100000000E-03 0.  1.
         11   -1    0    0    0    0 -0.00000000000E+00 -0.00000000000E+00 -0.45593999997E+02  0.45594000000E+02  0.51100000000E-03 0. -1.
    9900012    2    1    2    0    0 -0.29239053902E+02  0.11977591512E+02 -0.29752955363E+02  0.47787270463E+02  0.19999997347E+02 0.  0.
        -12    1    1    2    0    0  0.29239053902E+02 -0.11977591512E+02  0.29752955363E+02  0.43400729537E+02  0.00000000000E+00 0.  1.
         11    1    3    3    0    0 -0.11240991526E+02  0.36008696024E+00 -0.19340872210E+02  0.22373173472E+02  0.51100000000E-03 0. -1.
        -11    1    3    3    0    0 -0.12080427283E+02  0.71519842997E+01 -0.19656983233E+01  0.14175738884E+02  0.51100000000E-03 0.  1.
        -12    1    3    3    0    0 -0.59176350935E+01  0.44655202524E+01 -0.84463848300E+01  0.11238358106E+02  0.00000000000E+00 0.  1.
</event>
<event>
 7    1  0.2497395E-009  0.4778727E+02  0.7816164E-02  0.1312668E+00
        -11   -1    0    0    0    0  0.00000000000E+00  0.00000000000E+00  0.45593999997E+02  0.45594000000E+02  0.51100000000E-03 0.  1.
         11   -1    0    0    0    0 -0.00000000000E+00 -0.00000000000E+00 -0.45593999997E+02  0.45594000000E+02  0.51100000000E-03 0. -1.
    9900012    2    1    2    0    0  0.32615497272E+02 -0.24133198865E+02 -0.15409134206E+02  0.47787269975E+02  0.19999995124E+02 0.  0.
        -12    1    1    2    0    0 -0.32615497272E+02  0.24133198865E+02  0.15409134206E+02  0.43400730025E+02  0.00000000000E+00 0.  1.
         11    1    3    3    0    0  0.11577867890E+02 -0.25464762577E+01 -0.86502600074E+01  0.14675100159E+02  0.51100000000E-03 0. -1.
        -11    1    3    3    0    0  0.21594099271E+02 -0.22013780326E+02 -0.78451071144E+01  0.31819135021E+02  0.51100000000E-03 0.  1.
        -12    1    3    3    0    0 -0.55646988955E+00  0.42705771931E+00  0.10862329162E+01  0.12930347953E+01  0.00000000000E+00 0.  1.
</event>
<event>
 7    1  0.2497395E-009  0.4778726E+02  0.7816164E-02  0.1312668E+00
        -11   -1    0    0    0    0  0.00000000000E+00  0.00000000000E+00  0.45593999997E+02  0.45594000000E+02  0.51100000000E-03 0.  1.
         11   -1    0    0    0    0 -0.00000000000E+00 -0.00000000000E+00 -0.45593999997E+02  0.45594000000E+02  0.51100000000E-03 0. -1.
    9900012    2    1    2    0    0 -0.23032888740E+02 -0.13356741770E+02 -0.34274005672E+02  0.47787262918E+02  0.19999962949E+02 0.  0.
        -12    1    1    2    0    0  0.23032888740E+02  0.13356741770E+02  0.34274005672E+02  0.43400737082E+02  0.00000000000E+00 0.  1.
         11    1    3    3    0    0 -0.51829866933E+01 -0.10814585158E+01 -0.12622667731E+02  0.13688120561E+02  0.51100000000E-03 0. -1.
        -11    1    3    3    0    0 -0.85816515913E+01 -0.21812500573E+01 -0.46439659466E+00  0.88666938769E+01  0.51100000000E-03 0.  1.
        -12    1    3    3    0    0 -0.92682504551E+01 -0.10094033197E+02 -0.21186941346E+02  0.25232448480E+02  0.00000000000E+00 0.  1.
</event>
<event>
 7    1  0.2497395E-009  0.4778727E+02  0.7816164E-02  0.1312668E+00
        -11   -1    0    0    0    0  0.00000000000E+00  0.00000000000E+00  0.45593999997E+02  0.45594000000E+02  0.51100000000E-03 0. -1.
         11   -1    0    0    0    0 -0.00000000000E+00 -0.00000000000E+00 -0.45593999997E+02  0.45594000000E+02  0.51100000000E-03 0.  1.
    9900012    2    1    2    0    0 -0.43758247186E+00 -0.30891864675E+02  0.30481544076E+02  0.47787270619E+02  0.19999998062E+02 0.  0.
        -12    1    1    2    0    0  0.43758247186E+00  0.30891864675E+02 -0.30481544076E+02  0.43400729381E+02  0.00000000000E+00 0.  1.
         11    1    3    3    0    0  0.22101487472E+01 -0.12896066061E+02  0.99431215801E+01  0.16433470247E+02  0.51100000000E-03 0. -1.
        -11    1    3    3    0    0  0.47328345116E+01 -0.10273607066E+01  0.22609164915E+01  0.53448045969E+01  0.51100000000E-03 0.  1.
        -12    1    3    3    0    0 -0.73805657307E+01 -0.16968437907E+02  0.18277506004E+02  0.26008995776E+02  0.00000000000E+00 0.  1.
</event>
<event>
 7    1  0.2497395E-009  0.4778727E+02  0.7816164E-02  0.1312668E+00
        -11   -1    0    0    0    0  0.00000000000E+00  0.00000000000E+00  0.45593999997E+02  0.45594000000E+02  0.51100000000E-03 0. -1.
         11   -1    0    0    0    0 -0.00000000000E+00 -0.00000000000E+00 -0.45593999997E+02  0.45594000000E+02  0.51100000000E-03 0.  1.
    9900012    2    1    2    0    0  0.23277398548E+02 -0.29952926497E+02  0.21085731355E+02  0.47787272406E+02  0.20000006208E+02 0.  0.
        -12    1    1    2    0    0 -0.23277398548E+02  0.29952926497E+02 -0.21085731355E+02  0.43400727594E+02  0.00000000000E+00 0.  1.
         11    1    3    3    0    0  0.99571523513E+01 -0.18258781125E+01  0.84878897500E+01  0.13210714837E+02  0.51100000000E-03 0. -1.
        -11    1    3    3    0    0  0.85092564156E+01 -0.25078908065E+02  0.98817687039E+01  0.28266737121E+02  0.51100000000E-03 0.  1.
        -12    1    3    3    0    0  0.48109897815E+01 -0.30481403187E+01  0.27160729014E+01  0.63098204480E+01  0.00000000000E+00 0.  1.
</event>
<event>
 7    1  0.2497395E-009  0.4778727E+02  0.7816164E-02  0.1312668E+00
        -11   -1    0    0    0    0  0.00000000000E+00  0.00000000000E+00  0.45593999997E+02  0.45594000000E+02  0.51100000000E-03 0.  1.
         11   -1    0    0    0    0 -0.00000000000E+00 -0.00000000000E+00 -0.45593999997E+02  0.45594000000E+02  0.51100000000E-03 0. -1.
    9900012    2    1    2    0    0  0.38513088200E+02 -0.25610967418E+01 -0.19844549184E+02  0.47787270610E+02  0.19999998021E+02 0.  0.
        -12    1    1    2    0    0 -0.38513088200E+02  0.25610967418E+01  0.19844549184E+02  0.43400729390E+02  0.00000000000E+00 0.  1.
         11    1    3    3    0    0  0.37774498217E+01 -0.22122794395E+01 -0.30308652929E+01  0.53244203589E+01  0.51100000000E-03 0. -1.
        -11    1    3    3    0    0  0.16429112044E+02 -0.81384951794E+01 -0.39010550324E+01  0.18744840809E+02  0.51100000000E-03 0.  1.
        -12    1    3    3    0    0  0.18306526335E+02  0.77896778771E+01 -0.12912628858E+02  0.23718009442E+02  0.00000000000E+00 0.  1.
</event>
<event>
 7    1  0.2497395E-009  0.4778728E+02  0.7816164E-02  0.1312668E+00
        -11   -1    0    0    0    0  0.00000000000E+00  0.00000000000E+00  0.45593999997E+02  0.45594000000E+02  0.51100000000E-03 0. -1.
         11   -1    0    0    0    0 -0.00000000000E+00 -0.00000000000E+00 -0.45593999997E+02  0.45594000000E+02  0.51100000000E-03 0.  1.
    9900012    2    1    2    0    0  0.11834299364E+02  0.19478796581E+01  0.41710640360E+02  0.47787281160E+02  0.20000046120E+02 0.  0.
        -12    1    1    2    0    0 -0.11834299364E+02 -0.19478796581E+01 -0.41710640360E+02  0.43400718840E+02  0.00000000000E+00 0.  1.
         11    1    3    3    0    0 -0.11219443052E+01  0.54550216967E+01  0.89109221011E+01  0.10508118466E+02  0.51100000000E-03 0. -1.
        -11    1    3    3    0    0  0.10438310603E+02 -0.69460004567E+01  0.18429255621E+02  0.22289968901E+02  0.51100000000E-03 0.  1.
        -12    1    3    3    0    0  0.25179330661E+01  0.34388584182E+01  0.14370462638E+02  0.14989193793E+02  0.00000000000E+00 0.  1.
</event>
<event>
 7    1  0.2497395E-009  0.4778727E+02  0.7816164E-02  0.1312668E+00
        -11   -1    0    0    0    0  0.00000000000E+00  0.00000000000E+00  0.45593999997E+02  0.45594000000E+02  0.51100000000E-03 0.  1.
         11   -1    0    0    0    0 -0.00000000000E+00 -0.00000000000E+00 -0.45593999997E+02  0.45594000000E+02  0.51100000000E-03 0. -1.
    9900012    2    1    2    0    0 -0.19051198886E+01 -0.36674606921E+02 -0.23129355960E+02  0.47787269802E+02  0.19999994333E+02 0.  0.
        -12    1    1    2    0    0  0.19051198886E+01  0.36674606921E+02  0.23129355960E+02  0.43400730198E+02  0.00000000000E+00 0.  1.
         11    1    3    3    0    0 -0.52764619271E+01 -0.24205657970E+01 -0.49150480410E+01  0.76064371917E+01  0.51100000000E-03 0. -1.
        -11    1    3    3    0    0  0.68086509115E+01 -0.19689359517E+02 -0.11212657055E+02  0.23659084596E+02  0.51100000000E-03 0.  1.
         12    1    3    3    0    0 -0.34373088730E+01 -0.14564681607E+02 -0.70016508642E+01  0.16521748014E+02  0.00000000000E+00 0. -1.
</event>
<event>
 7    1  0.2497395E-009  0.4778727E+02  0.7816164E-02  0.1312668E+00
        -11   -1    0    0    0    0  0.00000000000E+00  0.00000000000E+00  0.45593999997E+02  0.45594000000E+02  0.51100000000E-03 0. -1.
         11   -1    0    0    0    0 -0.00000000000E+00 -0.00000000000E+00 -0.45593999997E+02  0.45594000000E+02  0.51100000000E-03 0.  1.
    9900012    2    1    2    0    0 -0.99767534856E+01  0.41162024142E+02  0.94749768344E+01  0.47787273882E+02  0.20000012937E+02 0.  0.
        -12    1    1    2    0    0  0.99767534856E+01 -0.41162024142E+02 -0.94749768344E+01  0.43400726118E+02  0.00000000000E+00 0.  1.
         11    1    3    3    0    0  0.22965527273E+01  0.16234001622E+02  0.75418344794E+01  0.18047056011E+02  0.51100000000E-03 0. -1.
        -11    1    3    3    0    0 -0.11727460374E+02  0.16910300012E+02  0.49336549096E+01  0.21162053878E+02  0.51100000000E-03 0.  1.
        -12    1    3    3    0    0 -0.54584583901E+00  0.80177225080E+01 -0.30005125547E+01  0.85781639928E+01  0.00000000000E+00 0.  1.
</event>
<event>
 7    1  0.2497395E-009  0.4778727E+02  0.7816164E-02  0.1312668E+00
        -11   -1    0    0    0    0  0.00000000000E+00  0.00000000000E+00  0.45593999997E+02  0.45594000000E+02  0.51100000000E-03 0. -1.
         11   -1    0    0    0    0 -0.00000000000E+00 -0.00000000000E+00 -0.45593999997E+02  0.45594000000E+02  0.51100000000E-03 0.  1.
    9900012    2    1    2    0    0 -0.26552493941E+02 -0.30759844280E+02 -0.15245341187E+02  0.47787269792E+02  0.19999994292E+02 0.  0.
        -12    1    1    2    0    0  0.26552493941E+02  0.30759844280E+02  0.15245341187E+02  0.43400730208E+02  0.00000000000E+00 0.  1.
         11    1    3    3    0    0 -0.73639517657E+01 -0.59259733521E+01 -0.10071503926E+02  0.13812318320E+02  0.51100000000E-03 0. -1.
        -11    1    3    3    0    0 -0.19856793778E+02 -0.24396619172E+02 -0.67824521881E+01  0.32179014033E+02  0.51100000000E-03 0.  1.
        -12    1    3    3    0    0  0.66825160289E+00 -0.43725175600E+00  0.16086149273E+01  0.17959374397E+01  0.00000000000E+00 0.  1.
</event>
<event>
 7    1  0.2497395E-009  0.4778727E+02  0.7816164E-02  0.1312668E+00
        -11   -1    0    0    0    0  0.00000000000E+00  0.00000000000E+00  0.45593999997E+02  0.45594000000E+02  0.51100000000E-03 0.  1.
         11   -1    0    0    0    0 -0.00000000000E+00 -0.00000000000E+00 -0.45593999997E+02  0.45594000000E+02  0.51100000000E-03 0. -1.
    9900012    2    1    2    0    0  0.24474087319E+02  0.14879149133E+01 -0.35811011710E+02  0.47787269585E+02  0.19999993345E+02 0.  0.
        -12    1    1    2    0    0 -0.24474087319E+02 -0.14879149133E+01  0.35811011710E+02  0.43400730415E+02  0.00000000000E+00 0.  1.
         11    1    3    3    0    0  0.85994173290E+01 -0.54010970787E+00 -0.23535608025E+02  0.25063250832E+02  0.51100000000E-03 0. -1.
        -11    1    3    3    0    0  0.55761635866E+01  0.43409420059E+01 -0.94451507774E+01  0.11796111703E+02  0.51100000000E-03 0.  1.
         12    1    3    3    0    0  0.10298506404E+02 -0.23129173847E+01 -0.28302529074E+01  0.10927907050E+02  0.00000000000E+00 0. -1.
</event>
<event>
 7    1  0.2497395E-009  0.4778727E+02  0.7816164E-02  0.1312668E+00
        -11   -1    0    0    0    0  0.00000000000E+00  0.00000000000E+00  0.45593999997E+02  0.45594000000E+02  0.51100000000E-03 0.  1.
         11   -1    0    0    0    0 -0.00000000000E+00 -0.00000000000E+00 -0.45593999997E+02  0.45594000000E+02  0.51100000000E-03 0. -1.
    9900012    2    1    2    0    0 -0.17394967029E+02 -0.59587897589E+01 -0.39313240575E+02  0.47787274916E+02  0.20000017650E+02 0.  0.
        -12    1    1    2    0    0  0.17394967029E+02  0.59587897589E+01  0.39313240575E+02  0.43400725084E+02  0.00000000000E+00 0.  1.
         11    1    3    3    0    0 -0.68313913394E+00 -0.50106796180E+00 -0.17554095600E+02  0.17574527612E+02  0.51100000000E-03 0. -1.
        -11    1    3    3    0    0 -0.12605369292E+02 -0.90371989880E+01 -0.16323540906E+02  0.22517199837E+02  0.51100000000E-03 0.  1.
        -12    1    3    3    0    0 -0.41064586029E+01  0.35794771908E+01 -0.54356040693E+01  0.76955474669E+01  0.00000000000E+00 0.  1.
</event>
<event>
 7    1  0.2497395E-009  0.4778727E+02  0.7816164E-02  0.1312668E+00
        -11   -1    0    0    0    0  0.00000000000E+00  0.00000000000E+00  0.45593999997E+02  0.45594000000E+02  0.51100000000E-03 0. -1.
         11   -1    0    0    0    0 -0.00000000000E+00 -0.00000000000E+00 -0.45593999997E+02  0.45594000000E+02  0.51100000000E-03 0.  1.
    9900012    2    1    2    0    0 -0.13972627017E+02 -0.56466418737E+01  0.40700173872E+02  0.47787273930E+02  0.20000013157E+02 0.  0.
        -12    1    1    2    0    0  0.13972627017E+02  0.56466418737E+01 -0.40700173872E+02  0.43400726070E+02  0.00000000000E+00 0.  1.
         11    1    3    3    0    0 -0.75635452523E+01 -0.54068177861E+01  0.83329893633E+01  0.12485175503E+02  0.51100000000E-03 0. -1.
        -11    1    3    3    0    0  0.31492154729E+01 -0.77281030679E-01  0.16336231267E+02  0.16637186743E+02  0.51100000000E-03 0.  1.
         12    1    3    3    0    0 -0.95582972380E+01 -0.16254305697E+00  0.16030953241E+02  0.18664911683E+02  0.00000000000E+00 0. -1.
</event>
<event>
 7    1  0.2497395E-009  0.4778727E+02  0.7816164E-02  0.1312668E+00
        -11   -1    0    0    0    0  0.00000000000E+00  0.00000000000E+00  0.45593999997E+02  0.45594000000E+02  0.51100000000E-03 0. -1.
         11   -1    0    0    0    0 -0.00000000000E+00 -0.00000000000E+00 -0.45593999997E+02  0.45594000000E+02  0.51100000000E-03 0.  1.
    9900012    2    1    2    0    0  0.36480057277E+02 -0.23501691269E+02 -0.70650081665E+00  0.47787271724E+02  0.20000003100E+02 0.  0.
        -12    1    1    2    0    0 -0.36480057277E+02  0.23501691269E+02  0.70650081665E+00  0.43400728276E+02  0.00000000000E+00 0.  1.
         11    1    3    3    0    0  0.53575232479E+01 -0.62166580540E+01 -0.32559689709E+01  0.88289992022E+01  0.51100000000E-03 0. -1.
        -11    1    3    3    0    0  0.26053938072E+02 -0.18960994451E+02  0.57526159042E+01  0.32732546336E+02  0.51100000000E-03 0.  1.
        -12    1    3    3    0    0  0.50685959568E+01  0.16759612356E+01 -0.32031477499E+01  0.62257261861E+01  0.00000000000E+00 0.  1.
</event>
<event>
 7    1  0.2497395E-009  0.4778727E+02  0.7816164E-02  0.1312668E+00
        -11   -1    0    0    0    0  0.00000000000E+00  0.00000000000E+00  0.45593999997E+02  0.45594000000E+02  0.51100000000E-03 0. -1.
         11   -1    0    0    0    0 -0.00000000000E+00 -0.00000000000E+00 -0.45593999997E+02  0.45594000000E+02  0.51100000000E-03 0.  1.
    9900012    2    1    2    0    0  0.36381382060E+02 -0.20834247219E+02 -0.11222857180E+02  0.47787270271E+02  0.19999996474E+02 0.  0.
        -12    1    1    2    0    0 -0.36381382060E+02  0.20834247219E+02  0.11222857180E+02  0.43400729729E+02  0.00000000000E+00 0.  1.
         11    1    3    3    0    0  0.23547467330E+02 -0.80030492357E+01  0.23697112468E+01  0.24982945110E+02  0.51100000000E-03 0. -1.
        -11    1    3    3    0    0  0.64399156022E+01 -0.81357628593E+01 -0.75497636079E+01  0.12832072360E+02  0.51100000000E-03 0.  1.
        -12    1    3    3    0    0  0.63939991274E+01 -0.46954351235E+01 -0.60428048185E+01  0.99722528004E+01  0.00000000000E+00 0.  1.
</event>
<event>
 7    1  0.2497395E-009  0.4778728E+02  0.7816164E-02  0.1312668E+00
        -11   -1    0    0    0    0  0.00000000000E+00  0.00000000000E+00  0.45593999997E+02  0.45594000000E+02  0.51100000000E-03 0.  1.
         11   -1    0    0    0    0 -0.00000000000E+00 -0.00000000000E+00 -0.45593999997E+02  0.45594000000E+02  0.51100000000E-03 0. -1.
    9900012    2    1    2    0    0 -0.62733443621E+01  0.23027484300E+02 -0.36249175999E+02  0.47787278309E+02  0.20000033122E+02 0.  0.
        -12    1    1    2    0    0  0.62733443621E+01 -0.23027484300E+02  0.36249175999E+02  0.43400721691E+02  0.00000000000E+00 0.  1.
         11    1    3    3    0    0 -0.33663608764E+01  0.86926531297E+01 -0.20783201537E+02  0.22777973359E+02  0.51100000000E-03 0. -1.
        -11    1    3    3    0    0 -0.30323841486E+01  0.10443270912E+02 -0.20841278792E+01  0.11072526823E+02  0.51100000000E-03 0.  1.
        -12    1    3    3    0    0  0.12540066288E+00  0.38915602582E+01 -0.13381846583E+02  0.13936778127E+02  0.00000000000E+00 0.  1.
</event>
<event>
 7    1  0.2497395E-009  0.4778727E+02  0.7816164E-02  0.1312668E+00
        -11   -1    0    0    0    0  0.00000000000E+00  0.00000000000E+00  0.45593999997E+02  0.45594000000E+02  0.51100000000E-03 0.  1.
         11   -1    0    0    0    0 -0.00000000000E+00 -0.00000000000E+00 -0.45593999997E+02  0.45594000000E+02  0.51100000000E-03 0. -1.
    9900012    2    1    2    0    0 -0.25965926686E+02 -0.33949436100E+02 -0.75385720928E+01  0.47787266949E+02  0.19999981328E+02 0.  0.
        -12    1    1    2    0    0  0.25965926686E+02  0.33949436100E+02  0.75385720928E+01  0.43400733051E+02  0.00000000000E+00 0.  1.
         11    1    3    3    0    0 -0.83233612550E+01 -0.21144076353E+02  0.27160447887E+01  0.22885086999E+02  0.51100000000E-03 0. -1.
        -11    1    3    3    0    0 -0.15846830637E+02 -0.12628165975E+02 -0.74946507998E+01  0.21604684862E+02  0.51100000000E-03 0.  1.
         12    1    3    3    0    0 -0.17957347942E+01 -0.17719377169E+00 -0.27599660816E+01  0.32974950880E+01  0.00000000000E+00 0. -1.
</event>
<event>
 7    1  0.2497395E-009  0.4778727E+02  0.7816164E-02  0.1312668E+00
        -11   -1    0    0    0    0  0.00000000000E+00  0.00000000000E+00  0.45593999997E+02  0.45594000000E+02  0.51100000000E-03 0.  1.
         11   -1    0    0    0    0 -0.00000000000E+00 -0.00000000000E+00 -0.45593999997E+02  0.45594000000E+02  0.51100000000E-03 0. -1.
    9900012    2    1    2    0    0  0.91039293371E+01 -0.12648389977E+02 -0.40506292173E+02  0.47787274154E+02  0.20000014176E+02 0.  0.
        -12    1    1    2    0    0 -0.91039293371E+01  0.12648389977E+02  0.40506292173E+02  0.43400725846E+02  0.00000000000E+00 0.  1.
         11    1    3    3    0    0  0.65693679405E+00  0.56207266848E+00 -0.14595452148E+01  0.16963973978E+01  0.51100000000E-03 0. -1.
        -11    1    3    3    0    0  0.11877665715E+02 -0.16094836649E+02 -0.31571522256E+02  0.37374907724E+02  0.51100000000E-03 0.  1.
        -12    1    3    3    0    0 -0.34306731717E+01  0.28843740038E+01 -0.74752247024E+01  0.87159690314E+01  0.00000000000E+00 0.  1.
</event>
<event>
 7    1  0.2497395E-009  0.4778727E+02  0.7816164E-02  0.1312668E+00
        -11   -1    0    0    0    0  0.00000000000E+00  0.00000000000E+00  0.45593999997E+02  0.45594000000E+02  0.51100000000E-03 0.  1.
         11   -1    0    0    0    0 -0.00000000000E+00 -0.00000000000E+00 -0.45593999997E+02  0.45594000000E+02  0.51100000000E-03 0. -1.
    9900012    2    1    2    0    0 -0.27046147581E+01  0.10386330618E+02 -0.42052732841E+02  0.47787272540E+02  0.20000006819E+02 0.  0.
        -12    1    1    2    0    0  0.27046147581E+01 -0.10386330618E+02  0.42052732841E+02  0.43400727460E+02  0.00000000000E+00 0.  1.
         11    1    3    3    0    0 -0.91338398375E+01  0.38708261131E+01 -0.15513522684E+02  0.18414117174E+02  0.51100000000E-03 0. -1.
        -11    1    3    3    0    0  0.30930670993E+01 -0.17768500048E+01 -0.91617866687E+01  0.98317137491E+01  0.51100000000E-03 0.  1.
         12    1    3    3    0    0  0.33361579801E+01  0.82923545100E+01 -0.17377423488E+02  0.19541441617E+02  0.00000000000E+00 0. -1.
</event>
<event>
 7    1  0.2497395E-009  0.4778727E+02  0.7816164E-02  0.1312668E+00
        -11   -1    0    0    0    0  0.00000000000E+00  0.00000000000E+00  0.45593999997E+02  0.45594000000E+02  0.51100000000E-03 0.  1.
         11   -1    0    0    0    0 -0.00000000000E+00 -0.00000000000E+00 -0.45593999997E+02  0.45594000000E+02  0.51100000000E-03 0. -1.
    9900012    2    1    2    0    0  0.21225947636E+02  0.21874675879E+02 -0.30896292272E+02  0.47787272195E+02  0.20000005244E+02 0.  0.
        -12    1    1    2    0    0 -0.21225947636E+02 -0.21874675879E+02  0.30896292272E+02  0.43400727805E+02  0.00000000000E+00 0.  1.
         11    1    3    3    0    0  0.12154663180E+02  0.21135249502E+02 -0.22502877523E+02  0.33178518738E+02  0.51100000000E-03 0. -1.
        -11    1    3    3    0    0  0.10060282377E+01  0.20402847527E+01 -0.54832505876E+01  0.59364039582E+01  0.51100000000E-03 0.  1.
         12    1    3    3    0    0  0.80652562182E+01 -0.13008583758E+01 -0.29101641618E+01  0.86723494987E+01  0.00000000000E+00 0. -1.
</event>
<event>
 7    1  0.2497395E-009  0.4778727E+02  0.7816164E-02  0.1312668E+00
        -11   -1    0    0    0    0  0.00000000000E+00  0.00000000000E+00  0.45593999997E+02  0.45594000000E+02  0.51100000000E-03 0. -1.
         11   -1    0    0    0    0 -0.00000000000E+00 -0.00000000000E+00 -0.45593999997E+02  0.45594000000E+02  0.51100000000E-03 0.  1.
    9900012    2    1    2    0    0  0.15145663202E+02  0.20265258099E+02  0.35264025317E+02  0.47787270960E+02  0.19999999616E+02 0.  0.
        -12    1    1    2    0    0 -0.15145663202E+02 -0.20265258099E+02 -0.35264025317E+02  0.43400729040E+02  0.00000000000E+00 0.  1.
         11    1    3    3    0    0  0.15766271122E+02  0.20531137034E+02  0.29978752282E+02  0.39608439525E+02  0.51100000000E-03 0. -1.
        -11    1    3    3    0    0 -0.93806758644E+00  0.15138128265E+01 -0.70978955028E+00  0.19171336775E+01  0.51100000000E-03 0.  1.
         12    1    3    3    0    0  0.31745966688E+00 -0.17796917617E+01  0.59950625853E+01  0.62616977577E+01  0.00000000000E+00 0. -1.
</event>
<event>
 7    1  0.2497395E-009  0.4778727E+02  0.7816164E-02  0.1312668E+00
        -11   -1    0    0    0    0  0.00000000000E+00  0.00000000000E+00  0.45593999997E+02  0.45594000000E+02  0.51100000000E-03 0.  1.
         11   -1    0    0    0    0 -0.00000000000E+00 -0.00000000000E+00 -0.45593999997E+02  0.45594000000E+02  0.51100000000E-03 0. -1.
    9900012    2    1    2    0    0 -0.11769998389E+02  0.86463992843E+01 -0.40869672216E+02  0.47787272014E+02  0.20000004422E+02 0.  0.
        -12    1    1    2    0    0  0.11769998389E+02 -0.86463992843E+01  0.40869672216E+02  0.43400727986E+02  0.00000000000E+00 0.  1.
         11    1    3    3    0    0 -0.26896129082E+01  0.11403205425E+02 -0.24603212181E+02  0.27250415803E+02  0.51100000000E-03 0.  1.
        -11    1    3    3    0    0 -0.44852135278E+01 -0.53668197857E+00 -0.12648557184E+01  0.46909517356E+01  0.51100000000E-03 0. -1.
         12    1    3    3    0    0 -0.45951719529E+01 -0.22201241624E+01 -0.15001604317E+02  0.15845904476E+02  0.00000000000E+00 0. -1.
</event>
<event>
 7    1  0.2497395E-009  0.4778727E+02  0.7816164E-02  0.1312668E+00
        -11   -1    0    0    0    0  0.00000000000E+00  0.00000000000E+00  0.45593999997E+02  0.45594000000E+02  0.51100000000E-03 0. -1.
         11   -1    0    0    0    0 -0.00000000000E+00 -0.00000000000E+00 -0.45593999997E+02  0.45594000000E+02  0.51100000000E-03 0.  1.
    9900012    2    1    2    0    0  0.32421826930E+02  0.22676294403E+02  0.17839108317E+02  0.47787274489E+02  0.20000015704E+02 0.  0.
        -12    1    1    2    0    0 -0.32421826930E+02 -0.22676294403E+02 -0.17839108317E+02  0.43400725511E+02  0.00000000000E+00 0.  1.
         11    1    3    3    0    0  0.32617565424E+01 -0.13433304816E+01 -0.16321877448E-01  0.35275854617E+01  0.51100000000E-03 0. -1.
        -11    1    3    3    0    0  0.28926735618E+02  0.25337512135E+02  0.18612503352E+02  0.42722018164E+02  0.51100000000E-03 0.  1.
        -12    1    3    3    0    0  0.23333477000E+00 -0.13178872503E+01 -0.75707315703E+00  0.15376708635E+01  0.00000000000E+00 0.  1.
</event>
<event>
 7    1  0.2497395E-009  0.4778728E+02  0.7816164E-02  0.1312668E+00
        -11   -1    0    0    0    0  0.00000000000E+00  0.00000000000E+00  0.45593999997E+02  0.45594000000E+02  0.51100000000E-03 0.  1.
         11   -1    0    0    0    0 -0.00000000000E+00 -0.00000000000E+00 -0.45593999997E+02  0.45594000000E+02  0.51100000000E-03 0. -1.
    9900012    2    1    2    0    0 -0.24174283920E+02  0.21146155350E+02 -0.29190179243E+02  0.47787280497E+02  0.20000043099E+02 0.  0.
        -12    1    1    2    0    0  0.24174283920E+02 -0.21146155350E+02  0.29190179243E+02  0.43400719503E+02  0.00000000000E+00 0.  1.
         11    1    3    3    0    0 -0.13818754628E+02  0.19442385196E+02 -0.17863410793E+02  0.29800432329E+02  0.51100000000E-03 0.  1.
        -11    1    3    3    0    0 -0.72291841305E+01 -0.24604681944E+01 -0.30810002280E+01  0.82345351778E+01  0.51100000000E-03 0. -1.
        -12    1    3    3    0    0 -0.31263451615E+01  0.41642383485E+01 -0.82457682225E+01  0.97523129909E+01  0.00000000000E+00 0.  1.
</event>
<event>
 7    1  0.2497395E-009  0.4778728E+02  0.7816164E-02  0.1312668E+00
        -11   -1    0    0    0    0  0.00000000000E+00  0.00000000000E+00  0.45593999997E+02  0.45594000000E+02  0.51100000000E-03 0. -1.
         11   -1    0    0    0    0 -0.00000000000E+00 -0.00000000000E+00 -0.45593999997E+02  0.45594000000E+02  0.51100000000E-03 0.  1.
    9900012    2    1    2    0    0 -0.57988196400E+01  0.39595086253E+02  0.16799566875E+02  0.47787278672E+02  0.20000034777E+02 0.  0.
        -12    1    1    2    0    0  0.57988196400E+01 -0.39595086253E+02 -0.16799566875E+02  0.43400721328E+02  0.00000000000E+00 0.  1.
         11    1    3    3    0    0 -0.63189646170E+00  0.42148154157E+01  0.65219166495E+01  0.77909793461E+01  0.51100000000E-03 0. -1.
        -11    1    3    3    0    0  0.48355821844E+01  0.10543046256E+02  0.53394453833E+01  0.12769038989E+02  0.51100000000E-03 0.  1.
        -12    1    3    3    0    0 -0.10002505363E+02  0.24837224581E+02  0.49382048418E+01  0.27227260337E+02  0.00000000000E+00 0.  1.
</event>
<event>
 7    1  0.2497395E-009  0.4778727E+02  0.7816164E-02  0.1312668E+00
        -11   -1    0    0    0    0  0.00000000000E+00  0.00000000000E+00  0.45593999997E+02  0.45594000000E+02  0.51100000000E-03 0. -1.
         11   -1    0    0    0    0 -0.00000000000E+00 -0.00000000000E+00 -0.45593999997E+02  0.45594000000E+02  0.51100000000E-03 0.  1.
    9900012    2    1    2    0    0  0.22588228421E+01  0.36241999764E+02  0.23770534398E+02  0.47787272666E+02  0.20000007395E+02 0.  0.
        -12    1    1    2    0    0 -0.22588228421E+01 -0.36241999764E+02 -0.23770534398E+02  0.43400727334E+02  0.00000000000E+00 0.  1.
         11    1    3    3    0    0 -0.39420492807E+01  0.31677188184E+02  0.23555733484E+02  0.39671861363E+02  0.51100000000E-03 0. -1.
        -11    1    3    3    0    0  0.44741446587E+01  0.17516869740E+01  0.29222534760E+00  0.48137068458E+01  0.51100000000E-03 0.  1.
         12    1    3    3    0    0  0.17267274641E+01  0.28131246059E+01 -0.77424433278E-01  0.33017044578E+01  0.00000000000E+00 0. -1.
</event>
<event>
 7    1  0.2497395E-009  0.4778728E+02  0.7816164E-02  0.1312668E+00
        -11   -1    0    0    0    0  0.00000000000E+00  0.00000000000E+00  0.45593999997E+02  0.45594000000E+02  0.51100000000E-03 0.  1.
         11   -1    0    0    0    0 -0.00000000000E+00 -0.00000000000E+00 -0.45593999997E+02  0.45594000000E+02  0.51100000000E-03 0. -1.
    9900012    2    1    2    0    0 -0.19070917129E+02  0.10150519146E+02 -0.37641597431E+02  0.47787276778E+02  0.20000026139E+02 0.  0.
        -12    1    1    2    0    0  0.19070917129E+02 -0.10150519146E+02  0.37641597431E+02  0.43400723222E+02  0.00000000000E+00 0.  1.
         11    1    3    3    0    0 -0.15598272967E+02  0.15459240570E+01 -0.26137447592E+02  0.30477240158E+02  0.51100000000E-03 0. -1.
        -11    1    3    3    0    0  0.29780074568E+01  0.40385489428E+01 -0.48510607518E+01  0.69793407035E+01  0.51100000000E-03 0.  1.
         12    1    3    3    0    0 -0.64506516185E+01  0.45660461460E+01 -0.66530890876E+01  0.10330695916E+02  0.00000000000E+00 0. -1.
</event>
<event>
 7    1  0.2497395E-009  0.4778727E+02  0.7816164E-02  0.1312668E+00
        -11   -1    0    0    0    0  0.00000000000E+00  0.00000000000E+00  0.45593999997E+02  0.45594000000E+02  0.51100000000E-03 0.  1.
         11   -1    0    0    0    0 -0.00000000000E+00 -0.00000000000E+00 -0.45593999997E+02  0.45594000000E+02  0.51100000000E-03 0. -1.
    9900012    2    1    2    0    0 -0.16655077239E+01  0.14502063286E+02 -0.40872235489E+02  0.47787269713E+02  0.19999993931E+02 0.  0.
        -12    1    1    2    0    0  0.16655077239E+01 -0.14502063286E+02  0.40872235489E+02  0.43400730287E+02  0.00000000000E+00 0.  1.
         11    1    3    3    0    0 -0.51483868918E+01  0.39315682067E+01 -0.27515215917E+02  0.28267476424E+02  0.51100000000E-03 0. -1.
        -11    1    3    3    0    0 -0.13434011364E+01  0.75272026755E+01 -0.41812206747E+01  0.87147067261E+01  0.51100000000E-03 0.  1.
        -12    1    3    3    0    0  0.48262803043E+01  0.30432924040E+01 -0.91757988971E+01  0.10805086563E+02  0.00000000000E+00 0.  1.
</event>
<event>
 7    1  0.2497395E-009  0.4778726E+02  0.7816164E-02  0.1312668E+00
        -11   -1    0    0    0    0  0.00000000000E+00  0.00000000000E+00  0.45593999997E+02  0.45594000000E+02  0.51100000000E-03 0.  1.
         11   -1    0    0    0    0 -0.00000000000E+00 -0.00000000000E+00 -0.45593999997E+02  0.45594000000E+02  0.51100000000E-03 0. -1.
    9900012    2    1    2    0    0  0.28050184367E+01  0.13991222359E+02 -0.40987819991E+02  0.47787264763E+02  0.19999971361E+02 0.  0.
        -12    1    1    2    0    0 -0.28050184367E+01 -0.13991222359E+02  0.40987819991E+02  0.43400735237E+02  0.00000000000E+00 0.  1.
         11    1    3    3    0    0 -0.66154989796E+01  0.10141186523E+01 -0.16703298424E+02  0.17994261360E+02  0.51100000000E-03 0. -1.
        -11    1    3    3    0    0  0.39839216452E+01  0.56916442692E+01 -0.52793587952E+01  0.87257134787E+01  0.51100000000E-03 0.  1.
         12    1    3    3    0    0  0.54365957712E+01  0.72854594372E+01 -0.19005162771E+02  0.21067289924E+02  0.00000000000E+00 0. -1.
</event>
<event>
 7    1  0.2497395E-009  0.4778727E+02  0.7816164E-02  0.1312668E+00
        -11   -1    0    0    0    0  0.00000000000E+00  0.00000000000E+00  0.45593999997E+02  0.45594000000E+02  0.51100000000E-03 0.  1.
         11   -1    0    0    0    0 -0.00000000000E+00 -0.00000000000E+00 -0.45593999997E+02  0.45594000000E+02  0.51100000000E-03 0. -1.
    9900012    2    1    2    0    0 -0.75578080758E+01  0.26409900193E+02 -0.33600892387E+02  0.47787271201E+02  0.20000000713E+02 0.  0.
        -12    1    1    2    0    0  0.75578080758E+01 -0.26409900193E+02  0.33600892387E+02  0.43400728799E+02  0.00000000000E+00 0.  1.
         11    1    3    3    0    0  0.84044136031E+00  0.10160827788E+02 -0.82810115870E+01  0.13134835978E+02  0.51100000000E-03 0. -1.
        -11    1    3    3    0    0 -0.81039296036E+01  0.17868109776E+02 -0.26242385706E+02  0.32765924827E+02  0.51100000000E-03 0.  1.
        -12    1    3    3    0    0 -0.29431983258E+00 -0.16190373704E+01  0.92250490612E+00  0.18865103955E+01  0.00000000000E+00 0.  1.
</event>
<event>
 7    1  0.2497395E-009  0.4778727E+02  0.7816164E-02  0.1312668E+00
        -11   -1    0    0    0    0  0.00000000000E+00  0.00000000000E+00  0.45593999997E+02  0.45594000000E+02  0.51100000000E-03 0. -1.
         11   -1    0    0    0    0 -0.00000000000E+00 -0.00000000000E+00 -0.45593999997E+02  0.45594000000E+02  0.51100000000E-03 0.  1.
    9900012    2    1    2    0    0 -0.43533069932E+01 -0.19811231699E+02  0.38369087917E+02  0.47787273153E+02  0.20000009614E+02 0.  0.
        -12    1    1    2    0    0  0.43533069932E+01  0.19811231699E+02 -0.38369087917E+02  0.43400726847E+02  0.00000000000E+00 0.  1.
         11    1    3    3    0    0 -0.10732648436E+01 -0.66735744686E+01  0.14338131679E+02  0.15851514563E+02  0.51100000000E-03 0. -1.
        -11    1    3    3    0    0  0.40131207841E+01 -0.36890974221E+01  0.17501224724E+02  0.18330505866E+02  0.51100000000E-03 0.  1.
        -12    1    3    3    0    0 -0.72931629337E+01 -0.94485598088E+01  0.65297315142E+01  0.13605252724E+02  0.00000000000E+00 0.  1.
</event>
<event>
 7    1  0.2497395E-009  0.4778727E+02  0.7816164E-02  0.1312668E+00
        -11   -1    0    0    0    0  0.00000000000E+00  0.00000000000E+00  0.45593999997E+02  0.45594000000E+02  0.51100000000E-03 0.  1.
         11   -1    0    0    0    0 -0.00000000000E+00 -0.00000000000E+00 -0.45593999997E+02  0.45594000000E+02  0.51100000000E-03 0. -1.
    9900012    2    1    2    0    0  0.28777906424E+02 -0.27864448299E+02 -0.16704127072E+02  0.47787271453E+02  0.20000001864E+02 0.  0.
        -12    1    1    2    0    0 -0.28777906424E+02  0.27864448299E+02  0.16704127072E+02  0.43400728547E+02  0.00000000000E+00 0.  1.
         11    1    3    3    0    0  0.11845811102E+02 -0.13167665017E+02 -0.12029904052E+02  0.21410960614E+02  0.51100000000E-03 0. -1.
        -11    1    3    3    0    0 -0.10823730886E+01 -0.12415712343E+00  0.19878787367E+01  0.22668499349E+01  0.51100000000E-03 0.  1.
        -12    1    3    3    0    0  0.18014468410E+02 -0.14572626158E+02 -0.66621017572E+01  0.24109460904E+02  0.00000000000E+00 0.  1.
</event>
<event>
 7    1  0.2497395E-009  0.4778726E+02  0.7816164E-02  0.1312668E+00
        -11   -1    0    0    0    0  0.00000000000E+00  0.00000000000E+00  0.45593999997E+02  0.45594000000E+02  0.51100000000E-03 0.  1.
         11   -1    0    0    0    0 -0.00000000000E+00 -0.00000000000E+00 -0.45593999997E+02  0.45594000000E+02  0.51100000000E-03 0. -1.
    9900012    2    1    2    0    0 -0.10460382583E+02 -0.28581819763E+02 -0.30940003946E+02  0.47787264189E+02  0.19999968743E+02 0.  0.
        -12    1    1    2    0    0  0.10460382583E+02  0.28581819763E+02  0.30940003946E+02  0.43400735811E+02  0.00000000000E+00 0.  1.
         11    1    3    3    0    0 -0.57494039254E+01 -0.44398968756E+00 -0.29040538040E+01  0.64564929410E+01  0.51100000000E-03 0.  1.
        -11    1    3    3    0    0  0.24271736716E+01 -0.16679020891E+02 -0.16168157129E+02  0.23355731954E+02  0.51100000000E-03 0. -1.
        -12    1    3    3    0    0 -0.71381523296E+01 -0.11458809185E+02 -0.11867793013E+02  0.17975039294E+02  0.00000000000E+00 0.  1.
</event>
<event>
 7    1  0.2497395E-009  0.4778727E+02  0.7816164E-02  0.1312668E+00
        -11   -1    0    0    0    0  0.00000000000E+00  0.00000000000E+00  0.45593999997E+02  0.45594000000E+02  0.51100000000E-03 0.  1.
         11   -1    0    0    0    0 -0.00000000000E+00 -0.00000000000E+00 -0.45593999997E+02  0.45594000000E+02  0.51100000000E-03 0. -1.
    9900012    2    1    2    0    0  0.24319847807E+02  0.58278119633E+01 -0.35471183178E+02  0.47787271600E+02  0.20000002532E+02 0.  0.
        -12    1    1    2    0    0 -0.24319847807E+02 -0.58278119633E+01  0.35471183178E+02  0.43400728400E+02  0.00000000000E+00 0.  1.
         11    1    3    3    0    0  0.14754330887E+02 -0.53552644327E+01 -0.14892239349E+02  0.21636726420E+02  0.51100000000E-03 0. -1.
        -11    1    3    3    0    0 -0.10061240246E+01  0.12627514659E+01 -0.25131409316E+01  0.29870896238E+01  0.51100000000E-03 0.  1.
         12    1    3    3    0    0  0.10571640945E+02  0.99203249301E+01 -0.18065802897E+02  0.23163455556E+02  0.00000000000E+00 0. -1.
</event>
<event>
 7    1  0.2497395E-009  0.4778727E+02  0.7816164E-02  0.1312668E+00
        -11   -1    0    0    0    0  0.00000000000E+00  0.00000000000E+00  0.45593999997E+02  0.45594000000E+02  0.51100000000E-03 0.  1.
         11   -1    0    0    0    0 -0.00000000000E+00 -0.00000000000E+00 -0.45593999997E+02  0.45594000000E+02  0.51100000000E-03 0. -1.
    9900012    2    1    2    0    0  0.39243949002E+01 -0.17077900643E+02 -0.39706015459E+02  0.47787271558E+02  0.20000002341E+02 0.  0.
        -12    1    1    2    0    0 -0.39243949002E+01  0.17077900643E+02  0.39706015459E+02  0.43400728442E+02  0.00000000000E+00 0.  1.
         11    1    3    3    0    0  0.16748874897E+01 -0.21618785354E+01 -0.65844920378E+00  0.28129206388E+01  0.51100000000E-03 0. -1.
        -11    1    3    3    0    0  0.30319611308E+01 -0.17904270278E+02 -0.27010420078E+02  0.32547173080E+02  0.51100000000E-03 0.  1.
        -12    1    3    3    0    0 -0.78245372028E+00  0.29882481699E+01 -0.12037146177E+02  0.12427177839E+02  0.00000000000E+00 0.  1.
</event>
<event>
 7    1  0.2497395E-009  0.4778727E+02  0.7816164E-02  0.1312668E+00
        -11   -1    0    0    0    0  0.00000000000E+00  0.00000000000E+00  0.45593999997E+02  0.45594000000E+02  0.51100000000E-03 0.  1.
         11   -1    0    0    0    0 -0.00000000000E+00 -0.00000000000E+00 -0.45593999997E+02  0.45594000000E+02  0.51100000000E-03 0. -1.
    9900012    2    1    2    0    0  0.15106022635E+02 -0.77294422644E+00 -0.40679653057E+02  0.47787268031E+02  0.19999986261E+02 0.  0.
        -12    1    1    2    0    0 -0.15106022635E+02  0.77294422644E+00  0.40679653057E+02  0.43400731969E+02  0.00000000000E+00 0.  1.
         11    1    3    3    0    0  0.93927385607E+01 -0.40118915205E+01 -0.19540681974E+02  0.22048969670E+02  0.51100000000E-03 0. -1.
        -11    1    3    3    0    0  0.65150411823E+01  0.76225718323E+01 -0.16482143591E+02  0.19292755649E+02  0.51100000000E-03 0.  1.
         12    1    3    3    0    0 -0.80175710810E+00 -0.43836245383E+01 -0.46568274919E+01  0.64455427113E+01  0.00000000000E+00 0. -1.
</event>
<event>
 7    1  0.2497395E-009  0.4778727E+02  0.7816164E-02  0.1312668E+00
        -11   -1    0    0    0    0  0.00000000000E+00  0.00000000000E+00  0.45593999997E+02  0.45594000000E+02  0.51100000000E-03 0.  1.
         11   -1    0    0    0    0 -0.00000000000E+00 -0.00000000000E+00 -0.45593999997E+02  0.45594000000E+02  0.51100000000E-03 0. -1.
    9900012    2    1    2    0    0 -0.80496067485E+01 -0.37669431224E+02 -0.19996028026E+02  0.47787270117E+02  0.19999995772E+02 0.  0.
        -12    1    1    2    0    0  0.80496067485E+01  0.37669431224E+02  0.19996028026E+02  0.43400729883E+02  0.00000000000E+00 0.  1.
         11    1    3    3    0    0 -0.60693123675E+01 -0.78923902484E+01 -0.11961013584E+02  0.15562526230E+02  0.51100000000E-03 0. -1.
        -11    1    3    3    0    0 -0.49059601200E+01 -0.20236816858E+02 -0.29687287414E+01  0.21033557756E+02  0.51100000000E-03 0.  1.
         12    1    3    3    0    0  0.29256657390E+01 -0.95402241175E+01 -0.50662857000E+01  0.11191186131E+02  0.00000000000E+00 0. -1.
</event>
<event>
 7    1  0.2497395E-009  0.4778728E+02  0.7816164E-02  0.1312668E+00
        -11   -1    0    0    0    0  0.00000000000E+00  0.00000000000E+00  0.45593999997E+02  0.45594000000E+02  0.51100000000E-03 0. -1.
         11   -1    0    0    0    0 -0.00000000000E+00 -0.00000000000E+00 -0.45593999997E+02  0.45594000000E+02  0.51100000000E-03 0.  1.
    9900012    2    1    2    0    0 -0.41644877847E+02  0.72289700757E+00  0.12198544354E+02  0.47787275175E+02  0.20000018834E+02 0.  0.
        -12    1    1    2    0    0  0.41644877847E+02 -0.72289700757E+00 -0.12198544354E+02  0.43400724825E+02  0.00000000000E+00 0.  1.
         11    1    3    3    0    0 -0.22216414162E+02  0.44515232832E+01  0.11491480166E+02  0.25405496146E+02  0.51100000000E-03 0. -1.
        -11    1    3    3    0    0 -0.16355481235E+02 -0.63566745995E+00 -0.30221257351E+01  0.16644491094E+02  0.51100000000E-03 0.  1.
        -12    1    3    3    0    0 -0.30729824495E+01 -0.30929588156E+01  0.37291899227E+01  0.57372879350E+01  0.00000000000E+00 0.  1.
</event>
<event>
 7    1  0.2497395E-009  0.4778727E+02  0.7816164E-02  0.1312668E+00
        -11   -1    0    0    0    0  0.00000000000E+00  0.00000000000E+00  0.45593999997E+02  0.45594000000E+02  0.51100000000E-03 0.  1.
         11   -1    0    0    0    0 -0.00000000000E+00 -0.00000000000E+00 -0.45593999997E+02  0.45594000000E+02  0.51100000000E-03 0. -1.
    9900012    2    1    2    0    0  0.10808372723E+02 -0.30011516834E+02 -0.29429763785E+02  0.47787273508E+02  0.20000011232E+02 0.  0.
        -12    1    1    2    0    0 -0.10808372723E+02  0.30011516834E+02  0.29429763785E+02  0.43400726492E+02  0.00000000000E+00 0.  1.
         11    1    3    3    0    0  0.11971746608E+02 -0.11867871409E+02 -0.55711818893E+01  0.17754074364E+02  0.51100000000E-03 0. -1.
        -11    1    3    3    0    0 -0.14861229216E+01 -0.12546735021E+02 -0.16373625428E+02  0.20681506980E+02  0.51100000000E-03 0.  1.
        -12    1    3    3    0    0  0.32274903605E+00 -0.55969104043E+01 -0.74849564670E+01  0.93516921638E+01  0.00000000000E+00 0.  1.
</event>
<event>
 7    1  0.2497395E-009  0.4778727E+02  0.7816164E-02  0.1312668E+00
        -11   -1    0    0    0    0  0.00000000000E+00  0.00000000000E+00  0.45593999997E+02  0.45594000000E+02  0.51100000000E-03 0.  1.
         11   -1    0    0    0    0 -0.00000000000E+00 -0.00000000000E+00 -0.45593999997E+02  0.45594000000E+02  0.51100000000E-03 0. -1.
    9900012    2    1    2    0    0 -0.27555671925E+02  0.26318991928E+02 -0.20775444304E+02  0.47787268700E+02  0.19999989309E+02 0.  0.
        -12    1    1    2    0    0  0.27555671925E+02 -0.26318991928E+02  0.20775444304E+02  0.43400731300E+02  0.00000000000E+00 0.  1.
         11    1    3    3    0    0 -0.86305619835E+01  0.49896726119E+01 -0.35633973226E+01  0.10586842479E+02  0.51100000000E-03 0. -1.
        -11    1    3    3    0    0 -0.20703913258E+02  0.13117732686E+02 -0.13836957660E+02  0.28145840413E+02  0.51100000000E-03 0.  1.
        -12    1    3    3    0    0  0.17788033164E+01  0.82115866302E+01 -0.33750893214E+01  0.90545858078E+01  0.00000000000E+00 0.  1.
</event>
<event>
 7    1  0.2497395E-009  0.4778727E+02  0.7816164E-02  0.1312668E+00
        -11   -1    0    0    0    0  0.00000000000E+00  0.00000000000E+00  0.45593999997E+02  0.45594000000E+02  0.51100000000E-03 0.  1.
         11   -1    0    0    0    0 -0.00000000000E+00 -0.00000000000E+00 -0.45593999997E+02  0.45594000000E+02  0.51100000000E-03 0. -1.
    9900012    2    1    2    0    0  0.14179995024E+02 -0.28431353670E+02  0.29567031859E+02  0.47787268401E+02  0.19999987945E+02 0.  0.
        -12    1    1    2    0    0 -0.14179995024E+02  0.28431353670E+02 -0.29567031859E+02  0.43400731599E+02  0.00000000000E+00 0.  1.
         11    1    3    3    0    0  0.70808183135E+01 -0.12534043613E+02  0.14247230007E+01  0.14466169955E+02  0.51100000000E-03 0.  1.
        -11    1    3    3    0    0  0.59114337870E+01 -0.15473305306E+02  0.25767981787E+02  0.30632615170E+02  0.51100000000E-03 0. -1.
        -12    1    3    3    0    0  0.11877429234E+01 -0.42400475174E+00  0.23743270714E+01  0.26884832757E+01  0.00000000000E+00 0.  1.
</event>
<event>
 7    1  0.2497395E-009  0.4778726E+02  0.7816164E-02  0.1312668E+00
        -11   -1    0    0    0    0  0.00000000000E+00  0.00000000000E+00  0.45593999997E+02  0.45594000000E+02  0.51100000000E-03 0.  1.
         11   -1    0    0    0    0 -0.00000000000E+00 -0.00000000000E+00 -0.45593999997E+02  0.45594000000E+02  0.51100000000E-03 0. -1.
    9900012    2    1    2    0    0  0.16277654487E+02  0.35889324326E+02 -0.18182909816E+02  0.47787264458E+02  0.19999969971E+02 0.  0.
        -12    1    1    2    0    0 -0.16277654487E+02 -0.35889324326E+02  0.18182909816E+02  0.43400735542E+02  0.00000000000E+00 0.  1.
         11    1    3    3    0    0  0.83161493646E+01  0.17944331272E+02 -0.28090913596E+01  0.19976194822E+02  0.51100000000E-03 0. -1.
        -11    1    3    3    0    0 -0.20004250359E+01  0.12375818978E+01 -0.55314485249E+01  0.60108428962E+01  0.51100000000E-03 0.  1.
        -12    1    3    3    0    0  0.99619301585E+01  0.16707411156E+02 -0.98423699315E+01  0.21800226740E+02  0.00000000000E+00 0.  1.
</event>
<event>
 7    1  0.2497395E-009  0.4778727E+02  0.7816164E-02  0.1312668E+00
        -11   -1    0    0    0    0  0.00000000000E+00  0.00000000000E+00  0.45593999997E+02  0.45594000000E+02  0.51100000000E-03 0. -1.
         11   -1    0    0    0    0 -0.00000000000E+00 -0.00000000000E+00 -0.45593999997E+02  0.45594000000E+02  0.51100000000E-03 0.  1.
    9900012    2    1    2    0    0  0.25191883705E+02  0.32595211884E+02  0.13658124340E+02  0.47787271862E+02  0.20000003729E+02 0.  0.
        -12    1    1    2    0    0 -0.25191883705E+02 -0.32595211884E+02 -0.13658124340E+02  0.43400728138E+02  0.00000000000E+00 0.  1.
         11    1    3    3    0    0  0.24209740314E+02  0.28748047412E+02  0.58754820197E+01  0.38040544756E+02  0.51100000000E-03 0. -1.
        -11    1    3    3    0    0 -0.62084172922E+00 -0.74400395983E+00  0.17259408277E+01  0.19793580643E+01  0.51100000000E-03 0.  1.
         12    1    3    3    0    0  0.16029851203E+01  0.45911684316E+01  0.60567014931E+01  0.77673690423E+01  0.00000000000E+00 0. -1.
</event>
<event>
 7    1  0.2497395E-009  0.4778727E+02  0.7816164E-02  0.1312668E+00
        -11   -1    0    0    0    0  0.00000000000E+00  0.00000000000E+00  0.45593999997E+02  0.45594000000E+02  0.51100000000E-03 0.  1.
         11   -1    0    0    0    0 -0.00000000000E+00 -0.00000000000E+00 -0.45593999997E+02  0.45594000000E+02  0.51100000000E-03 0. -1.
    9900012    2    1    2    0    0  0.22539453638E+02 -0.28593628733E+02 -0.23622037046E+02  0.47787271796E+02  0.20000003428E+02 0.  0.
        -12    1    1    2    0    0 -0.22539453638E+02  0.28593628733E+02  0.23622037046E+02  0.43400728204E+02  0.00000000000E+00 0.  1.
         11    1    3    3    0    0  0.15859479151E+02 -0.10791196448E+02 -0.36111102348E+01  0.19519557298E+02  0.51100000000E-03 0. -1.
        -11    1    3    3    0    0  0.71855227816E+01 -0.17752896192E+02 -0.18323983092E+02  0.26505950605E+02  0.51100000000E-03 0.  1.
        -12    1    3    3    0    0 -0.50554829513E+00 -0.49536092688E-01 -0.16869437189E+01  0.17617638928E+01  0.00000000000E+00 0.  1.
</event>
<event>
 7    1  0.2497395E-009  0.4778727E+02  0.7816164E-02  0.1312668E+00
        -11   -1    0    0    0    0  0.00000000000E+00  0.00000000000E+00  0.45593999997E+02  0.45594000000E+02  0.51100000000E-03 0.  1.
         11   -1    0    0    0    0 -0.00000000000E+00 -0.00000000000E+00 -0.45593999997E+02  0.45594000000E+02  0.51100000000E-03 0. -1.
    9900012    2    1    2    0    0  0.28022450178E+02  0.31445485335E+02 -0.10466479001E+02  0.47787269078E+02  0.19999991034E+02 0.  0.
        -12    1    1    2    0    0 -0.28022450178E+02 -0.31445485335E+02  0.10466479001E+02  0.43400730922E+02  0.00000000000E+00 0.  1.
         11    1    3    3    0    0  0.59917864383E+01  0.59980916709E+01 -0.70863904073E+00  0.85076893435E+01  0.51100000000E-03 0. -1.
        -11    1    3    3    0    0  0.11897162479E+02  0.24724045781E+02 -0.97555426092E+01  0.29120294069E+02  0.51100000000E-03 0.  1.
        -12    1    3    3    0    0  0.10133501260E+02  0.72334788319E+00 -0.22973509198E-02  0.10159285665E+02  0.00000000000E+00 0.  1.
</event>
<event>
 7    1  0.2497395E-009  0.4778727E+02  0.7816164E-02  0.1312668E+00
        -11   -1    0    0    0    0  0.00000000000E+00  0.00000000000E+00  0.45593999997E+02  0.45594000000E+02  0.51100000000E-03 0.  1.
         11   -1    0    0    0    0 -0.00000000000E+00 -0.00000000000E+00 -0.45593999997E+02  0.45594000000E+02  0.51100000000E-03 0. -1.
    9900012    2    1    2    0    0 -0.17753247537E+02 -0.84308717973E+00 -0.39594627642E+02  0.47787272676E+02  0.20000007440E+02 0.  0.
        -12    1    1    2    0    0  0.17753247537E+02  0.84308717973E+00  0.39594627642E+02  0.43400727324E+02  0.00000000000E+00 0.  1.
         11    1    3    3    0    0 -0.21462954211E+02 -0.24262987724E+01 -0.31651696028E+02  0.38319384010E+02  0.51100000000E-03 0. -1.
        -11    1    3    3    0    0  0.24415161254E+01  0.19954016845E+01 -0.30147924402E+01  0.43625225033E+01  0.51100000000E-03 0.  1.
         12    1    3    3    0    0  0.12681905485E+01 -0.41219009178E+00 -0.49281391742E+01  0.51053661631E+01  0.00000000000E+00 0. -1.
</event>
<event>
 7    1  0.2497395E-009  0.4778728E+02  0.7816164E-02  0.1312668E+00
        -11   -1    0    0    0    0  0.00000000000E+00  0.00000000000E+00  0.45593999997E+02  0.45594000000E+02  0.51100000000E-03 0. -1.
         11   -1    0    0    0    0 -0.00000000000E+00 -0.00000000000E+00 -0.45593999997E+02  0.45594000000E+02  0.51100000000E-03 0.  1.
    9900012    2    1    2    0    0  0.97486665755E+01 -0.15116550139E+02  0.39497799177E+02  0.47787277334E+02  0.20000028676E+02 0.  0.
        -12    1    1    2    0    0 -0.97486665755E+01  0.15116550139E+02 -0.39497799177E+02  0.43400722666E+02  0.00000000000E+00 0.  1.
         11    1    3    3    0    0  0.57445060249E+01 -0.37032963945E+01  0.28214554956E+01  0.73942115895E+01  0.51100000000E-03 0.  1.
        -11    1    3    3    0    0  0.70720663087E+01 -0.10831401698E+02  0.33623869120E+02  0.36026350904E+02  0.51100000000E-03 0. -1.
         12    1    3    3    0    0 -0.30679057582E+01 -0.58185204665E+00  0.30524745619E+01  0.43667148402E+01  0.00000000000E+00 0. -1.
</event>
<event>
 7    1  0.2497395E-009  0.4778727E+02  0.7816164E-02  0.1312668E+00
        -11   -1    0    0    0    0  0.00000000000E+00  0.00000000000E+00  0.45593999997E+02  0.45594000000E+02  0.51100000000E-03 0.  1.
         11   -1    0    0    0    0 -0.00000000000E+00 -0.00000000000E+00 -0.45593999997E+02  0.45594000000E+02  0.51100000000E-03 0. -1.
    9900012    2    1    2    0    0  0.19866632312E+02  0.22255762284E+02 -0.31521757069E+02  0.47787271861E+02  0.20000003723E+02 0.  0.
        -12    1    1    2    0    0 -0.19866632312E+02 -0.22255762284E+02  0.31521757069E+02  0.43400728139E+02  0.00000000000E+00 0.  1.
         11    1    3    3    0    0  0.10327195582E+02  0.12261904984E+02 -0.48252356160E+01  0.16741809384E+02  0.51100000000E-03 0.  1.
        -11    1    3    3    0    0  0.99594129373E+01  0.83777871651E+01 -0.26277740103E+02  0.29323997835E+02  0.51100000000E-03 0. -1.
         12    1    3    3    0    0 -0.41997620733E+00  0.16160701351E+01 -0.41878135002E+00  0.17214646425E+01  0.00000000000E+00 0. -1.
</event>
<event>
 7    1  0.2497395E-009  0.4778727E+02  0.7816164E-02  0.1312668E+00
        -11   -1    0    0    0    0  0.00000000000E+00  0.00000000000E+00  0.45593999997E+02  0.45594000000E+02  0.51100000000E-03 0. -1.
         11   -1    0    0    0    0 -0.00000000000E+00 -0.00000000000E+00 -0.45593999997E+02  0.45594000000E+02  0.51100000000E-03 0.  1.
    9900012    2    1    2    0    0  0.15399919943E+02 -0.37616187317E+02  0.15214738661E+02  0.47787270110E+02  0.19999995740E+02 0.  0.
        -12    1    1    2    0    0 -0.15399919943E+02  0.37616187317E+02 -0.15214738661E+02  0.43400729890E+02  0.00000000000E+00 0.  1.
         11    1    3    3    0    0  0.10546495807E+02 -0.20469427092E+02  0.79669140387E+01  0.24365913462E+02  0.51100000000E-03 0. -1.
        -11    1    3    3    0    0 -0.82943728877E-01 -0.58599066800E+01 -0.37082038569E+01  0.69351396573E+01  0.51100000000E-03 0.  1.
        -12    1    3    3    0    0  0.49363678642E+01 -0.11286853544E+02  0.10956028479E+02  0.16486216990E+02  0.00000000000E+00 0.  1.
</event>
<event>
 7    1  0.2497395E-009  0.4778727E+02  0.7816164E-02  0.1312668E+00
        -11   -1    0    0    0    0  0.00000000000E+00  0.00000000000E+00  0.45593999997E+02  0.45594000000E+02  0.51100000000E-03 0. -1.
         11   -1    0    0    0    0 -0.00000000000E+00 -0.00000000000E+00 -0.45593999997E+02  0.45594000000E+02  0.51100000000E-03 0.  1.
    9900012    2    1    2    0    0  0.59567239981E+01  0.20662518570E+02  0.37698821577E+02  0.47787269790E+02  0.19999994281E+02 0.  0.
        -12    1    1    2    0    0 -0.59567239981E+01 -0.20662518570E+02 -0.37698821577E+02  0.43400730210E+02  0.00000000000E+00 0.  1.
         11    1    3    3    0    0  0.72781174684E+00  0.56133922337E+01  0.77530612816E+01  0.95994709128E+01  0.51100000000E-03 0. -1.
        -11    1    3    3    0    0  0.11226207167E+02  0.85174257331E+01  0.13558571888E+02  0.19555284206E+02  0.51100000000E-03 0.  1.
        -12    1    3    3    0    0 -0.59972949156E+01  0.65317006034E+01  0.16387188407E+02  0.18632514671E+02  0.00000000000E+00 0.  1.
</event>
<event>
 7    1  0.2497395E-009  0.4778727E+02  0.7816164E-02  0.1312668E+00
        -11   -1    0    0    0    0  0.00000000000E+00  0.00000000000E+00  0.45593999997E+02  0.45594000000E+02  0.51100000000E-03 0. -1.
         11   -1    0    0    0    0 -0.00000000000E+00 -0.00000000000E+00 -0.45593999997E+02  0.45594000000E+02  0.51100000000E-03 0.  1.
    9900012    2    1    2    0    0  0.20014302881E+02  0.36562952211E+02 -0.12091383844E+02  0.47787270081E+02  0.19999995609E+02 0.  0.
        -12    1    1    2    0    0 -0.20014302881E+02 -0.36562952211E+02  0.12091383844E+02  0.43400729919E+02  0.00000000000E+00 0.  1.
         11    1    3    3    0    0  0.66672938471E+01  0.25396275337E+02 -0.26373347295E+01  0.26388996627E+02  0.51100000000E-03 0. -1.
        -11    1    3    3    0    0  0.87638617710E+01  0.44062341933E+01 -0.88448969251E+01  0.13208042050E+02  0.51100000000E-03 0.  1.
        -12    1    3    3    0    0  0.45831472631E+01  0.67604426806E+01 -0.60915218984E+00  0.81902314048E+01  0.00000000000E+00 0.  1.
</event>
<event>
 7    1  0.2497395E-009  0.4778727E+02  0.7816164E-02  0.1312668E+00
        -11   -1    0    0    0    0  0.00000000000E+00  0.00000000000E+00  0.45593999997E+02  0.45594000000E+02  0.51100000000E-03 0. -1.
         11   -1    0    0    0    0 -0.00000000000E+00 -0.00000000000E+00 -0.45593999997E+02  0.45594000000E+02  0.51100000000E-03 0.  1.
    9900012    2    1    2    0    0 -0.53769888713E+01 -0.36435758412E+02  0.22959675683E+02  0.47787271805E+02  0.20000003469E+02 0.  0.
        -12    1    1    2    0    0  0.53769888713E+01  0.36435758412E+02 -0.22959675683E+02  0.43400728195E+02  0.00000000000E+00 0.  1.
         11    1    3    3    0    0 -0.34379755717E+00 -0.25384684273E+02  0.21509383600E+02  0.33273923356E+02  0.51100000000E-03 0. -1.
        -11    1    3    3    0    0 -0.12076909260E+01 -0.13819503800E+01 -0.27437800127E+01  0.33010048841E+01  0.51100000000E-03 0.  1.
        -12    1    3    3    0    0 -0.38255003882E+01 -0.96691237584E+01  0.41940720961E+01  0.11212343565E+02  0.00000000000E+00 0.  1.
</event>
<event>
 7    1  0.2497395E-009  0.4778727E+02  0.7816164E-02  0.1312668E+00
        -11   -1    0    0    0    0  0.00000000000E+00  0.00000000000E+00  0.45593999997E+02  0.45594000000E+02  0.51100000000E-03 0.  1.
         11   -1    0    0    0    0 -0.00000000000E+00 -0.00000000000E+00 -0.45593999997E+02  0.45594000000E+02  0.51100000000E-03 0. -1.
    9900012    2    1    2    0    0 -0.23969478246E+02 -0.20221901964E+02 -0.30002702051E+02  0.47787270319E+02  0.19999996694E+02 0.  0.
        -12    1    1    2    0    0  0.23969478246E+02  0.20221901964E+02  0.30002702051E+02  0.43400729681E+02  0.00000000000E+00 0.  1.
         11    1    3    3    0    0 -0.18001549291E+02 -0.16803971440E+02 -0.28702138494E+02  0.37818540261E+02  0.51100000000E-03 0. -1.
        -11    1    3    3    0    0 -0.11795997853E+01 -0.36021976075E+01  0.18662755384E+01  0.42249577399E+01  0.51100000000E-03 0.  1.
         12    1    3    3    0    0 -0.47883291698E+01  0.18426708363E+00 -0.31668390955E+01  0.57437723190E+01  0.00000000000E+00 0. -1.
</event>
<event>
 7    1  0.2497395E-009  0.4778727E+02  0.7816164E-02  0.1312668E+00
        -11   -1    0    0    0    0  0.00000000000E+00  0.00000000000E+00  0.45593999997E+02  0.45594000000E+02  0.51100000000E-03 0.  1.
         11   -1    0    0    0    0 -0.00000000000E+00 -0.00000000000E+00 -0.45593999997E+02  0.45594000000E+02  0.51100000000E-03 0. -1.
    9900012    2    1    2    0    0 -0.29921613390E+02  0.14730080211E+02 -0.27773094570E+02  0.47787274281E+02  0.20000014759E+02 0.  0.
        -12    1    1    2    0    0  0.29921613390E+02 -0.14730080211E+02  0.27773094570E+02  0.43400725719E+02  0.00000000000E+00 0.  1.
         11    1    3    3    0    0 -0.11670012675E+02 -0.15175041852E+01 -0.11293601184E+02  0.16310654271E+02  0.51100000000E-03 0. -1.
        -11    1    3    3    0    0 -0.16847763433E+02  0.17892168749E+02 -0.14439789716E+02  0.28504111327E+02  0.51100000000E-03 0.  1.
        -12    1    3    3    0    0 -0.14038372827E+01 -0.16445843533E+01 -0.20397036700E+01  0.29725086834E+01  0.00000000000E+00 0.  1.
</event>
<event>
 7    1  0.2497395E-009  0.4778727E+02  0.7816164E-02  0.1312668E+00
        -11   -1    0    0    0    0  0.00000000000E+00  0.00000000000E+00  0.45593999997E+02  0.45594000000E+02  0.51100000000E-03 0. -1.
         11   -1    0    0    0    0 -0.00000000000E+00 -0.00000000000E+00 -0.45593999997E+02  0.45594000000E+02  0.51100000000E-03 0.  1.
    9900012    2    1    2    0    0 -0.18774801457E+01 -0.18751649149E+02  0.39095703516E+02  0.47787270618E+02  0.19999998056E+02 0.  0.
        -12    1    1    2    0    0  0.18774801457E+01  0.18751649149E+02 -0.39095703516E+02  0.43400729382E+02  0.00000000000E+00 0.  1.
         11    1    3    3    0    0  0.20868490611E+01 -0.11938056983E+02  0.30530812819E+02  0.32848176132E+02  0.51100000000E-03 0. -1.
        -11    1    3    3    0    0 -0.45990851314E+01 -0.83129002917E+01  0.44048631870E+01  0.10471805731E+02  0.51100000000E-03 0.  1.
         12    1    3    3    0    0  0.63475592462E+00  0.14993081262E+01  0.41600275101E+01  0.44672887556E+01  0.00000000000E+00 0. -1.
</event>
<event>
 7    1  0.2497395E-009  0.4778727E+02  0.7816164E-02  0.1312668E+00
        -11   -1    0    0    0    0  0.00000000000E+00  0.00000000000E+00  0.45593999997E+02  0.45594000000E+02  0.51100000000E-03 0. -1.
         11   -1    0    0    0    0 -0.00000000000E+00 -0.00000000000E+00 -0.45593999997E+02  0.45594000000E+02  0.51100000000E-03 0.  1.
    9900012    2    1    2    0    0  0.72599854514E+01  0.36942751680E+02  0.21590481661E+02  0.47787272024E+02  0.20000004467E+02 0.  0.
        -12    1    1    2    0    0 -0.72599854514E+01 -0.36942751680E+02 -0.21590481661E+02  0.43400727976E+02  0.00000000000E+00 0.  1.
         11    1    3    3    0    0  0.14120008841E+01  0.28433668371E+02  0.96631332722E+01  0.30063988232E+02  0.51100000000E-03 0. -1.
        -11    1    3    3    0    0 -0.10950376337E+01  0.23419302818E+01  0.64332065962E+01  0.69332454330E+01  0.51100000000E-03 0.  1.
         12    1    3    3    0    0  0.69430222011E+01  0.61671530280E+01  0.54941417927E+01  0.10790038359E+02  0.00000000000E+00 0. -1.
</event>
<event>
 7    1  0.2497395E-009  0.4778726E+02  0.7816164E-02  0.1312668E+00
        -11   -1    0    0    0    0  0.00000000000E+00  0.00000000000E+00  0.45593999997E+02  0.45594000000E+02  0.51100000000E-03 0.  1.
         11   -1    0    0    0    0 -0.00000000000E+00 -0.00000000000E+00 -0.45593999997E+02  0.45594000000E+02  0.51100000000E-03 0. -1.
    9900012    2    1    2    0    0  0.47554077976E+01  0.22845129423E+01 -0.43078895468E+02  0.47787261095E+02  0.19999954639E+02 0.  0.
        -12    1    1    2    0    0 -0.47554077976E+01 -0.22845129423E+01  0.43078895468E+02  0.43400738905E+02  0.00000000000E+00 0.  1.
         11    1    3    3    0    0 -0.12291002012E+01 -0.30957079429E+01 -0.79687824559E+00  0.34247788500E+01  0.51100000000E-03 0. -1.
        -11    1    3    3    0    0  0.48455275492E+01  0.20175975846E+01 -0.62747307832E+01  0.81805919044E+01  0.51100000000E-03 0.  1.
         12    1    3    3    0    0  0.11389804496E+01  0.33626233006E+01 -0.36007286439E+02  0.36181890341E+02  0.00000000000E+00 0. -1.
</event>
<event>
 7    1  0.2497395E-009  0.4778727E+02  0.7816164E-02  0.1312668E+00
        -11   -1    0    0    0    0  0.00000000000E+00  0.00000000000E+00  0.45593999997E+02  0.45594000000E+02  0.51100000000E-03 0.  1.
         11   -1    0    0    0    0 -0.00000000000E+00 -0.00000000000E+00 -0.45593999997E+02  0.45594000000E+02  0.51100000000E-03 0. -1.
    9900012    2    1    2    0    0 -0.29529412969E+02  0.16438986440E+02 -0.27228605886E+02  0.47787268624E+02  0.19999988964E+02 0.  0.
        -12    1    1    2    0    0  0.29529412969E+02 -0.16438986440E+02  0.27228605886E+02  0.43400731376E+02  0.00000000000E+00 0.  1.
         11    1    3    3    0    0 -0.23824937280E+02  0.12426320944E+02 -0.26081124937E+02  0.37446844551E+02  0.51100000000E-03 0. -1.
        -11    1    3    3    0    0  0.14286688388E+01  0.26211231404E+01 -0.65459152207E+00  0.30561203330E+01  0.51100000000E-03 0.  1.
         12    1    3    3    0    0 -0.71331445282E+01  0.13915423557E+01 -0.49288942695E+00  0.72843037399E+01  0.00000000000E+00 0. -1.
</event>
<event>
 7    1  0.2497395E-009  0.4778727E+02  0.7816164E-02  0.1312668E+00
        -11   -1    0    0    0    0  0.00000000000E+00  0.00000000000E+00  0.45593999997E+02  0.45594000000E+02  0.51100000000E-03 0.  1.
         11   -1    0    0    0    0 -0.00000000000E+00 -0.00000000000E+00 -0.45593999997E+02  0.45594000000E+02  0.51100000000E-03 0. -1.
    9900012    2    1    2    0    0  0.95645234684E+00  0.23708243824E+02 -0.36340440960E+02  0.47787271026E+02  0.19999999917E+02 0.  0.
        -12    1    1    2    0    0 -0.95645234684E+00 -0.23708243824E+02  0.36340440960E+02  0.43400728974E+02  0.00000000000E+00 0.  1.
         11    1    3    3    0    0  0.74571812729E+01  0.81301672786E+01 -0.24301715701E+02  0.26688622272E+02  0.51100000000E-03 0. -1.
        -11    1    3    3    0    0 -0.32356147403E+01  0.83403219779E+01 -0.39994707485E+01  0.97992826254E+01  0.51100000000E-03 0.  1.
         12    1    3    3    0    0 -0.32651141858E+01  0.72377545679E+01 -0.80392545103E+01  0.11299366129E+02  0.00000000000E+00 0. -1.
</event>
<event>
 7    1  0.2497395E-009  0.4778727E+02  0.7816164E-02  0.1312668E+00
        -11   -1    0    0    0    0  0.00000000000E+00  0.00000000000E+00  0.45593999997E+02  0.45594000000E+02  0.51100000000E-03 0.  1.
         11   -1    0    0    0    0 -0.00000000000E+00 -0.00000000000E+00 -0.45593999997E+02  0.45594000000E+02  0.51100000000E-03 0. -1.
    9900012    2    1    2    0    0  0.14591316054E+02 -0.27513210297E+02 -0.30228136102E+02  0.47787268932E+02  0.19999990369E+02 0.  0.
        -12    1    1    2    0    0 -0.14591316054E+02  0.27513210297E+02  0.30228136102E+02  0.43400731068E+02  0.00000000000E+00 0.  1.
         11    1    3    3    0    0  0.13535450818E+02 -0.21135928746E+02 -0.23805428398E+02  0.34592402840E+02  0.51100000000E-03 0. -1.
        -11    1    3    3    0    0 -0.33111668522E+01 -0.19048883762E+01 -0.57564082783E+01  0.69085933573E+01  0.51100000000E-03 0.  1.
         12    1    3    3    0    0  0.43670320885E+01 -0.44723931744E+01 -0.66629942611E+00  0.62862727346E+01  0.00000000000E+00 0. -1.
</event>
<event>
 7    1  0.2497395E-009  0.4778728E+02  0.7816164E-02  0.1312668E+00
        -11   -1    0    0    0    0  0.00000000000E+00  0.00000000000E+00  0.45593999997E+02  0.45594000000E+02  0.51100000000E-03 0.  1.
         11   -1    0    0    0    0 -0.00000000000E+00 -0.00000000000E+00 -0.45593999997E+02  0.45594000000E+02  0.51100000000E-03 0. -1.
    9900012    2    1    2    0    0 -0.10067808001E+02 -0.84280494607E+01 -0.41367017052E+02  0.47787275635E+02  0.20000020931E+02 0.  0.
        -12    1    1    2    0    0  0.10067808001E+02  0.84280494607E+01  0.41367017052E+02  0.43400724365E+02  0.00000000000E+00 0.  1.
         11    1    3    3    0    0 -0.45375633148E+01 -0.16955767546E+01 -0.21138978678E+02  0.21686882699E+02  0.51100000000E-03 0. -1.
        -11    1    3    3    0    0 -0.35925569231E+01  0.37648256365E+01 -0.35524405230E+01  0.63008103645E+01  0.51100000000E-03 0.  1.
        -12    1    3    3    0    0 -0.19376877629E+01 -0.10497298343E+02 -0.16675597850E+02  0.19799582572E+02  0.00000000000E+00 0.  1.
</event>
<event>
 7    1  0.2497395E-009  0.4778727E+02  0.7816164E-02  0.1312668E+00
        -11   -1    0    0    0    0  0.00000000000E+00  0.00000000000E+00  0.45593999997E+02  0.45594000000E+02  0.51100000000E-03 0.  1.
         11   -1    0    0    0    0 -0.00000000000E+00 -0.00000000000E+00 -0.45593999997E+02  0.45594000000E+02  0.51100000000E-03 0. -1.
    9900012    2    1    2    0    0  0.24967184230E+01  0.27244012515E+02 -0.33692040756E+02  0.47787269233E+02  0.19999991742E+02 0.  0.
        -12    1    1    2    0    0 -0.24967184230E+01 -0.27244012515E+02  0.33692040756E+02  0.43400730767E+02  0.00000000000E+00 0.  1.
         11    1    3    3    0    0 -0.68609399038E+01  0.94330453171E+01 -0.10284855927E+02  0.15550983956E+02  0.51100000000E-03 0. -1.
        -11    1    3    3    0    0  0.74115186476E+01  0.16932593372E+02 -0.23727518337E+02  0.30077208209E+02  0.51100000000E-03 0.  1.
        -12    1    3    3    0    0  0.19461396792E+01  0.87837382628E+00  0.32033350767E+00  0.21590770680E+01  0.00000000000E+00 0.  1.
</event>
<event>
 7    1  0.2497395E-009  0.4778727E+02  0.7816164E-02  0.1312668E+00
        -11   -1    0    0    0    0  0.00000000000E+00  0.00000000000E+00  0.45593999997E+02  0.45594000000E+02  0.51100000000E-03 0.  1.
         11   -1    0    0    0    0 -0.00000000000E+00 -0.00000000000E+00 -0.45593999997E+02  0.45594000000E+02  0.51100000000E-03 0. -1.
    9900012    2    1    2    0    0  0.29020932229E+01 -0.74306121038E+01 -0.42661303256E+02  0.47787274928E+02  0.20000017706E+02 0.  0.
        -12    1    1    2    0    0 -0.29020932229E+01  0.74306121038E+01  0.42661303256E+02  0.43400725072E+02  0.00000000000E+00 0.  1.
         11    1    3    3    0    0 -0.15234500669E+01 -0.18425258138E+01  0.28534331152E+00  0.24077422095E+01  0.51100000000E-03 0.  1.
        -11    1    3    3    0    0  0.28750495858E+01 -0.85240841622E+01 -0.39803819580E+02  0.40807719544E+02  0.51100000000E-03 0. -1.
         12    1    3    3    0    0  0.15504937040E+01  0.29359978722E+01 -0.31428269868E+01  0.45718131743E+01  0.00000000000E+00 0. -1.
</event>
<event>
 7    1  0.2497395E-009  0.4778727E+02  0.7816164E-02  0.1312668E+00
        -11   -1    0    0    0    0  0.00000000000E+00  0.00000000000E+00  0.45593999997E+02  0.45594000000E+02  0.51100000000E-03 0.  1.
         11   -1    0    0    0    0 -0.00000000000E+00 -0.00000000000E+00 -0.45593999997E+02  0.45594000000E+02  0.51100000000E-03 0. -1.
    9900012    2    1    2    0    0  0.10876914500E+02  0.20825940410E+02 -0.36491042717E+02  0.47787271186E+02  0.20000000646E+02 0.  0.
        -12    1    1    2    0    0 -0.10876914500E+02 -0.20825940410E+02  0.36491042717E+02  0.43400728814E+02  0.00000000000E+00 0.  1.
         11    1    3    3    0    0  0.91653906951E+01  0.14721165257E+02 -0.12967115502E+02  0.21653248667E+02  0.51100000000E-03 0.  1.
        -11    1    3    3    0    0  0.49341615743E+01  0.57434381786E+01 -0.12234226450E+02  0.14387818794E+02  0.51100000000E-03 0. -1.
         12    1    3    3    0    0 -0.32226377693E+01  0.36133697474E+00 -0.11289700765E+02  0.11746203726E+02  0.00000000000E+00 0. -1.
</event>
<event>
 7    1  0.2497395E-009  0.4778727E+02  0.7816164E-02  0.1312668E+00
        -11   -1    0    0    0    0  0.00000000000E+00  0.00000000000E+00  0.45593999997E+02  0.45594000000E+02  0.51100000000E-03 0.  1.
         11   -1    0    0    0    0 -0.00000000000E+00 -0.00000000000E+00 -0.45593999997E+02  0.45594000000E+02  0.51100000000E-03 0. -1.
    9900012    2    1    2    0    0 -0.30630987986E+02 -0.79507161904E+01 -0.29701044133E+02  0.47787270334E+02  0.19999996762E+02 0.  0.
        -12    1    1    2    0    0  0.30630987986E+02  0.79507161904E+01  0.29701044133E+02  0.43400729666E+02  0.00000000000E+00 0.  1.
         11    1    3    3    0    0 -0.92381149625E+01 -0.10178951304E+02 -0.15347174428E+02  0.20603144928E+02  0.51100000000E-03 0. -1.
        -11    1    3    3    0    0 -0.34056946033E+01 -0.78164953463E+00  0.66702005753E+00  0.35573371704E+01  0.51100000000E-03 0.  1.
         12    1    3    3    0    0 -0.17987178420E+02  0.30098846484E+01 -0.15020889762E+02  0.23626788236E+02  0.00000000000E+00 0. -1.
</event>
<event>
 7    1  0.2497395E-009  0.4778727E+02  0.7816164E-02  0.1312668E+00
        -11   -1    0    0    0    0  0.00000000000E+00  0.00000000000E+00  0.45593999997E+02  0.45594000000E+02  0.51100000000E-03 0.  1.
         11   -1    0    0    0    0 -0.00000000000E+00 -0.00000000000E+00 -0.45593999997E+02  0.45594000000E+02  0.51100000000E-03 0. -1.
    9900012    2    1    2    0    0 -0.17414560749E+02 -0.21031646293E+02 -0.33734644975E+02  0.47787270243E+02  0.19999996346E+02 0.  0.
        -12    1    1    2    0    0  0.17414560749E+02  0.21031646293E+02  0.33734644975E+02  0.43400729757E+02  0.00000000000E+00 0.  1.
         11    1    3    3    0    0  0.13797130093E+01 -0.35383624561E+01 -0.13211662586E+02  0.13746695800E+02  0.51100000000E-03 0. -1.
        -11    1    3    3    0    0 -0.35107924994E+01 -0.76074149937E+01 -0.33732713199E+01  0.90320200685E+01  0.51100000000E-03 0.  1.
         12    1    3    3    0    0 -0.15283481259E+02 -0.98858688429E+01 -0.17149711069E+02  0.25008554375E+02  0.00000000000E+00 0. -1.
</event>
<event>
 7    1  0.2497395E-009  0.4778727E+02  0.7816164E-02  0.1312668E+00
        -11   -1    0    0    0    0  0.00000000000E+00  0.00000000000E+00  0.45593999997E+02  0.45594000000E+02  0.51100000000E-03 0.  1.
         11   -1    0    0    0    0 -0.00000000000E+00 -0.00000000000E+00 -0.45593999997E+02  0.45594000000E+02  0.51100000000E-03 0. -1.
    9900012    2    1    2    0    0 -0.12013153869E+02 -0.38409158635E+02 -0.16249425172E+02  0.47787272455E+02  0.20000006434E+02 0.  0.
        -12    1    1    2    0    0  0.12013153869E+02  0.38409158635E+02  0.16249425172E+02  0.43400727545E+02  0.00000000000E+00 0.  1.
         11    1    3    3    0    0  0.49046253541E+00 -0.11401792536E+02  0.12468609787E+01  0.11480247780E+02  0.51100000000E-03 0. -1.
        -11    1    3    3    0    0 -0.95383499231E+01 -0.19717761298E+02 -0.18099762601E+02  0.28414285779E+02  0.51100000000E-03 0.  1.
        -12    1    3    3    0    0 -0.29652664816E+01 -0.72896048008E+01  0.60347644935E+00  0.78927388962E+01  0.00000000000E+00 0.  1.
</event>
<event>
 7    1  0.2497395E-009  0.4778727E+02  0.7816164E-02  0.1312668E+00
        -11   -1    0    0    0    0  0.00000000000E+00  0.00000000000E+00  0.45593999997E+02  0.45594000000E+02  0.51100000000E-03 0. -1.
         11   -1    0    0    0    0 -0.00000000000E+00 -0.00000000000E+00 -0.45593999997E+02  0.45594000000E+02  0.51100000000E-03 0.  1.
    9900012    2    1    2    0    0 -0.11185908695E+01  0.36941161634E+02 -0.22753519932E+02  0.47787270309E+02  0.19999996647E+02 0.  0.
        -12    1    1    2    0    0  0.11185908695E+01 -0.36941161634E+02  0.22753519932E+02  0.43400729691E+02  0.00000000000E+00 0.  1.
         11    1    3    3    0    0 -0.63479585623E+01  0.18138035367E+02 -0.73770373281E+01  0.20584110009E+02  0.51100000000E-03 0. -1.
        -11    1    3    3    0    0  0.36627497633E+01  0.99893176689E+00 -0.57840286445E+01  0.69187128951E+01  0.51100000000E-03 0.  1.
         12    1    3    3    0    0  0.15666179294E+01  0.17804194501E+02 -0.95924539589E+01  0.20284447405E+02  0.00000000000E+00 0. -1.
</event>
<event>
 7    1  0.2497395E-009  0.4778727E+02  0.7816164E-02  0.1312668E+00
        -11   -1    0    0    0    0  0.00000000000E+00  0.00000000000E+00  0.45593999997E+02  0.45594000000E+02  0.51100000000E-03 0.  1.
         11   -1    0    0    0    0 -0.00000000000E+00 -0.00000000000E+00 -0.45593999997E+02  0.45594000000E+02  0.51100000000E-03 0. -1.
    9900012    2    1    2    0    0  0.58862052321E+01  0.31933511554E+02 -0.28796297203E+02  0.47787270688E+02  0.19999998376E+02 0.  0.
        -12    1    1    2    0    0 -0.58862052321E+01 -0.31933511554E+02  0.28796297203E+02  0.43400729312E+02  0.00000000000E+00 0.  1.
         11    1    3    3    0    0  0.28636948449E+01  0.17722004197E+02 -0.91144556292E+01  0.20133143883E+02  0.51100000000E-03 0. -1.
        -11    1    3    3    0    0 -0.18367609694E+01  0.58337728719E+01 -0.46383728277E+00  0.61336565005E+01  0.51100000000E-03 0.  1.
        -12    1    3    3    0    0  0.48592713566E+01  0.83777344842E+01 -0.19218004291E+02  0.21520470305E+02  0.00000000000E+00 0.  1.
</event>
<event>
 7    1  0.2497395E-009  0.4778727E+02  0.7816164E-02  0.1312668E+00
        -11   -1    0    0    0    0  0.00000000000E+00  0.00000000000E+00  0.45593999997E+02  0.45594000000E+02  0.51100000000E-03 0.  1.
         11   -1    0    0    0    0 -0.00000000000E+00 -0.00000000000E+00 -0.45593999997E+02  0.45594000000E+02  0.51100000000E-03 0. -1.
    9900012    2    1    2    0    0  0.21823018711E+02  0.53734955081E+01 -0.37128223938E+02  0.47787267144E+02  0.19999982215E+02 0.  0.
        -12    1    1    2    0    0 -0.21823018711E+02 -0.53734955081E+01  0.37128223938E+02  0.43400732856E+02  0.00000000000E+00 0.  1.
         11    1    3    3    0    0  0.18164887429E+02  0.17488124474E+01 -0.19148715456E+02  0.26451744445E+02  0.51100000000E-03 0. -1.
        -11    1    3    3    0    0  0.32894279721E+01  0.41138561249E+01 -0.24764920495E+01  0.58204090691E+01  0.51100000000E-03 0.  1.
         12    1    3    3    0    0  0.36870330960E+00 -0.48917306425E+00 -0.15503016433E+02  0.15515113630E+02  0.00000000000E+00 0. -1.
</event>
<event>
 7    1  0.2497395E-009  0.4778727E+02  0.7816164E-02  0.1312668E+00
        -11   -1    0    0    0    0  0.00000000000E+00  0.00000000000E+00  0.45593999997E+02  0.45594000000E+02  0.51100000000E-03 0.  1.
         11   -1    0    0    0    0 -0.00000000000E+00 -0.00000000000E+00 -0.45593999997E+02  0.45594000000E+02  0.51100000000E-03 0. -1.
    9900012    2    1    2    0    0 -0.14350421221E+02  0.12193018875E+02 -0.39102669737E+02  0.47787273289E+02  0.20000010232E+02 0.  0.
        -12    1    1    2    0    0  0.14350421221E+02 -0.12193018875E+02  0.39102669737E+02  0.43400726711E+02  0.00000000000E+00 0.  1.
         11    1    3    3    0    0 -0.11617249203E+02  0.12803011490E+02 -0.29342959773E+02  0.34057111897E+02  0.51100000000E-03 0. -1.
        -11    1    3    3    0    0  0.22941853649E+01 -0.19190179939E+01 -0.74821988523E+01  0.80578667447E+01  0.51100000000E-03 0.  1.
         12    1    3    3    0    0 -0.50273573833E+01  0.13090253786E+01 -0.22775111122E+01  0.56722946474E+01  0.00000000000E+00 0. -1.
</event>
<event>
 7    1  0.2497395E-009  0.4778727E+02  0.7816164E-02  0.1312668E+00
        -11   -1    0    0    0    0  0.00000000000E+00  0.00000000000E+00  0.45593999997E+02  0.45594000000E+02  0.51100000000E-03 0. -1.
         11   -1    0    0    0    0 -0.00000000000E+00 -0.00000000000E+00 -0.45593999997E+02  0.45594000000E+02  0.51100000000E-03 0.  1.
    9900012    2    1    2    0    0 -0.77245643552E+01 -0.35663272395E+02  0.23496494480E+02  0.47787272526E+02  0.20000006757E+02 0.  0.
        -12    1    1    2    0    0  0.77245643552E+01  0.35663272395E+02 -0.23496494480E+02  0.43400727474E+02  0.00000000000E+00 0.  1.
         11    1    3    3    0    0 -0.24765269978E+01 -0.99957154881E+01  0.63399152524E+01  0.12093057502E+02  0.51100000000E-03 0. -1.
        -11    1    3    3    0    0 -0.11350638561E+02 -0.18479330109E+02  0.10138114520E+02  0.23939590708E+02  0.51100000000E-03 0.  1.
        -12    1    3    3    0    0  0.61026012033E+01 -0.71882267981E+01  0.70184647080E+01  0.11754624316E+02  0.00000000000E+00 0.  1.
</event>
<event>
 7    1  0.2497395E-009  0.4778727E+02  0.7816164E-02  0.1312668E+00
        -11   -1    0    0    0    0  0.00000000000E+00  0.00000000000E+00  0.45593999997E+02  0.45594000000E+02  0.51100000000E-03 0.  1.
         11   -1    0    0    0    0 -0.00000000000E+00 -0.00000000000E+00 -0.45593999997E+02  0.45594000000E+02  0.51100000000E-03 0. -1.
    9900012    2    1    2    0    0 -0.17685440557E+02  0.10007716183E+02 -0.38349631194E+02  0.47787269549E+02  0.19999993182E+02 0.  0.
        -12    1    1    2    0    0  0.17685440557E+02 -0.10007716183E+02  0.38349631194E+02  0.43400730451E+02  0.00000000000E+00 0.  1.
         11    1    3    3    0    0 -0.11509403427E+02  0.27971833902E+01 -0.13833916563E+02  0.18211750325E+02  0.51100000000E-03 0. -1.
        -11    1    3    3    0    0  0.24076717454E+01  0.38251959694E+01 -0.14726793404E+01  0.47537135104E+01  0.51100000000E-03 0.  1.
        -12    1    3    3    0    0 -0.85837088761E+01  0.33853368238E+01 -0.23043035291E+02  0.24821805714E+02  0.00000000000E+00 0.  1.
</event>
<event>
 7    1  0.2497395E-009  0.4778727E+02  0.7816164E-02  0.1312668E+00
        -11   -1    0    0    0    0  0.00000000000E+00  0.00000000000E+00  0.45593999997E+02  0.45594000000E+02  0.51100000000E-03 0.  1.
         11   -1    0    0    0    0 -0.00000000000E+00 -0.00000000000E+00 -0.45593999997E+02  0.45594000000E+02  0.51100000000E-03 0. -1.
    9900012    2    1    2    0    0 -0.32897312520E+02 -0.11574275909E+02 -0.25834596636E+02  0.47787269393E+02  0.19999992471E+02 0.  0.
        -12    1    1    2    0    0  0.32897312520E+02  0.11574275909E+02  0.25834596636E+02  0.43400730607E+02  0.00000000000E+00 0.  1.
         11    1    3    3    0    0 -0.24032254913E+02 -0.66118646177E+01 -0.71004742921E+01  0.25916843275E+02  0.51100000000E-03 0.  1.
        -11    1    3    3    0    0 -0.73235884830E+01 -0.19881692224E+01 -0.15268637038E+02  0.17050485107E+02  0.51100000000E-03 0. -1.
        -12    1    3    3    0    0 -0.15414691245E+01 -0.29742420688E+01 -0.34654853060E+01  0.48199410112E+01  0.00000000000E+00 0.  1.
</event>
<event>
 7    1  0.2497395E-009  0.4778727E+02  0.7816164E-02  0.1312668E+00
        -11   -1    0    0    0    0  0.00000000000E+00  0.00000000000E+00  0.45593999997E+02  0.45594000000E+02  0.51100000000E-03 0. -1.
         11   -1    0    0    0    0 -0.00000000000E+00 -0.00000000000E+00 -0.45593999997E+02  0.45594000000E+02  0.51100000000E-03 0.  1.
    9900012    2    1    2    0    0  0.17081537309E+02  0.10570045907E+01  0.39883919678E+02  0.47787271614E+02  0.20000002596E+02 0.  0.
        -12    1    1    2    0    0 -0.17081537309E+02 -0.10570045907E+01 -0.39883919678E+02  0.43400728386E+02  0.00000000000E+00 0.  1.
         11    1    3    3    0    0  0.14852458554E+02 -0.38010196241E+01  0.21072727326E+02  0.26059606914E+02  0.51100000000E-03 0. -1.
        -11    1    3    3    0    0  0.85293308700E+00 -0.22172364887E+01  0.10319219239E+02  0.10589141535E+02  0.51100000000E-03 0.  1.
         12    1    3    3    0    0  0.13761456674E+01  0.70752607036E+01  0.84919731138E+01  0.11138523165E+02  0.00000000000E+00 0. -1.
</event>
<event>
 7    1  0.2497395E-009  0.4778727E+02  0.7816164E-02  0.1312668E+00
        -11   -1    0    0    0    0  0.00000000000E+00  0.00000000000E+00  0.45593999997E+02  0.45594000000E+02  0.51100000000E-03 0.  1.
         11   -1    0    0    0    0 -0.00000000000E+00 -0.00000000000E+00 -0.45593999997E+02  0.45594000000E+02  0.51100000000E-03 0. -1.
    9900012    2    1    2    0    0 -0.97845803323E+00 -0.38429586274E+02 -0.20145304397E+02  0.47787265323E+02  0.19999973912E+02 0.  0.
        -12    1    1    2    0    0  0.97845803323E+00  0.38429586274E+02  0.20145304397E+02  0.43400734677E+02  0.00000000000E+00 0.  1.
         11    1    3    3    0    0 -0.46564940106E+01 -0.19804388458E+02 -0.17925964530E+02  0.27115252963E+02  0.51100000000E-03 0. -1.
        -11    1    3    3    0    0  0.47159851858E+01 -0.18352656440E+02 -0.89850396141E+00  0.18970182506E+02  0.51100000000E-03 0.  1.
        -12    1    3    3    0    0 -0.10379492084E+01 -0.27254137568E+00 -0.13208359055E+01  0.17018298534E+01  0.00000000000E+00 0.  1.
</event>
<event>
 7    1  0.2497395E-009  0.4778727E+02  0.7816164E-02  0.1312668E+00
        -11   -1    0    0    0    0  0.00000000000E+00  0.00000000000E+00  0.45593999997E+02  0.45594000000E+02  0.51100000000E-03 0. -1.
         11   -1    0    0    0    0 -0.00000000000E+00 -0.00000000000E+00 -0.45593999997E+02  0.45594000000E+02  0.51100000000E-03 0.  1.
    9900012    2    1    2    0    0  0.52929533566E+01 -0.16777870055E+02  0.39675068068E+02  0.47787270686E+02  0.19999998364E+02 0.  0.
        -12    1    1    2    0    0 -0.52929533566E+01  0.16777870055E+02 -0.39675068068E+02  0.43400729314E+02  0.00000000000E+00 0.  1.
         11    1    3    3    0    0 -0.37690091553E+01 -0.12060459758E+02  0.25920314430E+02  0.28836137397E+02  0.51100000000E-03 0. -1.
        -11    1    3    3    0    0  0.73100030881E+01 -0.52506634090E+01  0.56156336500E+01  0.10608532082E+02  0.51100000000E-03 0.  1.
        -12    1    3    3    0    0  0.17519594238E+01  0.53325311231E+00  0.81391199881E+01  0.83426012062E+01  0.00000000000E+00 0.  1.
</event>
<event>
 7    1  0.2497395E-009  0.4778727E+02  0.7816164E-02  0.1312668E+00
        -11   -1    0    0    0    0  0.00000000000E+00  0.00000000000E+00  0.45593999997E+02  0.45594000000E+02  0.51100000000E-03 0. -1.
         11   -1    0    0    0    0 -0.00000000000E+00 -0.00000000000E+00 -0.45593999997E+02  0.45594000000E+02  0.51100000000E-03 0.  1.
    9900012    2    1    2    0    0  0.33852749586E+02 -0.16406010855E+01  0.27109458004E+02  0.47787274894E+02  0.20000017553E+02 0.  0.
        -12    1    1    2    0    0 -0.33852749586E+02  0.16406010855E+01 -0.27109458004E+02  0.43400725106E+02  0.00000000000E+00 0.  1.
         11    1    3    3    0    0  0.67565674089E+00 -0.25769551938E+01  0.20060656540E+01  0.33348927677E+01  0.51100000000E-03 0. -1.
        -11    1    3    3    0    0  0.14777356305E+02 -0.32815345976E+00  0.20392998956E+01  0.14921014992E+02  0.51100000000E-03 0.  1.
        -12    1    3    3    0    0  0.18399736540E+02  0.12645075681E+01  0.23064092454E+02  0.29531367135E+02  0.00000000000E+00 0.  1.
</event>
<event>
 7    1  0.2497395E-009  0.4778726E+02  0.7816164E-02  0.1312668E+00
        -11   -1    0    0    0    0  0.00000000000E+00  0.00000000000E+00  0.45593999997E+02  0.45594000000E+02  0.51100000000E-03 0. -1.
         11   -1    0    0    0    0 -0.00000000000E+00 -0.00000000000E+00 -0.45593999997E+02  0.45594000000E+02  0.51100000000E-03 0.  1.
    9900012    2    1    2    0    0  0.30066986167E+02 -0.28858398362E+02  0.12115821707E+02  0.47787263269E+02  0.19999964547E+02 0.  0.
        -12    1    1    2    0    0 -0.30066986167E+02  0.28858398362E+02 -0.12115821707E+02  0.43400736731E+02  0.00000000000E+00 0.  1.
         11    1    3    3    0    0  0.14820788829E+02 -0.15536762998E+02  0.31373886042E+01  0.21699999850E+02  0.51100000000E-03 0. -1.
        -11    1    3    3    0    0  0.73485086931E+01  0.13187698379E+01  0.67802886117E+00  0.74966297291E+01  0.51100000000E-03 0.  1.
        -12    1    3    3    0    0  0.78976886447E+01 -0.14640405202E+02  0.83004042417E+01  0.18590633690E+02  0.00000000000E+00 0.  1.
</event>
<event>
 7    1  0.2497395E-009  0.4778727E+02  0.7816164E-02  0.1312668E+00
        -11   -1    0    0    0    0  0.00000000000E+00  0.00000000000E+00  0.45593999997E+02  0.45594000000E+02  0.51100000000E-03 0.  1.
         11   -1    0    0    0    0 -0.00000000000E+00 -0.00000000000E+00 -0.45593999997E+02  0.45594000000E+02  0.51100000000E-03 0. -1.
    9900012    2    1    2    0    0 -0.40524634677E+01  0.43027485291E+02 -0.39795054878E+01  0.47787269424E+02  0.19999992610E+02 0.  0.
        -12    1    1    2    0    0  0.40524634677E+01 -0.43027485291E+02  0.39795054878E+01  0.43400730576E+02  0.00000000000E+00 0.  1.
         11    1    3    3    0    0 -0.54064067327E+01  0.41567618426E+02 -0.24600763778E+01  0.41989857245E+02  0.51100000000E-03 0. -1.
        -11    1    3    3    0    0  0.24500906112E+01  0.62842530210E+00 -0.29001778236E+01  0.38482325856E+01  0.51100000000E-03 0.  1.
        -12    1    3    3    0    0 -0.10961473462E+01  0.83144156258E+00  0.13807487135E+01  0.19491795932E+01  0.00000000000E+00 0.  1.
</event>
<event>
 7    1  0.2497395E-009  0.4778727E+02  0.7816164E-02  0.1312668E+00
        -11   -1    0    0    0    0  0.00000000000E+00  0.00000000000E+00  0.45593999997E+02  0.45594000000E+02  0.51100000000E-03 0.  1.
         11   -1    0    0    0    0 -0.00000000000E+00 -0.00000000000E+00 -0.45593999997E+02  0.45594000000E+02  0.51100000000E-03 0. -1.
    9900012    2    1    2    0    0 -0.26136948041E+02 -0.48816046632E+01 -0.34302378177E+02  0.47787271140E+02  0.20000000434E+02 0.  0.
        -12    1    1    2    0    0  0.26136948041E+02  0.48816046632E+01  0.34302378177E+02  0.43400728860E+02  0.00000000000E+00 0.  1.
         11    1    3    3    0    0 -0.24338469744E+02 -0.42331491138E+01 -0.31237613225E+02  0.39825483564E+02  0.51100000000E-03 0. -1.
        -11    1    3    3    0    0 -0.16239194462E+01  0.23456220488E+01  0.89903374947E+00  0.29912069649E+01  0.51100000000E-03 0.  1.
         12    1    3    3    0    0 -0.17455885160E+00 -0.29940775982E+01 -0.39637987016E+01  0.49705806103E+01  0.00000000000E+00 0. -1.
</event>
<event>
 7    1  0.2497395E-009  0.4778724E+02  0.7816164E-02  0.1312668E+00
        -11   -1    0    0    0    0  0.00000000000E+00  0.00000000000E+00  0.45593999997E+02  0.45594000000E+02  0.51100000000E-03 0.  1.
         11   -1    0    0    0    0 -0.00000000000E+00 -0.00000000000E+00 -0.45593999997E+02  0.45594000000E+02  0.51100000000E-03 0. -1.
    9900012    2    1    2    0    0  0.30449267512E+02  0.20491751598E+02 -0.23163689661E+02  0.47787236247E+02  0.19999841345E+02 0.  0.
        -12    1    1    2    0    0 -0.30449267512E+02 -0.20491751598E+02  0.23163689661E+02  0.43400763753E+02  0.00000000000E+00 0.  1.
         11    1    3    3    0    0  0.40242273718E+01  0.30847701632E+01 -0.19742080227E+01  0.54412967644E+01  0.51100000000E-03 0. -1.
        -11    1    3    3    0    0  0.20358109859E+02  0.19918842502E+02 -0.11666514304E+02  0.30778571766E+02  0.51100000000E-03 0.  1.
        -12    1    3    3    0    0  0.60669302816E+01 -0.25118610671E+01 -0.95229673342E+01  0.11567367717E+02  0.00000000000E+00 0.  1.
</event>
<event>
 7    1  0.2497395E-009  0.4778729E+02  0.7816164E-02  0.1312668E+00
        -11   -1    0    0    0    0  0.00000000000E+00  0.00000000000E+00  0.45593999997E+02  0.45594000000E+02  0.51100000000E-03 0.  1.
         11   -1    0    0    0    0 -0.00000000000E+00 -0.00000000000E+00 -0.45593999997E+02  0.45594000000E+02  0.51100000000E-03 0. -1.
    9900012    2    1    2    0    0 -0.26234757205E+01 -0.35935131804E+01 -0.43172050678E+02  0.47787286623E+02  0.20000071030E+02 0.  0.
        -12    1    1    2    0    0  0.26234757205E+01  0.35935131804E+01  0.43172050678E+02  0.43400713377E+02  0.00000000000E+00 0.  1.
         11    1    3    3    0    0  0.10801403027E+01 -0.84031285361E+01 -0.39674167715E+02  0.40568693058E+02  0.51100000000E-03 0. -1.
        -11    1    3    3    0    0 -0.29113892927E+01  0.34557224761E+01 -0.33849430270E+01  0.56458874415E+01  0.51100000000E-03 0.  1.
         12    1    3    3    0    0 -0.79222673050E+00  0.13538928796E+01 -0.11293993608E+00  0.15727061236E+01  0.00000000000E+00 0. -1.
</event>
<event>
 7    1  0.2497395E-009  0.4778727E+02  0.7816164E-02  0.1312668E+00
        -11   -1    0    0    0    0  0.00000000000E+00  0.00000000000E+00  0.45593999997E+02  0.45594000000E+02  0.51100000000E-03 0. -1.
         11   -1    0    0    0    0 -0.00000000000E+00 -0.00000000000E+00 -0.45593999997E+02  0.45594000000E+02  0.51100000000E-03 0.  1.
    9900012    2    1    2    0    0 -0.16357768503E+02 -0.19290907585E+02  0.35269073535E+02  0.47787271275E+02  0.20000001050E+02 0.  0.
        -12    1    1    2    0    0  0.16357768503E+02  0.19290907585E+02 -0.35269073535E+02  0.43400728725E+02  0.00000000000E+00 0.  1.
         11    1    3    3    0    0 -0.13485618394E+02 -0.47735421661E+01  0.26117912567E+02  0.29779086040E+02  0.51100000000E-03 0. -1.
        -11    1    3    3    0    0  0.96002511738E+00 -0.45265570537E+01  0.15396744253E+01  0.48766755668E+01  0.51100000000E-03 0.  1.
         12    1    3    3    0    0 -0.38321752262E+01 -0.99908083655E+01  0.76114865430E+01  0.13131509668E+02  0.00000000000E+00 0. -1.
</event>
<event>
 7    1  0.2497395E-009  0.4778727E+02  0.7816164E-02  0.1312668E+00
        -11   -1    0    0    0    0  0.00000000000E+00  0.00000000000E+00  0.45593999997E+02  0.45594000000E+02  0.51100000000E-03 0.  1.
         11   -1    0    0    0    0 -0.00000000000E+00 -0.00000000000E+00 -0.45593999997E+02  0.45594000000E+02  0.51100000000E-03 0. -1.
    9900012    2    1    2    0    0 -0.28344282486E+02  0.11787350780E+01 -0.32845638774E+02  0.47787265531E+02  0.19999974861E+02 0.  0.
        -12    1    1    2    0    0  0.28344282486E+02 -0.11787350780E+01  0.32845638774E+02  0.43400734469E+02  0.00000000000E+00 0.  1.
         11    1    3    3    0    0 -0.21004325442E+02 -0.36930099087E+00 -0.27069269785E+02  0.34264609110E+02  0.51100000000E-03 0. -1.
        -11    1    3    3    0    0  0.15736493341E+01 -0.19989190260E+01 -0.56824528680E+00  0.26067129620E+01  0.51100000000E-03 0.  1.
         12    1    3    3    0    0 -0.89136063774E+01  0.35469550948E+01 -0.52081237017E+01  0.10915943458E+02  0.00000000000E+00 0. -1.
</event>
<event>
 7    1  0.2497395E-009  0.4778727E+02  0.7816164E-02  0.1312668E+00
        -11   -1    0    0    0    0  0.00000000000E+00  0.00000000000E+00  0.45593999997E+02  0.45594000000E+02  0.51100000000E-03 0.  1.
         11   -1    0    0    0    0 -0.00000000000E+00 -0.00000000000E+00 -0.45593999997E+02  0.45594000000E+02  0.51100000000E-03 0. -1.
    9900012    2    1    2    0    0 -0.41948456263E+02  0.90829406520E+01  0.64382056746E+01  0.47787270904E+02  0.19999999361E+02 0.  0.
        -12    1    1    2    0    0  0.41948456263E+02 -0.90829406520E+01 -0.64382056746E+01  0.43400729096E+02  0.00000000000E+00 0.  1.
         11    1    3    3    0    0 -0.45687566812E+01 -0.44618745573E+01 -0.26348935148E-01  0.63861221962E+01  0.51100000000E-03 0.  1.
        -11    1    3    3    0    0 -0.27324381767E+02  0.84386731945E+01  0.40904126742E+00  0.28600705573E+02  0.51100000000E-03 0. -1.
        -12    1    3    3    0    0 -0.10055317814E+02  0.51061420147E+01  0.60555133423E+01  0.12800443135E+02  0.00000000000E+00 0.  1.
</event>
<event>
 7    1  0.2497395E-009  0.4778727E+02  0.7816164E-02  0.1312668E+00
        -11   -1    0    0    0    0  0.00000000000E+00  0.00000000000E+00  0.45593999997E+02  0.45594000000E+02  0.51100000000E-03 0. -1.
         11   -1    0    0    0    0 -0.00000000000E+00 -0.00000000000E+00 -0.45593999997E+02  0.45594000000E+02  0.51100000000E-03 0.  1.
    9900012    2    1    2    0    0 -0.12155825042E+02  0.51988864084E+01  0.41338002633E+02  0.47787274614E+02  0.20000016274E+02 0.  0.
        -12    1    1    2    0    0  0.12155825042E+02 -0.51988864084E+01 -0.41338002633E+02  0.43400725386E+02  0.00000000000E+00 0.  1.
         11    1    3    3    0    0 -0.10914564022E+02  0.10184589464E+02  0.31662601830E+02  0.35005341382E+02  0.51100000000E-03 0. -1.
        -11    1    3    3    0    0  0.69369222263E+00  0.76312040828E+00  0.50490424348E+01  0.51532893793E+01  0.51100000000E-03 0.  1.
         12    1    3    3    0    0 -0.19349532428E+01 -0.57488234643E+01  0.46263583682E+01  0.76286438524E+01  0.00000000000E+00 0. -1.
</event>
<event>
 7    1  0.2497395E-009  0.4778727E+02  0.7816164E-02  0.1312668E+00
        -11   -1    0    0    0    0  0.00000000000E+00  0.00000000000E+00  0.45593999997E+02  0.45594000000E+02  0.51100000000E-03 0.  1.
         11   -1    0    0    0    0 -0.00000000000E+00 -0.00000000000E+00 -0.45593999997E+02  0.45594000000E+02  0.51100000000E-03 0. -1.
    9900012    2    1    2    0    0  0.26712742021E+01  0.63443843075E+01 -0.42851333395E+02  0.47787266229E+02  0.19999978045E+02 0.  0.
        -12    1    1    2    0    0 -0.26712742021E+01 -0.63443843075E+01  0.42851333395E+02  0.43400733771E+02  0.00000000000E+00 0.  1.
         11    1    3    3    0    0 -0.21376067297E+01 -0.47804384449E+01 -0.70545867382E+01  0.87857355164E+01  0.51100000000E-03 0. -1.
        -11    1    3    3    0    0  0.31938032349E+01  0.91302554497E+01 -0.13781604230E+02  0.16837296668E+02  0.51100000000E-03 0.  1.
         12    1    3    3    0    0  0.16150776969E+01  0.19945673027E+01 -0.22015142427E+02  0.22164234045E+02  0.00000000000E+00 0. -1.
</event>
<event>
 7    1  0.2497395E-009  0.4778727E+02  0.7816164E-02  0.1312668E+00
        -11   -1    0    0    0    0  0.00000000000E+00  0.00000000000E+00  0.45593999997E+02  0.45594000000E+02  0.51100000000E-03 0. -1.
         11   -1    0    0    0    0 -0.00000000000E+00 -0.00000000000E+00 -0.45593999997E+02  0.45594000000E+02  0.51100000000E-03 0.  1.
    9900012    2    1    2    0    0 -0.18637883348E+02  0.34025178355E+02  0.19456097402E+02  0.47787272081E+02  0.20000004727E+02 0.  0.
        -12    1    1    2    0    0  0.18637883348E+02 -0.34025178355E+02 -0.19456097402E+02  0.43400727919E+02  0.00000000000E+00 0.  1.
         11    1    3    3    0    0 -0.17517312296E+02  0.16446794617E+02  0.14961444827E+02  0.28305443202E+02  0.51100000000E-03 0. -1.
        -11    1    3    3    0    0 -0.12093694307E+01  0.70743528210E+01 -0.15780114504E+01  0.73484122540E+01  0.51100000000E-03 0.  1.
         12    1    3    3    0    0  0.88798378741E-01  0.10504030916E+02  0.60726640254E+01  0.12133416626E+02  0.00000000000E+00 0. -1.
</event>
<event>
 7    1  0.2497395E-009  0.4778727E+02  0.7816164E-02  0.1312668E+00
        -11   -1    0    0    0    0  0.00000000000E+00  0.00000000000E+00  0.45593999997E+02  0.45594000000E+02  0.51100000000E-03 0. -1.
         11   -1    0    0    0    0 -0.00000000000E+00 -0.00000000000E+00 -0.45593999997E+02  0.45594000000E+02  0.51100000000E-03 0.  1.
    9900012    2    1    2    0    0  0.42553986201E+02  0.37397455281E+01  0.76678369394E+01  0.47787272338E+02  0.20000005898E+02 0.  0.
        -12    1    1    2    0    0 -0.42553986201E+02 -0.37397455281E+01 -0.76678369394E+01  0.43400727662E+02  0.00000000000E+00 0.  1.
         11    1    3    3    0    0  0.31864472351E+02 -0.31890736118E+00  0.51653166385E+01  0.32281988730E+02  0.51100000000E-03 0. -1.
        -11    1    3    3    0    0  0.81902608811E+01 -0.17704330844E+01  0.35074407305E+01  0.90838839351E+01  0.51100000000E-03 0.  1.
         12    1    3    3    0    0  0.24992529693E+01  0.58290859737E+01 -0.10049204296E+01  0.64213996732E+01  0.00000000000E+00 0. -1.
</event>
<event>
 7    1  0.2497395E-009  0.4778727E+02  0.7816164E-02  0.1312668E+00
        -11   -1    0    0    0    0  0.00000000000E+00  0.00000000000E+00  0.45593999997E+02  0.45594000000E+02  0.51100000000E-03 0.  1.
         11   -1    0    0    0    0 -0.00000000000E+00 -0.00000000000E+00 -0.45593999997E+02  0.45594000000E+02  0.51100000000E-03 0. -1.
    9900012    2    1    2    0    0  0.14339192745E+01  0.43339602166E+02  0.18017128475E+01  0.47787269481E+02  0.19999992870E+02 0.  0.
        -12    1    1    2    0    0 -0.14339192745E+01 -0.43339602166E+02 -0.18017128475E+01  0.43400730519E+02  0.00000000000E+00 0.  1.
         11    1    3    3    0    0 -0.36269896651E+01  0.21069041760E+02  0.52004829288E+01  0.22002377091E+02  0.51100000000E-03 0. -1.
        -11    1    3    3    0    0  0.16474626440E+01  0.29826962064E+00 -0.31274320766E+01  0.35473834843E+01  0.51100000000E-03 0.  1.
        -12    1    3    3    0    0  0.34134462956E+01  0.21972290786E+02 -0.27133800469E+00  0.22237508905E+02  0.00000000000E+00 0.  1.
</event>
<event>
 7    1  0.2497395E-009  0.4778727E+02  0.7816164E-02  0.1312668E+00
        -11   -1    0    0    0    0  0.00000000000E+00  0.00000000000E+00  0.45593999997E+02  0.45594000000E+02  0.51100000000E-03 0.  1.
         11   -1    0    0    0    0 -0.00000000000E+00 -0.00000000000E+00 -0.45593999997E+02  0.45594000000E+02  0.51100000000E-03 0. -1.
    9900012    2    1    2    0    0  0.14830413356E+02  0.36662516368E+02 -0.17875733289E+02  0.47787272963E+02  0.20000008747E+02 0.  0.
        -12    1    1    2    0    0 -0.14830413356E+02 -0.36662516368E+02  0.17875733289E+02  0.43400727037E+02  0.00000000000E+00 0.  1.
         11    1    3    3    0    0  0.32251378488E+01  0.21150054366E+02 -0.10721005947E+02  0.23930446770E+02  0.51100000000E-03 0. -1.
        -11    1    3    3    0    0  0.84925778163E+01  0.50288149914E+01  0.14049425823E+01  0.99692889467E+01  0.51100000000E-03 0.  1.
        -12    1    3    3    0    0  0.31126976905E+01  0.10483647011E+02 -0.85596699242E+01  0.13887537246E+02  0.00000000000E+00 0.  1.
</event>
<event>
 7    1  0.2497395E-009  0.4778726E+02  0.7816164E-02  0.1312668E+00
        -11   -1    0    0    0    0  0.00000000000E+00  0.00000000000E+00  0.45593999997E+02  0.45594000000E+02  0.51100000000E-03 0.  1.
         11   -1    0    0    0    0 -0.00000000000E+00 -0.00000000000E+00 -0.45593999997E+02  0.45594000000E+02  0.51100000000E-03 0. -1.
    9900012    2    1    2    0    0  0.15097176618E+02  0.13568471331E+02 -0.38361384485E+02  0.47787262959E+02  0.19999963137E+02 0.  0.
        -12    1    1    2    0    0 -0.15097176618E+02 -0.13568471331E+02  0.38361384485E+02  0.43400737041E+02  0.00000000000E+00 0.  1.
         11    1    3    3    0    0  0.66804398469E+01  0.16705324801E+01 -0.71936587394E+01  0.99582971252E+01  0.51100000000E-03 0. -1.
        -11    1    3    3    0    0  0.15358712408E+00 -0.25159728586E+01 -0.12726895440E-01  0.25206885299E+01  0.51100000000E-03 0.  1.
        -12    1    3    3    0    0  0.82631496468E+01  0.14413911709E+02 -0.31154998850E+02  0.35308277304E+02  0.00000000000E+00 0.  1.
</event>
<event>
 7    1  0.2497395E-009  0.4778727E+02  0.7816164E-02  0.1312668E+00
        -11   -1    0    0    0    0  0.00000000000E+00  0.00000000000E+00  0.45593999997E+02  0.45594000000E+02  0.51100000000E-03 0. -1.
         11   -1    0    0    0    0 -0.00000000000E+00 -0.00000000000E+00 -0.45593999997E+02  0.45594000000E+02  0.51100000000E-03 0.  1.
    9900012    2    1    2    0    0  0.21990327628E+02  0.23014666779E+02  0.29502098650E+02  0.47787271655E+02  0.20000002783E+02 0.  0.
        -12    1    1    2    0    0 -0.21990327628E+02 -0.23014666779E+02 -0.29502098650E+02  0.43400728345E+02  0.00000000000E+00 0.  1.
         11    1    3    3    0    0  0.42614361145E+01  0.10345169329E+02  0.16726223536E+02  0.20123342670E+02  0.51100000000E-03 0. -1.
        -11    1    3    3    0    0  0.72093286089E+01  0.38426902051E+01 -0.97859661020E+00  0.82279000109E+01  0.51100000000E-03 0.  1.
        -12    1    3    3    0    0  0.10519562905E+02  0.88268072449E+01  0.13754471724E+02  0.19436028974E+02  0.00000000000E+00 0.  1.
</event>
<event>
 7    1  0.2497395E-009  0.4778727E+02  0.7816164E-02  0.1312668E+00
        -11   -1    0    0    0    0  0.00000000000E+00  0.00000000000E+00  0.45593999997E+02  0.45594000000E+02  0.51100000000E-03 0.  1.
         11   -1    0    0    0    0 -0.00000000000E+00 -0.00000000000E+00 -0.45593999997E+02  0.45594000000E+02  0.51100000000E-03 0. -1.
    9900012    2    1    2    0    0  0.82614838164E+01 -0.18496377930E+02 -0.38383005073E+02  0.47787272013E+02  0.20000004417E+02 0.  0.
        -12    1    1    2    0    0 -0.82614838164E+01  0.18496377930E+02  0.38383005073E+02  0.43400727987E+02  0.00000000000E+00 0.  1.
         11    1    3    3    0    0  0.92604219967E+01 -0.39391760809E+01 -0.10306894492E+02  0.14405019892E+02  0.51100000000E-03 0. -1.
        -11    1    3    3    0    0  0.88317514918E+00  0.82005397045E+00  0.11931055433E+00  0.12110830393E+01  0.51100000000E-03 0.  1.
         12    1    3    3    0    0 -0.18821133294E+01 -0.15377255819E+02 -0.28195421135E+02  0.32171169082E+02  0.00000000000E+00 0. -1.
</event>
<event>
 7    1  0.2497395E-009  0.4778727E+02  0.7816164E-02  0.1312668E+00
        -11   -1    0    0    0    0  0.00000000000E+00  0.00000000000E+00  0.45593999997E+02  0.45594000000E+02  0.51100000000E-03 0. -1.
         11   -1    0    0    0    0 -0.00000000000E+00 -0.00000000000E+00 -0.45593999997E+02  0.45594000000E+02  0.51100000000E-03 0.  1.
    9900012    2    1    2    0    0  0.42246711494E+02 -0.94268368353E+01 -0.31580715323E+01  0.47787270737E+02  0.19999998599E+02 0.  0.
        -12    1    1    2    0    0 -0.42246711494E+02  0.94268368353E+01  0.31580715323E+01  0.43400729263E+02  0.00000000000E+00 0.  1.
         11    1    3    3    0    0  0.19935865993E+02 -0.88435977539E+01  0.52805969736E+01  0.22439533836E+02  0.51100000000E-03 0. -1.
        -11    1    3    3    0    0  0.13124806537E+02 -0.17283099106E+01 -0.91044515906E+01  0.16066693524E+02  0.51100000000E-03 0.  1.
         12    1    3    3    0    0  0.91860389634E+01  0.11450708292E+01  0.66578308466E+00  0.92810433765E+01  0.00000000000E+00 0. -1.
</event>
<event>
 7    1  0.2497395E-009  0.4778727E+02  0.7816164E-02  0.1312668E+00
        -11   -1    0    0    0    0  0.00000000000E+00  0.00000000000E+00  0.45593999997E+02  0.45594000000E+02  0.51100000000E-03 0.  1.
         11   -1    0    0    0    0 -0.00000000000E+00 -0.00000000000E+00 -0.45593999997E+02  0.45594000000E+02  0.51100000000E-03 0. -1.
    9900012    2    1    2    0    0 -0.10103291951E+02  0.41443731089E+02  0.79977558325E+01  0.47787268979E+02  0.19999990583E+02 0.  0.
        -12    1    1    2    0    0  0.10103291951E+02 -0.41443731089E+02 -0.79977558325E+01  0.43400731021E+02  0.00000000000E+00 0.  1.
         11    1    3    3    0    0 -0.42755669706E-01  0.54163205423E+01  0.46789079896E+01  0.71575510128E+01  0.51100000000E-03 0. -1.
        -11    1    3    3    0    0  0.66267984159E+00  0.15374466697E+02 -0.45784092810E+01  0.16055379242E+02  0.51100000000E-03 0.  1.
        -12    1    3    3    0    0 -0.10723216123E+02  0.20652943849E+02  0.78972571239E+01  0.24574338724E+02  0.00000000000E+00 0.  1.
</event>
<event>
 7    1  0.2497395E-009  0.4778727E+02  0.7816164E-02  0.1312668E+00
        -11   -1    0    0    0    0  0.00000000000E+00  0.00000000000E+00  0.45593999997E+02  0.45594000000E+02  0.51100000000E-03 0.  1.
         11   -1    0    0    0    0 -0.00000000000E+00 -0.00000000000E+00 -0.45593999997E+02  0.45594000000E+02  0.51100000000E-03 0. -1.
    9900012    2    1    2    0    0 -0.41898851491E+02 -0.10703836923E+02  0.36793039576E+01  0.47787272371E+02  0.20000006048E+02 0.  0.
        -12    1    1    2    0    0  0.41898851491E+02  0.10703836923E+02 -0.36793039576E+01  0.43400727629E+02  0.00000000000E+00 0.  1.
         11    1    3    3    0    0 -0.12008537714E+02  0.36627408338E+01 -0.28701002991E+01  0.12878591710E+02  0.51100000000E-03 0. -1.
        -11    1    3    3    0    0 -0.27994191312E+02 -0.13267171819E+02  0.35325162906E+01  0.31179661109E+02  0.51100000000E-03 0.  1.
        -12    1    3    3    0    0 -0.18961224654E+01 -0.10994059374E+01  0.30168879662E+01  0.37290195520E+01  0.00000000000E+00 0.  1.
</event>
<event>
 7    1  0.2497395E-009  0.4778727E+02  0.7816164E-02  0.1312668E+00
        -11   -1    0    0    0    0  0.00000000000E+00  0.00000000000E+00  0.45593999997E+02  0.45594000000E+02  0.51100000000E-03 0.  1.
         11   -1    0    0    0    0 -0.00000000000E+00 -0.00000000000E+00 -0.45593999997E+02  0.45594000000E+02  0.51100000000E-03 0. -1.
    9900012    2    1    2    0    0  0.30004460091E+02 -0.46046263287E+01 -0.31018587975E+02  0.47787274097E+02  0.20000013917E+02 0.  0.
        -12    1    1    2    0    0 -0.30004460091E+02  0.46046263287E+01  0.31018587975E+02  0.43400725903E+02  0.00000000000E+00 0.  1.
         11    1    3    3    0    0  0.21557264163E+02 -0.44479486391E+01 -0.98260442473E+01  0.24105000127E+02  0.51100000000E-03 0. -1.
        -11    1    3    3    0    0  0.37256437069E+01  0.23429986526E+01 -0.14298400053E+02  0.14960424728E+02  0.51100000000E-03 0.  1.
         12    1    3    3    0    0  0.47215522208E+01 -0.24996763422E+01 -0.68941436745E+01  0.87218492417E+01  0.00000000000E+00 0. -1.
</event>
<event>
 7    1  0.2497395E-009  0.4778728E+02  0.7816164E-02  0.1312668E+00
        -11   -1    0    0    0    0  0.00000000000E+00  0.00000000000E+00  0.45593999997E+02  0.45594000000E+02  0.51100000000E-03 0.  1.
         11   -1    0    0    0    0 -0.00000000000E+00 -0.00000000000E+00 -0.45593999997E+02  0.45594000000E+02  0.51100000000E-03 0. -1.
    9900012    2    1    2    0    0  0.12640665339E+02  0.34175360886E+02 -0.23577128001E+02  0.47787277924E+02  0.20000031368E+02 0.  0.
        -12    1    1    2    0    0 -0.12640665339E+02 -0.34175360886E+02  0.23577128001E+02  0.43400722076E+02  0.00000000000E+00 0.  1.
         11    1    3    3    0    0 -0.47097061670E+00  0.17604702178E+01 -0.32688988592E+01  0.37425617860E+01  0.51100000000E-03 0. -1.
        -11    1    3    3    0    0  0.55158748458E+01  0.16347358915E+01 -0.83942891690E+01  0.10176508619E+02  0.51100000000E-03 0.  1.
        -12    1    3    3    0    0  0.75957611101E+01  0.30780154777E+02 -0.11913939972E+02  0.33868207520E+02  0.00000000000E+00 0.  1.
</event>
<event>
 7    1  0.2497395E-009  0.4778726E+02  0.7816164E-02  0.1312668E+00
        -11   -1    0    0    0    0  0.00000000000E+00  0.00000000000E+00  0.45593999997E+02  0.45594000000E+02  0.51100000000E-03 0.  1.
         11   -1    0    0    0    0 -0.00000000000E+00 -0.00000000000E+00 -0.45593999997E+02  0.45594000000E+02  0.51100000000E-03 0. -1.
    9900012    2    1    2    0    0  0.90443437502E+01 -0.36114335729E+02  0.22306471184E+02  0.47787262038E+02  0.19999958934E+02 0.  0.
        -12    1    1    2    0    0 -0.90443437502E+01  0.36114335729E+02 -0.22306471184E+02  0.43400737962E+02  0.00000000000E+00 0.  1.
         11    1    3    3    0    0 -0.31496063835E+01 -0.17805362495E+01  0.15611959606E+01  0.39405155495E+01  0.51100000000E-03 0.  1.
        -11    1    3    3    0    0  0.63625941233E+01 -0.31125305006E+02  0.15371188586E+02  0.35292218045E+02  0.51100000000E-03 0. -1.
        -12    1    3    3    0    0  0.58313560104E+01 -0.32084944733E+01  0.53740866374E+01  0.85545284435E+01  0.00000000000E+00 0.  1.
</event>
<event>
 7    1  0.2497395E-009  0.4778727E+02  0.7816164E-02  0.1312668E+00
        -11   -1    0    0    0    0  0.00000000000E+00  0.00000000000E+00  0.45593999997E+02  0.45594000000E+02  0.51100000000E-03 0.  1.
         11   -1    0    0    0    0 -0.00000000000E+00 -0.00000000000E+00 -0.45593999997E+02  0.45594000000E+02  0.51100000000E-03 0. -1.
    9900012    2    1    2    0    0 -0.16352889737E+02 -0.31452986506E+02 -0.25038289596E+02  0.47787270643E+02  0.19999998168E+02 0.  0.
        -12    1    1    2    0    0  0.16352889737E+02  0.31452986506E+02  0.25038289596E+02  0.43400729357E+02  0.00000000000E+00 0.  1.
         11    1    3    3    0    0 -0.12550288183E+02 -0.11795091595E+02 -0.10208667012E+02  0.20021258742E+02  0.51100000000E-03 0. -1.
        -11    1    3    3    0    0  0.42885565259E+01 -0.41100573869E+01 -0.34637967179E+01  0.68762036593E+01  0.51100000000E-03 0.  1.
        -12    1    3    3    0    0 -0.80911580798E+01 -0.15547837523E+02 -0.11365825866E+02  0.20889808241E+02  0.00000000000E+00 0.  1.
</event>
<event>
 7    1  0.2497395E-009  0.4778727E+02  0.7816164E-02  0.1312668E+00
        -11   -1    0    0    0    0  0.00000000000E+00  0.00000000000E+00  0.45593999997E+02  0.45594000000E+02  0.51100000000E-03 0.  1.
         11   -1    0    0    0    0 -0.00000000000E+00 -0.00000000000E+00 -0.45593999997E+02  0.45594000000E+02  0.51100000000E-03 0. -1.
    9900012    2    1    2    0    0  0.25395025766E+02  0.34565878532E+02 -0.66269210605E+01  0.47787269879E+02  0.19999994684E+02 0.  0.
        -12    1    1    2    0    0 -0.25395025766E+02 -0.34565878532E+02  0.66269210605E+01  0.43400730121E+02  0.00000000000E+00 0.  1.
         11    1    3    3    0    0  0.26114013738E+01  0.42219371737E+01  0.31019163116E+01  0.58537215255E+01  0.51100000000E-03 0. -1.
        -11    1    3    3    0    0  0.23782872649E+02  0.26543078370E+02 -0.11734345306E+02  0.37521392576E+02  0.51100000000E-03 0.  1.
        -12    1    3    3    0    0 -0.99924825670E+00  0.38008629875E+01  0.20055079336E+01  0.44121557769E+01  0.00000000000E+00 0.  1.
</event>
<event>
 7    1  0.2497395E-009  0.4778727E+02  0.7816164E-02  0.1312668E+00
        -11   -1    0    0    0    0  0.00000000000E+00  0.00000000000E+00  0.45593999997E+02  0.45594000000E+02  0.51100000000E-03 0.  1.
         11   -1    0    0    0    0 -0.00000000000E+00 -0.00000000000E+00 -0.45593999997E+02  0.45594000000E+02  0.51100000000E-03 0. -1.
    9900012    2    1    2    0    0  0.28748294974E+02 -0.18880733402E+02 -0.26470296637E+02  0.47787272336E+02  0.20000005889E+02 0.  0.
        -12    1    1    2    0    0 -0.28748294974E+02  0.18880733402E+02  0.26470296637E+02  0.43400727664E+02  0.00000000000E+00 0.  1.
         11    1    3    3    0    0  0.88904344575E+01 -0.11247014963E+02 -0.93133100508E+00  0.14366716678E+02  0.51100000000E-03 0. -1.
        -11    1    3    3    0    0  0.62169638376E+01 -0.29847590562E+01 -0.10743390856E+02  0.12766357089E+02  0.51100000000E-03 0.  1.
         12    1    3    3    0    0  0.13640896679E+02 -0.46489593832E+01 -0.14795574777E+02  0.20654198569E+02  0.00000000000E+00 0. -1.
</event>
<event>
 7    1  0.2497395E-009  0.4778727E+02  0.7816164E-02  0.1312668E+00
        -11   -1    0    0    0    0  0.00000000000E+00  0.00000000000E+00  0.45593999997E+02  0.45594000000E+02  0.51100000000E-03 0. -1.
         11   -1    0    0    0    0 -0.00000000000E+00 -0.00000000000E+00 -0.45593999997E+02  0.45594000000E+02  0.51100000000E-03 0.  1.
    9900012    2    1    2    0    0  0.24482890654E+01 -0.26716764588E+02  0.34115153765E+02  0.47787270216E+02  0.19999996224E+02 0.  0.
        -12    1    1    2    0    0 -0.24482890654E+01  0.26716764588E+02 -0.34115153765E+02  0.43400729784E+02  0.00000000000E+00 0.  1.
         11    1    3    3    0    0  0.17069914367E+01 -0.72368145325E+01  0.15720300083E+02  0.17390029882E+02  0.51100000000E-03 0. -1.
        -11    1    3    3    0    0 -0.10634435528E+01 -0.21478926140E+02  0.16443838079E+02  0.27071663993E+02  0.51100000000E-03 0.  1.
        -12    1    3    3    0    0  0.18047411815E+01  0.19989760849E+01  0.19510156029E+01  0.33255763415E+01  0.00000000000E+00 0.  1.
</event>
<event>
 7    1  0.2497395E-009  0.4778727E+02  0.7816164E-02  0.1312668E+00
        -11   -1    0    0    0    0  0.00000000000E+00  0.00000000000E+00  0.45593999997E+02  0.45594000000E+02  0.51100000000E-03 0.  1.
         11   -1    0    0    0    0 -0.00000000000E+00 -0.00000000000E+00 -0.45593999997E+02  0.45594000000E+02  0.51100000000E-03 0. -1.
    9900012    2    1    2    0    0 -0.30967872178E+02  0.99052314864E+01 -0.28748924457E+02  0.47787269874E+02  0.19999994662E+02 0.  0.
        -12    1    1    2    0    0  0.30967872178E+02 -0.99052314864E+01  0.28748924457E+02  0.43400730126E+02  0.00000000000E+00 0.  1.
         11    1    3    3    0    0 -0.28063548861E+01  0.52360515098E+01  0.10025675645E+01  0.60246995894E+01  0.51100000000E-03 0. -1.
        -11    1    3    3    0    0 -0.17746143519E+02  0.23821864478E+00 -0.15501651065E+02  0.23564455095E+02  0.51100000000E-03 0.  1.
         12    1    3    3    0    0 -0.10415373774E+02  0.44309613318E+01 -0.14249840956E+02  0.18198115189E+02  0.00000000000E+00 0. -1.
</event>
<event>
 7    1  0.2497395E-009  0.4778727E+02  0.7816164E-02  0.1312668E+00
        -11   -1    0    0    0    0  0.00000000000E+00  0.00000000000E+00  0.45593999997E+02  0.45594000000E+02  0.51100000000E-03 0. -1.
         11   -1    0    0    0    0 -0.00000000000E+00 -0.00000000000E+00 -0.45593999997E+02  0.45594000000E+02  0.51100000000E-03 0.  1.
    9900012    2    1    2    0    0  0.15868787245E+02  0.40196537775E+02 -0.40054434946E+01  0.47787266880E+02  0.19999981012E+02 0.  0.
        -12    1    1    2    0    0 -0.15868787245E+02 -0.40196537775E+02  0.40054434946E+01  0.43400733120E+02  0.00000000000E+00 0.  1.
         11    1    3    3    0    0  0.12953913793E+02  0.26873650483E+02  0.24314313978E+01  0.29931736196E+02  0.51100000000E-03 0. -1.
        -11    1    3    3    0    0 -0.27503809240E+01  0.72957590714E+00 -0.11517047656E+01  0.30697394612E+01  0.51100000000E-03 0.  1.
        -12    1    3    3    0    0  0.56652543765E+01  0.12593311386E+02 -0.52851701268E+01  0.14785791223E+02  0.00000000000E+00 0.  1.
</event>
<event>
 7    1  0.2497395E-009  0.4778727E+02  0.7816164E-02  0.1312668E+00
        -11   -1    0    0    0    0  0.00000000000E+00  0.00000000000E+00  0.45593999997E+02  0.45594000000E+02  0.51100000000E-03 0.  1.
         11   -1    0    0    0    0 -0.00000000000E+00 -0.00000000000E+00 -0.45593999997E+02  0.45594000000E+02  0.51100000000E-03 0. -1.
    9900012    2    1    2    0    0  0.18341240623E+02  0.20489193955E+02 -0.33577003618E+02  0.47787270185E+02  0.19999996082E+02 0.  0.
        -12    1    1    2    0    0 -0.18341240623E+02 -0.20489193955E+02  0.33577003618E+02  0.43400729815E+02  0.00000000000E+00 0.  1.
         11    1    3    3    0    0  0.79816412837E+01  0.56030144875E+00 -0.76889344716E+01  0.11096857612E+02  0.51100000000E-03 0. -1.
        -11    1    3    3    0    0  0.90633285670E+01  0.13161137411E+02 -0.87495779454E+01  0.18218522913E+02  0.51100000000E-03 0.  1.
        -12    1    3    3    0    0  0.12962707719E+01  0.67677550958E+01 -0.17138491201E+02  0.18471889659E+02  0.00000000000E+00 0.  1.
</event>
<event>
 7    1  0.2497395E-009  0.4778728E+02  0.7816164E-02  0.1312668E+00
        -11   -1    0    0    0    0  0.00000000000E+00  0.00000000000E+00  0.45593999997E+02  0.45594000000E+02  0.51100000000E-03 0.  1.
         11   -1    0    0    0    0 -0.00000000000E+00 -0.00000000000E+00 -0.45593999997E+02  0.45594000000E+02  0.51100000000E-03 0. -1.
    9900012    2    1    2    0    0  0.22195448532E+02 -0.24630715368E+02 -0.28005582865E+02  0.47787277118E+02  0.20000027693E+02 0.  0.
        -12    1    1    2    0    0 -0.22195448532E+02  0.24630715368E+02  0.28005582865E+02  0.43400722882E+02  0.00000000000E+00 0.  1.
         11    1    3    3    0    0  0.14875169777E+02 -0.19376892055E+02 -0.19526554107E+02  0.31273326289E+02  0.51100000000E-03 0. -1.
        -11    1    3    3    0    0  0.73809640947E+01 -0.62256948751E+00 -0.67354923967E+00  0.74377343710E+01  0.51100000000E-03 0.  1.
        -12    1    3    3    0    0 -0.60685338951E-01 -0.46312538252E+01 -0.78054795175E+01  0.90762164585E+01  0.00000000000E+00 0.  1.
</event>
<event>
 7    1  0.2497395E-009  0.4778727E+02  0.7816164E-02  0.1312668E+00
        -11   -1    0    0    0    0  0.00000000000E+00  0.00000000000E+00  0.45593999997E+02  0.45594000000E+02  0.51100000000E-03 0. -1.
         11   -1    0    0    0    0 -0.00000000000E+00 -0.00000000000E+00 -0.45593999997E+02  0.45594000000E+02  0.51100000000E-03 0.  1.
    9900012    2    1    2    0    0  0.41737811962E+02 -0.54208632051E+00 -0.11886301174E+02  0.47787274654E+02  0.20000016456E+02 0.  0.
        -12    1    1    2    0    0 -0.41737811962E+02  0.54208632051E+00  0.11886301174E+02  0.43400725346E+02  0.00000000000E+00 0.  1.
         11    1    3    3    0    0  0.31629036124E+02  0.49510718968E+01 -0.59215931132E+01  0.32557246572E+02  0.51100000000E-03 0. -1.
        -11    1    3    3    0    0  0.10802616012E+02 -0.62363140966E+01 -0.65166155446E+01  0.14073180331E+02  0.51100000000E-03 0.  1.
        -12    1    3    3    0    0 -0.69384017403E+00  0.74315587933E+00  0.55190748362E+00  0.11568477508E+01  0.00000000000E+00 0.  1.
</event>
<event>
 7    1  0.2497395E-009  0.4778727E+02  0.7816164E-02  0.1312668E+00
        -11   -1    0    0    0    0  0.00000000000E+00  0.00000000000E+00  0.45593999997E+02  0.45594000000E+02  0.51100000000E-03 0.  1.
         11   -1    0    0    0    0 -0.00000000000E+00 -0.00000000000E+00 -0.45593999997E+02  0.45594000000E+02  0.51100000000E-03 0. -1.
    9900012    2    1    2    0    0  0.36593801035E+02 -0.19425095056E+02 -0.12929903254E+02  0.47787274312E+02  0.20000014899E+02 0.  0.
        -12    1    1    2    0    0 -0.36593801035E+02  0.19425095056E+02  0.12929903254E+02  0.43400725688E+02  0.00000000000E+00 0.  1.
         11    1    3    3    0    0  0.13402630263E+02 -0.61352053502E+01 -0.41798316838E+01  0.15321300070E+02  0.51100000000E-03 0. -1.
        -11    1    3    3    0    0  0.14600124617E+02 -0.94100758953E+01 -0.13416173309E+02  0.21947821616E+02  0.51100000000E-03 0.  1.
        -12    1    3    3    0    0  0.85910461544E+01 -0.38798138102E+01  0.46661017386E+01  0.10518152626E+02  0.00000000000E+00 0.  1.
</event>
<event>
 7    1  0.2497395E-009  0.4778725E+02  0.7816164E-02  0.1312668E+00
        -11   -1    0    0    0    0  0.00000000000E+00  0.00000000000E+00  0.45593999997E+02  0.45594000000E+02  0.51100000000E-03 0.  1.
         11   -1    0    0    0    0 -0.00000000000E+00 -0.00000000000E+00 -0.45593999997E+02  0.45594000000E+02  0.51100000000E-03 0. -1.
    9900012    2    1    2    0    0  0.18923581537E+02 -0.38703331136E+02  0.52511865753E+01  0.47787254158E+02  0.19999923006E+02 0.  0.
        -12    1    1    2    0    0 -0.18923581537E+02  0.38703331136E+02 -0.52511865753E+01  0.43400745842E+02  0.00000000000E+00 0.  1.
         11    1    3    3    0    0 -0.21571776536E+01 -0.82548603583E+01  0.16649389481E+01  0.86929947041E+01  0.51100000000E-03 0. -1.
        -11    1    3    3    0    0  0.18356450519E+02 -0.17932198281E+02  0.52012947629E+01  0.26183515393E+02  0.51100000000E-03 0.  1.
        -12    1    3    3    0    0  0.27243086713E+01 -0.12516272497E+02 -0.16150471357E+01  0.12910744061E+02  0.00000000000E+00 0.  1.
</event>
<event>
 7    1  0.2497395E-009  0.4778728E+02  0.7816164E-02  0.1312668E+00
        -11   -1    0    0    0    0  0.00000000000E+00  0.00000000000E+00  0.45593999997E+02  0.45594000000E+02  0.51100000000E-03 0. -1.
         11   -1    0    0    0    0 -0.00000000000E+00 -0.00000000000E+00 -0.45593999997E+02  0.45594000000E+02  0.51100000000E-03 0.  1.
    9900012    2    1    2    0    0  0.34449575579E+02 -0.25501150165E+02 -0.68220931332E+01  0.47787275673E+02  0.20000021105E+02 0.  0.
        -12    1    1    2    0    0 -0.34449575579E+02  0.25501150165E+02  0.68220931332E+01  0.43400724327E+02  0.00000000000E+00 0.  1.
         11    1    3    3    0    0  0.26438426344E+02 -0.12039967619E+02 -0.24685262736E+01  0.29155528293E+02  0.51100000000E-03 0. -1.
        -11    1    3    3    0    0  0.66166433862E+01 -0.71535367160E+01  0.15664172367E+01  0.98694843061E+01  0.51100000000E-03 0.  1.
         12    1    3    3    0    0  0.13945058491E+01 -0.63076458303E+01 -0.59199840963E+01  0.87622630744E+01  0.00000000000E+00 0. -1.
</event>
<event>
 7    1  0.2497395E-009  0.4778726E+02  0.7816164E-02  0.1312668E+00
        -11   -1    0    0    0    0  0.00000000000E+00  0.00000000000E+00  0.45593999997E+02  0.45594000000E+02  0.51100000000E-03 0.  1.
         11   -1    0    0    0    0 -0.00000000000E+00 -0.00000000000E+00 -0.45593999997E+02  0.45594000000E+02  0.51100000000E-03 0. -1.
    9900012    2    1    2    0    0 -0.33192355433E+02  0.27851091703E+02 -0.24916151360E+01  0.47787263667E+02  0.19999966363E+02 0.  0.
        -12    1    1    2    0    0  0.33192355433E+02 -0.27851091703E+02  0.24916151360E+01  0.43400736333E+02  0.00000000000E+00 0.  1.
         11    1    3    3    0    0 -0.18255259942E+02  0.17655258725E+02  0.28212072088E+01  0.25552336225E+02  0.51100000000E-03 0. -1.
        -11    1    3    3    0    0 -0.72531561106E+00  0.56626757092E+01 -0.45463002389E+01  0.72980014419E+01  0.51100000000E-03 0.  1.
         12    1    3    3    0    0 -0.14211779880E+02  0.45331572698E+01 -0.76652210598E+00  0.14936926000E+02  0.00000000000E+00 0. -1.
</event>
<event>
 7    1  0.2497395E-009  0.4778726E+02  0.7816164E-02  0.1312668E+00
        -11   -1    0    0    0    0  0.00000000000E+00  0.00000000000E+00  0.45593999997E+02  0.45594000000E+02  0.51100000000E-03 0.  1.
         11   -1    0    0    0    0 -0.00000000000E+00 -0.00000000000E+00 -0.45593999997E+02  0.45594000000E+02  0.51100000000E-03 0. -1.
    9900012    2    1    2    0    0 -0.21397178305E+02 -0.28435058457E+02 -0.24844155584E+02  0.47787264343E+02  0.19999969446E+02 0.  0.
        -12    1    1    2    0    0  0.21397178305E+02  0.28435058457E+02  0.24844155584E+02  0.43400735657E+02  0.00000000000E+00 0.  1.
         11    1    3    3    0    0 -0.21450986113E+02 -0.16577261847E+02 -0.22228186921E+02  0.35057705425E+02  0.51100000000E-03 0. -1.
        -11    1    3    3    0    0  0.72340216856E+00 -0.55228579611E+01  0.58437428898E+00  0.56006039252E+01  0.51100000000E-03 0.  1.
         12    1    3    3    0    0 -0.66959436062E+00 -0.63349386483E+01 -0.32003429517E+01  0.71289549931E+01  0.00000000000E+00 0. -1.
</event>
<event>
 7    1  0.2497395E-009  0.4778727E+02  0.7816164E-02  0.1312668E+00
        -11   -1    0    0    0    0  0.00000000000E+00  0.00000000000E+00  0.45593999997E+02  0.45594000000E+02  0.51100000000E-03 0.  1.
         11   -1    0    0    0    0 -0.00000000000E+00 -0.00000000000E+00 -0.45593999997E+02  0.45594000000E+02  0.51100000000E-03 0. -1.
    9900012    2    1    2    0    0 -0.24869533879E+02  0.32931212096E+02 -0.13441162508E+02  0.47787270801E+02  0.19999998890E+02 0.  0.
        -12    1    1    2    0    0  0.24869533879E+02 -0.32931212096E+02  0.13441162508E+02  0.43400729199E+02  0.00000000000E+00 0.  1.
         11    1    3    3    0    0 -0.11058691982E+02  0.16002033921E+02  0.17074601925E+01  0.19526268935E+02  0.51100000000E-03 0. -1.
        -11    1    3    3    0    0 -0.74340839380E+01  0.24967131395E+01 -0.32045804079E+01  0.84716300881E+01  0.51100000000E-03 0.  1.
         12    1    3    3    0    0 -0.63767579584E+01  0.14432465036E+02 -0.11944042293E+02  0.19789371778E+02  0.00000000000E+00 0. -1.
</event>
<event>
 7    1  0.2497395E-009  0.4778727E+02  0.7816164E-02  0.1312668E+00
        -11   -1    0    0    0    0  0.00000000000E+00  0.00000000000E+00  0.45593999997E+02  0.45594000000E+02  0.51100000000E-03 0.  1.
         11   -1    0    0    0    0 -0.00000000000E+00 -0.00000000000E+00 -0.45593999997E+02  0.45594000000E+02  0.51100000000E-03 0. -1.
    9900012    2    1    2    0    0 -0.22693715386E+02  0.30507110699E+02  0.20926889942E+02  0.47787271390E+02  0.20000001576E+02 0.  0.
        -12    1    1    2    0    0  0.22693715386E+02 -0.30507110699E+02 -0.20926889942E+02  0.43400728610E+02  0.00000000000E+00 0.  1.
         11    1    3    3    0    0 -0.51830841144E+01  0.12214947619E+02  0.99654276418E+01  0.16594548943E+02  0.51100000000E-03 0.  1.
        -11    1    3    3    0    0 -0.16829418631E+02  0.20273259604E+02  0.79449704703E+01  0.27520118867E+02  0.51100000000E-03 0. -1.
        -12    1    3    3    0    0 -0.68121264047E+00 -0.19810965238E+01  0.30164918295E+01  0.36726035800E+01  0.00000000000E+00 0.  1.
</event>
<event>
 7    1  0.2497395E-009  0.4778727E+02  0.7816164E-02  0.1312668E+00
        -11   -1    0    0    0    0  0.00000000000E+00  0.00000000000E+00  0.45593999997E+02  0.45594000000E+02  0.51100000000E-03 0. -1.
         11   -1    0    0    0    0 -0.00000000000E+00 -0.00000000000E+00 -0.45593999997E+02  0.45594000000E+02  0.51100000000E-03 0.  1.
    9900012    2    1    2    0    0 -0.76430686599E+01  0.32964653884E+02  0.27176059795E+02  0.47787272700E+02  0.20000007547E+02 0.  0.
        -12    1    1    2    0    0  0.76430686599E+01 -0.32964653884E+02 -0.27176059795E+02  0.43400727300E+02  0.00000000000E+00 0.  1.
         11    1    3    3    0    0 -0.63510658790E+01  0.27103714143E+02  0.12942241748E+02  0.30699331913E+02  0.51100000000E-03 0. -1.
        -11    1    3    3    0    0  0.28539623788E+01  0.90650510677E+00  0.44584359902E+01  0.53707080081E+01  0.51100000000E-03 0.  1.
         12    1    3    3    0    0 -0.41459651597E+01  0.49544346338E+01  0.97753820565E+01  0.11717232779E+02  0.00000000000E+00 0. -1.
</event>
<event>
 7    1  0.2497395E-009  0.4778727E+02  0.7816164E-02  0.1312668E+00
        -11   -1    0    0    0    0  0.00000000000E+00  0.00000000000E+00  0.45593999997E+02  0.45594000000E+02  0.51100000000E-03 0.  1.
         11   -1    0    0    0    0 -0.00000000000E+00 -0.00000000000E+00 -0.45593999997E+02  0.45594000000E+02  0.51100000000E-03 0. -1.
    9900012    2    1    2    0    0  0.22128939062E+02  0.31332385335E+02 -0.20303074108E+02  0.47787272667E+02  0.20000007399E+02 0.  0.
        -12    1    1    2    0    0 -0.22128939062E+02 -0.31332385335E+02  0.20303074108E+02  0.43400727333E+02  0.00000000000E+00 0.  1.
         11    1    3    3    0    0  0.24560774146E+01  0.57205514422E+01  0.26961017104E+01  0.67842457033E+01  0.51100000000E-03 0.  1.
        -11    1    3    3    0    0  0.92251424913E+01  0.12647077878E+02 -0.48843851916E+01  0.16398446628E+02  0.51100000000E-03 0. -1.
         12    1    3    3    0    0  0.10447719156E+02  0.12964756015E+02 -0.18114790627E+02  0.24604580336E+02  0.00000000000E+00 0. -1.
</event>
<event>
 7    1  0.2497395E-009  0.4778727E+02  0.7816164E-02  0.1312668E+00
        -11   -1    0    0    0    0  0.00000000000E+00  0.00000000000E+00  0.45593999997E+02  0.45594000000E+02  0.51100000000E-03 0.  1.
         11   -1    0    0    0    0 -0.00000000000E+00 -0.00000000000E+00 -0.45593999997E+02  0.45594000000E+02  0.51100000000E-03 0. -1.
    9900012    2    1    2    0    0 -0.18006715096E+02 -0.58670682730E+01 -0.39050723987E+02  0.47787270483E+02  0.19999997442E+02 0.  0.
        -12    1    1    2    0    0  0.18006715096E+02  0.58670682730E+01  0.39050723987E+02  0.43400729517E+02  0.00000000000E+00 0.  1.
         11    1    3    3    0    0 -0.11585585785E+02  0.10127999309E+00 -0.24879866346E+02  0.27445287488E+02  0.51100000000E-03 0. -1.
        -11    1    3    3    0    0 -0.40826692006E+01 -0.93376347300E+01 -0.11850149957E+02  0.15629640572E+02  0.51100000000E-03 0.  1.
        -12    1    3    3    0    0 -0.23384601098E+01  0.33692864639E+01 -0.23207076838E+01  0.47123424234E+01  0.00000000000E+00 0.  1.
</event>
<event>
 7    1  0.2497395E-009  0.4778726E+02  0.7816164E-02  0.1312668E+00
        -11   -1    0    0    0    0  0.00000000000E+00  0.00000000000E+00  0.45593999997E+02  0.45594000000E+02  0.51100000000E-03 0.  1.
         11   -1    0    0    0    0 -0.00000000000E+00 -0.00000000000E+00 -0.45593999997E+02  0.45594000000E+02  0.51100000000E-03 0. -1.
    9900012    2    1    2    0    0 -0.74629391766E+01  0.39800280774E+02 -0.15616230320E+02  0.47787257377E+02  0.19999937683E+02 0.  0.
        -12    1    1    2    0    0  0.74629391766E+01 -0.39800280774E+02  0.15616230320E+02  0.43400742623E+02  0.00000000000E+00 0.  1.
         11    1    3    3    0    0 -0.95410702119E+01  0.32364079578E+02 -0.11365251970E+02  0.35603856818E+02  0.51100000000E-03 0. -1.
        -11    1    3    3    0    0  0.52430272012E+01  0.58767937679E+01 -0.26564971661E+01  0.83116193775E+01  0.51100000000E-03 0.  1.
        -12    1    3    3    0    0 -0.31648961659E+01  0.15594074282E+01 -0.15944811839E+01  0.38717811810E+01  0.00000000000E+00 0.  1.
</event>
<event>
 7    1  0.2497395E-009  0.4778727E+02  0.7816164E-02  0.1312668E+00
        -11   -1    0    0    0    0  0.00000000000E+00  0.00000000000E+00  0.45593999997E+02  0.45594000000E+02  0.51100000000E-03 0.  1.
         11   -1    0    0    0    0 -0.00000000000E+00 -0.00000000000E+00 -0.45593999997E+02  0.45594000000E+02  0.51100000000E-03 0. -1.
    9900012    2    1    2    0    0  0.43957615537E+01 -0.41710279895E+02 -0.11160355930E+02  0.47787265985E+02  0.19999976931E+02 0.  0.
        -12    1    1    2    0    0 -0.43957615537E+01  0.41710279895E+02  0.11160355930E+02  0.43400734015E+02  0.00000000000E+00 0.  1.
         11    1    3    3    0    0  0.63662309271E+01 -0.14436252640E+02 -0.16307997692E+00  0.15778494283E+02  0.51100000000E-03 0. -1.
        -11    1    3    3    0    0  0.40208890769E+01 -0.58614968354E+01  0.20557960252E+00  0.71110447442E+01  0.51100000000E-03 0.  1.
        -12    1    3    3    0    0 -0.59913584503E+01 -0.21412530420E+02 -0.11202855555E+02  0.24897726957E+02  0.00000000000E+00 0.  1.
</event>
<event>
 7    1  0.2497395E-009  0.4778727E+02  0.7816164E-02  0.1312668E+00
        -11   -1    0    0    0    0  0.00000000000E+00  0.00000000000E+00  0.45593999997E+02  0.45594000000E+02  0.51100000000E-03 0.  1.
         11   -1    0    0    0    0 -0.00000000000E+00 -0.00000000000E+00 -0.45593999997E+02  0.45594000000E+02  0.51100000000E-03 0. -1.
    9900012    2    1    2    0    0  0.16201822021E+02  0.31495482356E+02 -0.25083031865E+02  0.47787274970E+02  0.20000017897E+02 0.  0.
        -12    1    1    2    0    0 -0.16201822021E+02 -0.31495482356E+02  0.25083031865E+02  0.43400725030E+02  0.00000000000E+00 0.  1.
         11    1    3    3    0    0  0.14834467393E+02  0.18865319569E+02 -0.11717467026E+02  0.26706941777E+02  0.51100000000E-03 0. -1.
        -11    1    3    3    0    0  0.27366154480E+00  0.12931450081E+02 -0.14531144962E+02  0.19453829084E+02  0.51100000000E-03 0.  1.
        -12    1    3    3    0    0  0.10936930830E+01 -0.30128729403E+00  0.11655801240E+01  0.16265041097E+01  0.00000000000E+00 0.  1.
</event>
<event>
 7    1  0.2497395E-009  0.4778727E+02  0.7816164E-02  0.1312668E+00
        -11   -1    0    0    0    0  0.00000000000E+00  0.00000000000E+00  0.45593999997E+02  0.45594000000E+02  0.51100000000E-03 0.  1.
         11   -1    0    0    0    0 -0.00000000000E+00 -0.00000000000E+00 -0.45593999997E+02  0.45594000000E+02  0.51100000000E-03 0. -1.
    9900012    2    1    2    0    0 -0.26451381347E+02 -0.21685051325E+02 -0.26715278436E+02  0.47787272724E+02  0.20000007659E+02 0.  0.
        -12    1    1    2    0    0  0.26451381347E+02  0.21685051325E+02  0.26715278436E+02  0.43400727276E+02  0.00000000000E+00 0.  1.
         11    1    3    3    0    0 -0.20970692322E+02 -0.16035632820E+02 -0.12167807085E+02  0.29068315843E+02  0.51100000000E-03 0. -1.
        -11    1    3    3    0    0 -0.14032517815E+01 -0.72582364359E+01 -0.88926810729E+01  0.11564207221E+02  0.51100000000E-03 0.  1.
         12    1    3    3    0    0 -0.40774372438E+01  0.16088179313E+01 -0.56547902784E+01  0.71547496606E+01  0.00000000000E+00 0. -1.
</event>
<event>
 7    1  0.2497395E-009  0.4778727E+02  0.7816164E-02  0.1312668E+00
        -11   -1    0    0    0    0  0.00000000000E+00  0.00000000000E+00  0.45593999997E+02  0.45594000000E+02  0.51100000000E-03 0. -1.
         11   -1    0    0    0    0 -0.00000000000E+00 -0.00000000000E+00 -0.45593999997E+02  0.45594000000E+02  0.51100000000E-03 0.  1.
    9900012    2    1    2    0    0  0.15473394759E+01 -0.41050279017E+02 -0.14003715714E+02  0.47787265898E+02  0.19999976535E+02 0.  0.
        -12    1    1    2    0    0 -0.15473394759E+01  0.41050279017E+02  0.14003715714E+02  0.43400734102E+02  0.00000000000E+00 0.  1.
         11    1    3    3    0    0  0.42793033944E-01 -0.15469848416E+02 -0.19691424100E+01  0.15594728704E+02  0.51100000000E-03 0. -1.
        -11    1    3    3    0    0  0.41174854509E+01 -0.52169708190E+00 -0.39578150411E+01  0.57349938486E+01  0.51100000000E-03 0.  1.
        -12    1    3    3    0    0 -0.26129390090E+01 -0.25058733518E+02 -0.80767582631E+01  0.26457543345E+02  0.00000000000E+00 0.  1.
</event>
<event>
 7    1  0.2497395E-009  0.4778727E+02  0.7816164E-02  0.1312668E+00
        -11   -1    0    0    0    0  0.00000000000E+00  0.00000000000E+00  0.45593999997E+02  0.45594000000E+02  0.51100000000E-03 0.  1.
         11   -1    0    0    0    0 -0.00000000000E+00 -0.00000000000E+00 -0.45593999997E+02  0.45594000000E+02  0.51100000000E-03 0. -1.
    9900012    2    1    2    0    0  0.23600877606E+02 -0.30944538810E+02 -0.19210864181E+02  0.47787271797E+02  0.20000003431E+02 0.  0.
        -12    1    1    2    0    0 -0.23600877606E+02  0.30944538810E+02  0.19210864181E+02  0.43400728203E+02  0.00000000000E+00 0.  1.
         11    1    3    3    0    0  0.23998678788E+00 -0.14380298466E+02 -0.35506970513E+01  0.14814115817E+02  0.51100000000E-03 0. -1.
        -11    1    3    3    0    0  0.16064021294E+02 -0.13788236659E+02 -0.12198852909E+02  0.24433179549E+02  0.51100000000E-03 0.  1.
        -12    1    3    3    0    0  0.72968695242E+01 -0.27760036857E+01 -0.34613142207E+01  0.85399764315E+01  0.00000000000E+00 0.  1.
</event>
<event>
 7    1  0.2497395E-009  0.4778727E+02  0.7816164E-02  0.1312668E+00
        -11   -1    0    0    0    0  0.00000000000E+00  0.00000000000E+00  0.45593999997E+02  0.45594000000E+02  0.51100000000E-03 0.  1.
         11   -1    0    0    0    0 -0.00000000000E+00 -0.00000000000E+00 -0.45593999997E+02  0.45594000000E+02  0.51100000000E-03 0. -1.
    9900012    2    1    2    0    0  0.32691113138E+01  0.43272635340E+02 -0.64438749178E+00  0.47787270821E+02  0.19999998979E+02 0.  0.
        -12    1    1    2    0    0 -0.32691113138E+01 -0.43272635340E+02  0.64438749178E+00  0.43400729179E+02  0.00000000000E+00 0.  1.
         11    1    3    3    0    0  0.28735544034E+01  0.24559973875E+02 -0.78223294339E+01  0.25935274622E+02  0.51100000000E-03 0. -1.
        -11    1    3    3    0    0 -0.30969247816E+01  0.15772447735E+02  0.55268812957E+01  0.16997278246E+02  0.51100000000E-03 0.  1.
         12    1    3    3    0    0  0.34924816920E+01  0.29402137303E+01  0.16510606464E+01  0.48547179534E+01  0.00000000000E+00 0. -1.
</event>
<event>
 7    1  0.2497395E-009  0.4778727E+02  0.7816164E-02  0.1312668E+00
        -11   -1    0    0    0    0  0.00000000000E+00  0.00000000000E+00  0.45593999997E+02  0.45594000000E+02  0.51100000000E-03 0.  1.
         11   -1    0    0    0    0 -0.00000000000E+00 -0.00000000000E+00 -0.45593999997E+02  0.45594000000E+02  0.51100000000E-03 0. -1.
    9900012    2    1    2    0    0 -0.27613158520E+02 -0.29868235451E+01 -0.33349892839E+02  0.47787274306E+02  0.20000014872E+02 0.  0.
        -12    1    1    2    0    0  0.27613158520E+02  0.29868235451E+01  0.33349892839E+02  0.43400725694E+02  0.00000000000E+00 0.  1.
         11    1    3    3    0    0 -0.15861184938E+02 -0.84356238461E+01 -0.28111742495E+02  0.33361759601E+02  0.51100000000E-03 0. -1.
        -11    1    3    3    0    0 -0.75510254020E+01  0.22516158646E+01 -0.16729308927E+01  0.80552130112E+01  0.51100000000E-03 0.  1.
         12    1    3    3    0    0 -0.42009481801E+01  0.31971844364E+01 -0.35652194513E+01  0.63703016936E+01  0.00000000000E+00 0. -1.
</event>
<event>
 7    1  0.2497395E-009  0.4778727E+02  0.7816164E-02  0.1312668E+00
        -11   -1    0    0    0    0  0.00000000000E+00  0.00000000000E+00  0.45593999997E+02  0.45594000000E+02  0.51100000000E-03 0.  1.
         11   -1    0    0    0    0 -0.00000000000E+00 -0.00000000000E+00 -0.45593999997E+02  0.45594000000E+02  0.51100000000E-03 0. -1.
    9900012    2    1    2    0    0  0.23076246747E+02  0.74760994834E+01 -0.35989140614E+02  0.47787268790E+02  0.19999989721E+02 0.  0.
        -12    1    1    2    0    0 -0.23076246747E+02 -0.74760994834E+01  0.35989140614E+02  0.43400731210E+02  0.00000000000E+00 0.  1.
         11    1    3    3    0    0  0.11843792070E+02  0.12317279075E+02 -0.18577361849E+02  0.25241021135E+02  0.51100000000E-03 0. -1.
        -11    1    3    3    0    0  0.12219202207E+02 -0.47676416700E+01 -0.14922783288E+02  0.19867782236E+02  0.51100000000E-03 0.  1.
        -12    1    3    3    0    0 -0.98674752996E+00 -0.73537921403E-01 -0.24889954775E+01  0.26784654190E+01  0.00000000000E+00 0.  1.
</event>
<event>
 7    1  0.2497395E-009  0.4778723E+02  0.7816164E-02  0.1312668E+00
        -11   -1    0    0    0    0  0.00000000000E+00  0.00000000000E+00  0.45593999997E+02  0.45594000000E+02  0.51100000000E-03 0.  1.
         11   -1    0    0    0    0 -0.00000000000E+00 -0.00000000000E+00 -0.45593999997E+02  0.45594000000E+02  0.51100000000E-03 0. -1.
    9900012    2    1    2    0    0 -0.35380963999E+02  0.13466213269E+02 -0.21224409016E+02  0.47787227525E+02  0.19999801578E+02 0.  0.
        -12    1    1    2    0    0  0.35380963999E+02 -0.13466213269E+02  0.21224409016E+02  0.43400772475E+02  0.00000000000E+00 0.  1.
         11    1    3    3    0    0 -0.59811378147E+01  0.84199037572E+01 -0.89772755711E+01  0.13684307282E+02  0.51100000000E-03 0. -1.
        -11    1    3    3    0    0 -0.11211312282E+02 -0.19648767106E+01 -0.60578386372E+00  0.11398299782E+02  0.51100000000E-03 0.  1.
        -12    1    3    3    0    0 -0.18188513903E+02  0.70111862221E+01 -0.11641349581E+02  0.22704620461E+02  0.00000000000E+00 0.  1.
</event>
<event>
 7    1  0.2497395E-009  0.4778727E+02  0.7816164E-02  0.1312668E+00
        -11   -1    0    0    0    0  0.00000000000E+00  0.00000000000E+00  0.45593999997E+02  0.45594000000E+02  0.51100000000E-03 0.  1.
         11   -1    0    0    0    0 -0.00000000000E+00 -0.00000000000E+00 -0.45593999997E+02  0.45594000000E+02  0.51100000000E-03 0. -1.
    9900012    2    1    2    0    0  0.41261847325E+02 -0.13001322136E+02  0.34711311939E+01  0.47787272198E+02  0.20000005259E+02 0.  0.
        -12    1    1    2    0    0 -0.41261847325E+02  0.13001322136E+02 -0.34711311939E+01  0.43400727802E+02  0.00000000000E+00 0.  1.
         11    1    3    3    0    0  0.14536698774E+02 -0.28722925774E+01 -0.10362996897E+01  0.14853942009E+02  0.51100000000E-03 0. -1.
        -11    1    3    3    0    0  0.24842996889E+02 -0.12677815392E+02  0.59284948798E+00  0.27897185671E+02  0.51100000000E-03 0.  1.
        -12    1    3    3    0    0  0.18821516615E+01  0.25487858338E+01  0.39145813956E+01  0.50361445180E+01  0.00000000000E+00 0.  1.
</event>
<event>
 7    1  0.2497395E-009  0.4778728E+02  0.7816164E-02  0.1312668E+00
        -11   -1    0    0    0    0  0.00000000000E+00  0.00000000000E+00  0.45593999997E+02  0.45594000000E+02  0.51100000000E-03 0.  1.
         11   -1    0    0    0    0 -0.00000000000E+00 -0.00000000000E+00 -0.45593999997E+02  0.45594000000E+02  0.51100000000E-03 0. -1.
    9900012    2    1    2    0    0  0.69773129185E+01  0.50421613246E+01 -0.42538407534E+02  0.47787281090E+02  0.20000045802E+02 0.  0.
        -12    1    1    2    0    0 -0.69773129185E+01 -0.50421613246E+01  0.42538407534E+02  0.43400718910E+02  0.00000000000E+00 0.  1.
         11    1    3    3    0    0  0.41339263342E+01  0.22127357463E+00 -0.31975640332E+02  0.32242516711E+02  0.51100000000E-03 0. -1.
        -11    1    3    3    0    0 -0.27732221910E+01  0.15994316624E+01 -0.54523679441E-01  0.32018613424E+01  0.51100000000E-03 0.  1.
         12    1    3    3    0    0  0.56166087753E+01  0.32214560875E+01 -0.10508243522E+02  0.12342903037E+02  0.00000000000E+00 0. -1.
</event>
<event>
 7    1  0.2497395E-009  0.4778726E+02  0.7816164E-02  0.1312668E+00
        -11   -1    0    0    0    0  0.00000000000E+00  0.00000000000E+00  0.45593999997E+02  0.45594000000E+02  0.51100000000E-03 0.  1.
         11   -1    0    0    0    0 -0.00000000000E+00 -0.00000000000E+00 -0.45593999997E+02  0.45594000000E+02  0.51100000000E-03 0. -1.
    9900012    2    1    2    0    0  0.16327448828E+02 -0.24916886443E+02 -0.31562440390E+02  0.47787257396E+02  0.19999937770E+02 0.  0.
        -12    1    1    2    0    0 -0.16327448828E+02  0.24916886443E+02  0.31562440390E+02  0.43400742604E+02  0.00000000000E+00 0.  1.
         11    1    3    3    0    0  0.86142875520E+01 -0.18273561595E+02 -0.24373267332E+02  0.31657308226E+02  0.51100000000E-03 0. -1.
        -11    1    3    3    0    0  0.89828527717E+01 -0.79315402379E+01 -0.43200705265E+01  0.12738288114E+02  0.51100000000E-03 0.  1.
         12    1    3    3    0    0 -0.12696914960E+01  0.12882153897E+01 -0.28691025311E+01  0.33916610561E+01  0.00000000000E+00 0. -1.
</event>
<event>
 7    1  0.2497395E-009  0.4778727E+02  0.7816164E-02  0.1312668E+00
        -11   -1    0    0    0    0  0.00000000000E+00  0.00000000000E+00  0.45593999997E+02  0.45594000000E+02  0.51100000000E-03 0.  1.
         11   -1    0    0    0    0 -0.00000000000E+00 -0.00000000000E+00 -0.45593999997E+02  0.45594000000E+02  0.51100000000E-03 0. -1.
    9900012    2    1    2    0    0 -0.32854575112E+02  0.13682859767E+02 -0.24839073335E+02  0.47787270498E+02  0.19999997509E+02 0.  0.
        -12    1    1    2    0    0  0.32854575112E+02 -0.13682859767E+02  0.24839073335E+02  0.43400729502E+02  0.00000000000E+00 0.  1.
         11    1    3    3    0    0 -0.23017901822E+02  0.39063298713E+01 -0.19408903428E+02  0.30360974126E+02  0.51100000000E-03 0. -1.
        -11    1    3    3    0    0 -0.12739660252E+00 -0.13959246910E+01  0.48936597502E+00  0.14846935562E+01  0.51100000000E-03 0.  1.
         12    1    3    3    0    0 -0.97092766870E+01  0.11172454587E+02 -0.59195358821E+01  0.15941602816E+02  0.00000000000E+00 0. -1.
</event>
<event>
 7    1  0.2497395E-009  0.4778727E+02  0.7816164E-02  0.1312668E+00
        -11   -1    0    0    0    0  0.00000000000E+00  0.00000000000E+00  0.45593999997E+02  0.45594000000E+02  0.51100000000E-03 0. -1.
         11   -1    0    0    0    0 -0.00000000000E+00 -0.00000000000E+00 -0.45593999997E+02  0.45594000000E+02  0.51100000000E-03 0.  1.
    9900012    2    1    2    0    0  0.26890783029E+02  0.26443013381E+02  0.21477343000E+02  0.47787269235E+02  0.19999991750E+02 0.  0.
        -12    1    1    2    0    0 -0.26890783029E+02 -0.26443013381E+02 -0.21477343000E+02  0.43400730765E+02  0.00000000000E+00 0.  1.
         11    1    3    3    0    0  0.25766105755E+02  0.23230186797E+02  0.21376458425E+02  0.40749070658E+02  0.51100000000E-03 0. -1.
        -11    1    3    3    0    0 -0.61139656473E-02  0.40133044437E+01 -0.20292374130E+01  0.44971607352E+01  0.51100000000E-03 0.  1.
         12    1    3    3    0    0  0.11307912397E+01 -0.80047785944E+00  0.21301219877E+01  0.25410378418E+01  0.00000000000E+00 0. -1.
</event>
<event>
 7    1  0.2497395E-009  0.4778725E+02  0.7816164E-02  0.1312668E+00
        -11   -1    0    0    0    0  0.00000000000E+00  0.00000000000E+00  0.45593999997E+02  0.45594000000E+02  0.51100000000E-03 0.  1.
         11   -1    0    0    0    0 -0.00000000000E+00 -0.00000000000E+00 -0.45593999997E+02  0.45594000000E+02  0.51100000000E-03 0. -1.
    9900012    2    1    2    0    0  0.20731014018E+02  0.10950109090E+02 -0.36523209633E+02  0.47787254923E+02  0.19999926497E+02 0.  0.
        -12    1    1    2    0    0 -0.20731014018E+02 -0.10950109090E+02  0.36523209633E+02  0.43400745077E+02  0.00000000000E+00 0.  1.
         11    1    3    3    0    0  0.10131594224E+02  0.76539155619E+01 -0.19639152656E+02  0.23386490593E+02  0.51100000000E-03 0. -1.
        -11    1    3    3    0    0  0.48355396607E+01 -0.38880508961E+01 -0.13633123174E+01  0.63527950004E+01  0.51100000000E-03 0.  1.
        -12    1    3    3    0    0  0.57638801331E+01  0.71842444246E+01 -0.15520744660E+02  0.18047969330E+02  0.00000000000E+00 0.  1.
</event>
<event>
 7    1  0.2497395E-009  0.4778728E+02  0.7816164E-02  0.1312668E+00
        -11   -1    0    0    0    0  0.00000000000E+00  0.00000000000E+00  0.45593999997E+02  0.45594000000E+02  0.51100000000E-03 0.  1.
         11   -1    0    0    0    0 -0.00000000000E+00 -0.00000000000E+00 -0.45593999997E+02  0.45594000000E+02  0.51100000000E-03 0. -1.
    9900012    2    1    2    0    0  0.16757236204E+02 -0.99097436756E+00 -0.40022942234E+02  0.47787275346E+02  0.20000019613E+02 0.  0.
        -12    1    1    2    0    0 -0.16757236204E+02  0.99097436756E+00  0.40022942234E+02  0.43400724654E+02  0.00000000000E+00 0.  1.
         11    1    3    3    0    0  0.13948709889E+02  0.17923695841E+01 -0.32070241480E+02  0.35018273589E+02  0.51100000000E-03 0. -1.
        -11    1    3    3    0    0 -0.21076635673E+01 -0.37859560609E+01 -0.59639059254E+01  0.73718303803E+01  0.51100000000E-03 0.  1.
         12    1    3    3    0    0  0.49161898823E+01  0.10026121093E+01 -0.19887948292E+01  0.53971713770E+01  0.00000000000E+00 0. -1.
</event>
<event>
 7    1  0.2497395E-009  0.4778727E+02  0.7816164E-02  0.1312668E+00
        -11   -1    0    0    0    0  0.00000000000E+00  0.00000000000E+00  0.45593999997E+02  0.45594000000E+02  0.51100000000E-03 0. -1.
         11   -1    0    0    0    0 -0.00000000000E+00 -0.00000000000E+00 -0.45593999997E+02  0.45594000000E+02  0.51100000000E-03 0.  1.
    9900012    2    1    2    0    0 -0.20192463665E+01 -0.37725660055E+02  0.21361658837E+02  0.47787271311E+02  0.20000001214E+02 0.  0.
        -12    1    1    2    0    0  0.20192463665E+01  0.37725660055E+02 -0.21361658837E+02  0.43400728689E+02  0.00000000000E+00 0.  1.
         11    1    3    3    0    0 -0.51693898130E+00 -0.17194879996E+02  0.20979793783E+02  0.27130847230E+02  0.51100000000E-03 0. -1.
        -11    1    3    3    0    0 -0.54716890567E+00 -0.16534079686E+02  0.36422775951E+00  0.16547140145E+02  0.51100000000E-03 0.  1.
         12    1    3    3    0    0 -0.95513847957E+00 -0.39967003730E+01  0.17637295183E-01  0.41092839353E+01  0.00000000000E+00 0. -1.
</event>
<event>
 7    1  0.2497395E-009  0.4778727E+02  0.7816164E-02  0.1312668E+00
        -11   -1    0    0    0    0  0.00000000000E+00  0.00000000000E+00  0.45593999997E+02  0.45594000000E+02  0.51100000000E-03 0. -1.
         11   -1    0    0    0    0 -0.00000000000E+00 -0.00000000000E+00 -0.45593999997E+02  0.45594000000E+02  0.51100000000E-03 0.  1.
    9900012    2    1    2    0    0  0.28455583536E+02 -0.28575998127E+02 -0.16041054310E+02  0.47787270436E+02  0.19999997225E+02 0.  0.
        -12    1    1    2    0    0 -0.28455583536E+02  0.28575998127E+02  0.16041054310E+02  0.43400729564E+02  0.00000000000E+00 0.  1.
         11    1    3    3    0    0  0.10083766704E+02 -0.34064484132E+01 -0.61204129514E+00  0.10661183637E+02  0.51100000000E-03 0. -1.
        -11    1    3    3    0    0  0.89752918721E+01 -0.22086061117E+02 -0.11705972189E+02  0.26558986144E+02  0.51100000000E-03 0.  1.
        -12    1    3    3    0    0  0.93965249604E+01 -0.30834885961E+01 -0.37230408268E+01  0.10567100655E+02  0.00000000000E+00 0.  1.
</event>
<event>
 7    1  0.2497395E-009  0.4778727E+02  0.7816164E-02  0.1312668E+00
        -11   -1    0    0    0    0  0.00000000000E+00  0.00000000000E+00  0.45593999997E+02  0.45594000000E+02  0.51100000000E-03 0.  1.
         11   -1    0    0    0    0 -0.00000000000E+00 -0.00000000000E+00 -0.45593999997E+02  0.45594000000E+02  0.51100000000E-03 0. -1.
    9900012    2    1    2    0    0 -0.41644492273E+01 -0.11729746329E+02 -0.41577566392E+02  0.47787267133E+02  0.19999982167E+02 0.  0.
        -12    1    1    2    0    0  0.41644492273E+01  0.11729746329E+02  0.41577566392E+02  0.43400732867E+02  0.00000000000E+00 0.  1.
         11    1    3    3    0    0 -0.69828765709E+01  0.21330885440E+01 -0.12525342410E+02  0.14498097623E+02  0.51100000000E-03 0. -1.
        -11    1    3    3    0    0  0.44528668217E+01 -0.13725619031E+02 -0.24295444871E+02  0.28257552662E+02  0.51100000000E-03 0.  1.
        -12    1    3    3    0    0 -0.16344394781E+01 -0.13721584254E+00 -0.47567791110E+01  0.50316168481E+01  0.00000000000E+00 0.  1.
</event>
<event>
 7    1  0.2497395E-009  0.4778727E+02  0.7816164E-02  0.1312668E+00
        -11   -1    0    0    0    0  0.00000000000E+00  0.00000000000E+00  0.45593999997E+02  0.45594000000E+02  0.51100000000E-03 0.  1.
         11   -1    0    0    0    0 -0.00000000000E+00 -0.00000000000E+00 -0.45593999997E+02  0.45594000000E+02  0.51100000000E-03 0. -1.
    9900012    2    1    2    0    0 -0.20405967692E+02  0.19180958714E+02 -0.33155853861E+02  0.47787270284E+02  0.19999996532E+02 0.  0.
        -12    1    1    2    0    0  0.20405967692E+02 -0.19180958714E+02  0.33155853861E+02  0.43400729716E+02  0.00000000000E+00 0.  1.
         11    1    3    3    0    0 -0.18858529225E+02  0.90181669537E+01 -0.21777528412E+02  0.30186622927E+02  0.51100000000E-03 0. -1.
        -11    1    3    3    0    0 -0.39041613550E+01  0.38198698941E+01 -0.15672805890E+01  0.56824511084E+01  0.51100000000E-03 0.  1.
         12    1    3    3    0    0  0.23567228877E+01  0.63429218663E+01 -0.98110448601E+01  0.11918196249E+02  0.00000000000E+00 0. -1.
</event>
<event>
 7    1  0.2497395E-009  0.4778727E+02  0.7816164E-02  0.1312668E+00
        -11   -1    0    0    0    0  0.00000000000E+00  0.00000000000E+00  0.45593999997E+02  0.45594000000E+02  0.51100000000E-03 0.  1.
         11   -1    0    0    0    0 -0.00000000000E+00 -0.00000000000E+00 -0.45593999997E+02  0.45594000000E+02  0.51100000000E-03 0. -1.
    9900012    2    1    2    0    0 -0.67868872694E+01 -0.42367839361E+02 -0.65213272045E+01  0.47787270059E+02  0.19999995506E+02 0.  0.
        -12    1    1    2    0    0  0.67868872694E+01  0.42367839361E+02  0.65213272045E+01  0.43400729941E+02  0.00000000000E+00 0.  1.
         11    1    3    3    0    0 -0.93990819508E+01 -0.30622243362E+02 -0.53912638614E+00  0.32036778670E+02  0.51100000000E-03 0. -1.
        -11    1    3    3    0    0 -0.25332239826E+01 -0.35141554842E+01 -0.38856693851E+01  0.58193590149E+01  0.51100000000E-03 0.  1.
         12    1    3    3    0    0  0.51454186640E+01 -0.82314405148E+01 -0.20965314333E+01  0.99311323738E+01  0.00000000000E+00 0. -1.
</event>
<event>
 7    1  0.2497395E-009  0.4778727E+02  0.7816164E-02  0.1312668E+00
        -11   -1    0    0    0    0  0.00000000000E+00  0.00000000000E+00  0.45593999997E+02  0.45594000000E+02  0.51100000000E-03 0.  1.
         11   -1    0    0    0    0 -0.00000000000E+00 -0.00000000000E+00 -0.45593999997E+02  0.45594000000E+02  0.51100000000E-03 0. -1.
    9900012    2    1    2    0    0 -0.28027808338E+01 -0.69058536322E+01 -0.42756013629E+02  0.47787273091E+02  0.20000009330E+02 0.  0.
        -12    1    1    2    0    0  0.28027808338E+01  0.69058536322E+01  0.42756013629E+02  0.43400726909E+02  0.00000000000E+00 0.  1.
         11    1    3    3    0    0  0.60486359133E+01 -0.28671474387E+01 -0.29146309118E+02  0.29905080945E+02  0.51100000000E-03 0. -1.
        -11    1    3    3    0    0 -0.82505206639E+01 -0.15158109435E+01 -0.12516880510E+02  0.15067882134E+02  0.51100000000E-03 0.  1.
         12    1    3    3    0    0 -0.60089608315E+00 -0.25228952501E+01 -0.10928240013E+01  0.28143100120E+01  0.00000000000E+00 0. -1.
</event>
<event>
 7    1  0.2497395E-009  0.4778725E+02  0.7816164E-02  0.1312668E+00
        -11   -1    0    0    0    0  0.00000000000E+00  0.00000000000E+00  0.45593999997E+02  0.45594000000E+02  0.51100000000E-03 0.  1.
         11   -1    0    0    0    0 -0.00000000000E+00 -0.00000000000E+00 -0.45593999997E+02  0.45594000000E+02  0.51100000000E-03 0. -1.
    9900012    2    1    2    0    0 -0.80792051698E+01  0.47742212258E+01 -0.42374030332E+02  0.47787248957E+02  0.19999899296E+02 0.  0.
        -12    1    1    2    0    0  0.80792051698E+01 -0.47742212258E+01  0.42374030332E+02  0.43400751043E+02  0.00000000000E+00 0.  1.
         11    1    3    3    0    0 -0.36212374300E+01  0.42326421626E+01 -0.53430003186E+01  0.77185667625E+01  0.51100000000E-03 0. -1.
        -11    1    3    3    0    0 -0.79066318331E+01 -0.18980025185E+01 -0.33761550126E+02  0.34726927703E+02  0.51100000000E-03 0.  1.
        -12    1    3    3    0    0  0.34486640934E+01  0.24395815817E+01 -0.32694798875E+01  0.53417544924E+01  0.00000000000E+00 0.  1.
</event>
<event>
 7    1  0.2497395E-009  0.4778728E+02  0.7816164E-02  0.1312668E+00
        -11   -1    0    0    0    0  0.00000000000E+00  0.00000000000E+00  0.45593999997E+02  0.45594000000E+02  0.51100000000E-03 0.  1.
         11   -1    0    0    0    0 -0.00000000000E+00 -0.00000000000E+00 -0.45593999997E+02  0.45594000000E+02  0.51100000000E-03 0. -1.
    9900012    2    1    2    0    0 -0.72638742184E+01  0.34778694392E+02 -0.24925908153E+02  0.47787281694E+02  0.20000048554E+02 0.  0.
        -12    1    1    2    0    0  0.72638742184E+01 -0.34778694392E+02  0.24925908153E+02  0.43400718306E+02  0.00000000000E+00 0.  1.
         11    1    3    3    0    0 -0.56669750923E+01  0.82937680379E+01 -0.24726601705E+01  0.10344817231E+02  0.51100000000E-03 0. -1.
        -11    1    3    3    0    0  0.20099391260E+01 -0.60335706221E+00 -0.38473385004E+01  0.43824546584E+01  0.51100000000E-03 0.  1.
        -12    1    3    3    0    0 -0.36068382522E+01  0.27088283416E+02 -0.18605909482E+02  0.33060009804E+02  0.00000000000E+00 0.  1.
</event>
<event>
 7    1  0.2497395E-009  0.4778727E+02  0.7816164E-02  0.1312668E+00
        -11   -1    0    0    0    0  0.00000000000E+00  0.00000000000E+00  0.45593999997E+02  0.45594000000E+02  0.51100000000E-03 0.  1.
         11   -1    0    0    0    0 -0.00000000000E+00 -0.00000000000E+00 -0.45593999997E+02  0.45594000000E+02  0.51100000000E-03 0. -1.
    9900012    2    1    2    0    0 -0.35099348396E+02 -0.47314877192E+01 -0.25085299697E+02  0.47787268500E+02  0.19999988401E+02 0.  0.
        -12    1    1    2    0    0  0.35099348396E+02  0.47314877192E+01  0.25085299697E+02  0.43400731500E+02  0.00000000000E+00 0.  1.
         11    1    3    3    0    0 -0.18530551863E+02  0.22898391473E+01 -0.17117304253E+02  0.25330353745E+02  0.51100000000E-03 0. -1.
        -11    1    3    3    0    0 -0.41094679805E+01 -0.66152544277E+01 -0.24317973992E+00  0.77915630571E+01  0.51100000000E-03 0.  1.
         12    1    3    3    0    0 -0.12459328552E+02 -0.40607243887E+00 -0.77248157035E+01  0.14665351698E+02  0.00000000000E+00 0. -1.
</event>
<event>
 7    1  0.2497395E-009  0.4778727E+02  0.7816164E-02  0.1312668E+00
        -11   -1    0    0    0    0  0.00000000000E+00  0.00000000000E+00  0.45593999997E+02  0.45594000000E+02  0.51100000000E-03 0.  1.
         11   -1    0    0    0    0 -0.00000000000E+00 -0.00000000000E+00 -0.45593999997E+02  0.45594000000E+02  0.51100000000E-03 0. -1.
    9900012    2    1    2    0    0  0.20421195986E+02  0.16759870062E+02 -0.34434067491E+02  0.47787268509E+02  0.19999988440E+02 0.  0.
        -12    1    1    2    0    0 -0.20421195986E+02 -0.16759870062E+02  0.34434067491E+02  0.43400731491E+02  0.00000000000E+00 0.  1.
         11    1    3    3    0    0  0.78028887958E+00 -0.29351028133E+00 -0.87793185638E+01  0.88188113556E+01  0.51100000000E-03 0. -1.
        -11    1    3    3    0    0  0.20954222001E+02  0.18011590747E+02 -0.23527021184E+02  0.36290736379E+02  0.51100000000E-03 0.  1.
        -12    1    3    3    0    0 -0.13133148954E+01 -0.95821040358E+00 -0.21277277438E+01  0.26777207740E+01  0.00000000000E+00 0.  1.
</event>
<event>
 7    1  0.2497395E-009  0.4778727E+02  0.7816164E-02  0.1312668E+00
        -11   -1    0    0    0    0  0.00000000000E+00  0.00000000000E+00  0.45593999997E+02  0.45594000000E+02  0.51100000000E-03 0.  1.
         11   -1    0    0    0    0 -0.00000000000E+00 -0.00000000000E+00 -0.45593999997E+02  0.45594000000E+02  0.51100000000E-03 0. -1.
    9900012    2    1    2    0    0  0.75892209750E+01  0.33498401804E+02 -0.26530816323E+02  0.47787269439E+02  0.19999992680E+02 0.  0.
        -12    1    1    2    0    0 -0.75892209750E+01 -0.33498401804E+02  0.26530816323E+02  0.43400730561E+02  0.00000000000E+00 0.  1.
         11    1    3    3    0    0  0.72626109832E+01  0.49299107740E+01 -0.26447581671E+01  0.91675669922E+01  0.51100000000E-03 0. -1.
        -11    1    3    3    0    0  0.27264990582E+01  0.22792432833E+01 -0.10259884583E+01  0.36988376061E+01  0.51100000000E-03 0.  1.
         12    1    3    3    0    0 -0.23998890663E+01  0.26289247747E+02 -0.22860069698E+02  0.34920864841E+02  0.00000000000E+00 0. -1.
</event>
<event>
 7    1  0.2497395E-009  0.4778727E+02  0.7816164E-02  0.1312668E+00
        -11   -1    0    0    0    0  0.00000000000E+00  0.00000000000E+00  0.45593999997E+02  0.45594000000E+02  0.51100000000E-03 0. -1.
         11   -1    0    0    0    0 -0.00000000000E+00 -0.00000000000E+00 -0.45593999997E+02  0.45594000000E+02  0.51100000000E-03 0.  1.
    9900012    2    1    2    0    0 -0.51432074058E+01 -0.14349284656E+02  0.40635809332E+02  0.47787267833E+02  0.19999985360E+02 0.  0.
        -12    1    1    2    0    0  0.51432074058E+01  0.14349284656E+02 -0.40635809332E+02  0.43400732167E+02  0.00000000000E+00 0.  1.
         11    1    3    3    0    0  0.11258840215E+01 -0.14455405057E+02  0.27886511193E+02  0.31430619735E+02  0.51100000000E-03 0. -1.
        -11    1    3    3    0    0 -0.40067022254E+01 -0.28051580118E+01  0.25594324130E+01  0.55202598428E+01  0.51100000000E-03 0.  1.
         12    1    3    3    0    0 -0.22623892019E+01  0.29112784132E+01  0.10189865726E+02  0.10836388255E+02  0.00000000000E+00 0. -1.
</event>
<event>
 7    1  0.2497395E-009  0.4778727E+02  0.7816164E-02  0.1312668E+00
        -11   -1    0    0    0    0  0.00000000000E+00  0.00000000000E+00  0.45593999997E+02  0.45594000000E+02  0.51100000000E-03 0.  1.
         11   -1    0    0    0    0 -0.00000000000E+00 -0.00000000000E+00 -0.45593999997E+02  0.45594000000E+02  0.51100000000E-03 0. -1.
    9900012    2    1    2    0    0 -0.41638854206E+01 -0.24014160920E+02 -0.35911078252E+02  0.47787269503E+02  0.19999992970E+02 0.  0.
        -12    1    1    2    0    0  0.41638854206E+01  0.24014160920E+02  0.35911078252E+02  0.43400730497E+02  0.00000000000E+00 0.  1.
         11    1    3    3    0    0  0.55015310579E+01 -0.10141660418E+02 -0.11191043358E+02  0.16073567486E+02  0.51100000000E-03 0. -1.
        -11    1    3    3    0    0 -0.74098117439E+01 -0.51366464107E+01 -0.19000607980E+02  0.21031251753E+02  0.51100000000E-03 0.  1.
         12    1    3    3    0    0 -0.22556047345E+01 -0.87358540905E+01 -0.57194269145E+01  0.10682450264E+02  0.00000000000E+00 0. -1.
</event>
<event>
 7    1  0.2497395E-009  0.4778727E+02  0.7816164E-02  0.1312668E+00
        -11   -1    0    0    0    0  0.00000000000E+00  0.00000000000E+00  0.45593999997E+02  0.45594000000E+02  0.51100000000E-03 0.  1.
         11   -1    0    0    0    0 -0.00000000000E+00 -0.00000000000E+00 -0.45593999997E+02  0.45594000000E+02  0.51100000000E-03 0. -1.
    9900012    2    1    2    0    0  0.22539667854E+02  0.52595572634E+01 -0.36714079188E+02  0.47787272124E+02  0.20000004921E+02 0.  0.
        -12    1    1    2    0    0 -0.22539667854E+02 -0.52595572634E+01  0.36714079188E+02  0.43400727876E+02  0.00000000000E+00 0.  1.
         11    1    3    3    0    0  0.74343171872E+01 -0.48054571953E+01 -0.16738569350E+02  0.18935184051E+02  0.51100000000E-03 0. -1.
        -11    1    3    3    0    0  0.13565949588E+02  0.63430812025E+01 -0.97706580431E+01  0.17881147229E+02  0.51100000000E-03 0.  1.
        -12    1    3    3    0    0  0.15394010787E+01  0.37219332561E+01 -0.10204851795E+02  0.10970940844E+02  0.00000000000E+00 0.  1.
</event>
<event>
 7    1  0.2497395E-009  0.4778727E+02  0.7816164E-02  0.1312668E+00
        -11   -1    0    0    0    0  0.00000000000E+00  0.00000000000E+00  0.45593999997E+02  0.45594000000E+02  0.51100000000E-03 0.  1.
         11   -1    0    0    0    0 -0.00000000000E+00 -0.00000000000E+00 -0.45593999997E+02  0.45594000000E+02  0.51100000000E-03 0. -1.
    9900012    2    1    2    0    0 -0.32603008605E+02 -0.20165798288E+02 -0.20347173138E+02  0.47787273677E+02  0.20000012003E+02 0.  0.
        -12    1    1    2    0    0  0.32603008605E+02  0.20165798288E+02  0.20347173138E+02  0.43400726323E+02  0.00000000000E+00 0.  1.
         11    1    3    3    0    0 -0.17744321634E+02 -0.14637700409E+02 -0.19550877431E+02  0.30188740154E+02  0.51100000000E-03 0. -1.
        -11    1    3    3    0    0  0.62018510460E-01 -0.48187424135E-01 -0.16771248164E+01  0.16789628448E+01  0.51100000000E-03 0.  1.
         12    1    3    3    0    0 -0.14920705482E+02 -0.54799104553E+01  0.88082910944E+00  0.15919570679E+02  0.00000000000E+00 0. -1.
</event>
<event>
 7    1  0.2497395E-009  0.4778727E+02  0.7816164E-02  0.1312668E+00
        -11   -1    0    0    0    0  0.00000000000E+00  0.00000000000E+00  0.45593999997E+02  0.45594000000E+02  0.51100000000E-03 0.  1.
         11   -1    0    0    0    0 -0.00000000000E+00 -0.00000000000E+00 -0.45593999997E+02  0.45594000000E+02  0.51100000000E-03 0. -1.
    9900012    2    1    2    0    0  0.75001361189E+01  0.25289972282E+02 -0.34464311469E+02  0.47787268383E+02  0.19999987868E+02 0.  0.
        -12    1    1    2    0    0 -0.75001361189E+01 -0.25289972282E+02  0.34464311469E+02  0.43400731617E+02  0.00000000000E+00 0.  1.
         11    1    3    3    0    0  0.28610504071E+01  0.97537103613E+01 -0.21280200188E+01  0.10385034651E+02  0.51100000000E-03 0. -1.
        -11    1    3    3    0    0  0.24236366981E+01 -0.42744499817E+00 -0.65109435791E+01  0.69605395353E+01  0.51100000000E-03 0.  1.
         12    1    3    3    0    0  0.22154490136E+01  0.15963706918E+02 -0.25825347871E+02  0.30441694197E+02  0.00000000000E+00 0. -1.
</event>
<event>
 7    1  0.2497395E-009  0.4778730E+02  0.7816164E-02  0.1312668E+00
        -11   -1    0    0    0    0  0.00000000000E+00  0.00000000000E+00  0.45593999997E+02  0.45594000000E+02  0.51100000000E-03 0. -1.
         11   -1    0    0    0    0 -0.00000000000E+00 -0.00000000000E+00 -0.45593999997E+02  0.45594000000E+02  0.51100000000E-03 0.  1.
    9900012    2    1    2    0    0 -0.35755140935E+01  0.35574301713E+02  0.24602954264E+02  0.47787301827E+02  0.20000140349E+02 0.  0.
        -12    1    1    2    0    0  0.35755140935E+01 -0.35574301713E+02 -0.24602954264E+02  0.43400698173E+02  0.00000000000E+00 0.  1.
         11    1    3    3    0    0 -0.51830165586E+01  0.14673240363E+02  0.17408631492E+02  0.23350119788E+02  0.51100000000E-03 0. -1.
        -11    1    3    3    0    0  0.58021274051E+01  0.15234678517E+02  0.51691953881E+01  0.17102066926E+02  0.51100000000E-03 0.  1.
         12    1    3    3    0    0 -0.41946249400E+01  0.56663828330E+01  0.20251273839E+01  0.73351151128E+01  0.00000000000E+00 0. -1.
</event>
<event>
 7    1  0.2497395E-009  0.4778724E+02  0.7816164E-02  0.1312668E+00
        -11   -1    0    0    0    0  0.00000000000E+00  0.00000000000E+00  0.45593999997E+02  0.45594000000E+02  0.51100000000E-03 0.  1.
         11   -1    0    0    0    0 -0.00000000000E+00 -0.00000000000E+00 -0.45593999997E+02  0.45594000000E+02  0.51100000000E-03 0. -1.
    9900012    2    1    2    0    0 -0.13646237982E+02 -0.41186396260E+02  0.10423789769E+01  0.47787244225E+02  0.19999877719E+02 0.  0.
        -12    1    1    2    0    0  0.13646237982E+02  0.41186396260E+02 -0.10423789769E+01  0.43400755775E+02  0.00000000000E+00 0.  1.
         11    1    3    3    0    0 -0.32805264183E+01 -0.28396736845E+02 -0.25614101536E+01  0.28700127861E+02  0.51100000000E-03 0. -1.
        -11    1    3    3    0    0 -0.96699245861E+01 -0.12164387345E+02  0.58888325290E+01  0.16618005590E+02  0.51100000000E-03 0.  1.
         12    1    3    3    0    0 -0.69578697713E+00 -0.62527206973E+00 -0.22850433985E+01  0.24691107735E+01  0.00000000000E+00 0. -1.
</event>
<event>
 7    1  0.2497395E-009  0.4778727E+02  0.7816164E-02  0.1312668E+00
        -11   -1    0    0    0    0  0.00000000000E+00  0.00000000000E+00  0.45593999997E+02  0.45594000000E+02  0.51100000000E-03 0.  1.
         11   -1    0    0    0    0 -0.00000000000E+00 -0.00000000000E+00 -0.45593999997E+02  0.45594000000E+02  0.51100000000E-03 0. -1.
    9900012    2    1    2    0    0  0.15885946962E+01 -0.43364573025E+02  0.78321605322E+00  0.47787271272E+02  0.20000001038E+02 0.  0.
        -12    1    1    2    0    0 -0.15885946962E+01  0.43364573025E+02 -0.78321605322E+00  0.43400728728E+02  0.00000000000E+00 0.  1.
         11    1    3    3    0    0 -0.73437497986E+01 -0.22697342034E+02  0.40619301711E+00  0.23859274706E+02  0.51100000000E-03 0.  1.
        -11    1    3    3    0    0  0.75873834588E+01 -0.20828902850E+02 -0.72809118444E+00  0.22179758762E+02  0.51100000000E-03 0. -1.
        -12    1    3    3    0    0  0.13449610361E+01  0.16167185880E+00  0.11051142206E+01  0.17482378039E+01  0.00000000000E+00 0.  1.
</event>
<event>
 7    1  0.2497395E-009  0.4778727E+02  0.7816164E-02  0.1312668E+00
        -11   -1    0    0    0    0  0.00000000000E+00  0.00000000000E+00  0.45593999997E+02  0.45594000000E+02  0.51100000000E-03 0.  1.
         11   -1    0    0    0    0 -0.00000000000E+00 -0.00000000000E+00 -0.45593999997E+02  0.45594000000E+02  0.51100000000E-03 0. -1.
    9900012    2    1    2    0    0  0.27879549768E+02  0.29641820411E+02 -0.15090278737E+02  0.47787270457E+02  0.19999997320E+02 0.  0.
        -12    1    1    2    0    0 -0.27879549768E+02 -0.29641820411E+02  0.15090278737E+02  0.43400729543E+02  0.00000000000E+00 0.  1.
         11    1    3    3    0    0  0.10101266296E+02  0.10213473332E+02 -0.12070847556E+02  0.18763154832E+02  0.51100000000E-03 0. -1.
        -11    1    3    3    0    0  0.13948550357E+02  0.10254620967E+02  0.27511071217E+01  0.17529629171E+02  0.51100000000E-03 0.  1.
        -12    1    3    3    0    0  0.38297331149E+01  0.91737261120E+01 -0.57705383028E+01  0.11494486453E+02  0.00000000000E+00 0.  1.
</event>
<event>
 7    1  0.2497395E-009  0.4778727E+02  0.7816164E-02  0.1312668E+00
        -11   -1    0    0    0    0  0.00000000000E+00  0.00000000000E+00  0.45593999997E+02  0.45594000000E+02  0.51100000000E-03 0.  1.
         11   -1    0    0    0    0 -0.00000000000E+00 -0.00000000000E+00 -0.45593999997E+02  0.45594000000E+02  0.51100000000E-03 0. -1.
    9900012    2    1    2    0    0 -0.71785648085E+01 -0.42422686163E+02 -0.56927309486E+01  0.47787270978E+02  0.19999999696E+02 0.  0.
        -12    1    1    2    0    0  0.71785648085E+01  0.42422686163E+02  0.56927309486E+01  0.43400729022E+02  0.00000000000E+00 0.  1.
         11    1    3    3    0    0 -0.85596773672E+01 -0.24650209897E+02  0.46051022335E+01  0.26497318571E+02  0.51100000000E-03 0. -1.
        -11    1    3    3    0    0  0.47345324787E+00 -0.15408199923E+02 -0.10645021439E+02  0.18733746676E+02  0.51100000000E-03 0.  1.
        -12    1    3    3    0    0  0.90765931086E+00 -0.23642763432E+01  0.34718825634E+00  0.25562057306E+01  0.00000000000E+00 0.  1.
</event>
<event>
 7    1  0.2497395E-009  0.4778727E+02  0.7816164E-02  0.1312668E+00
        -11   -1    0    0    0    0  0.00000000000E+00  0.00000000000E+00  0.45593999997E+02  0.45594000000E+02  0.51100000000E-03 0.  1.
         11   -1    0    0    0    0 -0.00000000000E+00 -0.00000000000E+00 -0.45593999997E+02  0.45594000000E+02  0.51100000000E-03 0. -1.
    9900012    2    1    2    0    0  0.32939200012E+02 -0.43095252644E+01 -0.27929569979E+02  0.47787265160E+02  0.19999973171E+02 0.  0.
        -12    1    1    2    0    0 -0.32939200012E+02  0.43095252644E+01  0.27929569979E+02  0.43400734840E+02  0.00000000000E+00 0.  1.
         11    1    3    3    0    0  0.29308549788E+02  0.12690910628E+01 -0.24212527941E+02  0.38037457754E+02  0.51100000000E-03 0. -1.
        -11    1    3    3    0    0 -0.14250816204E+01 -0.22834659757E+01 -0.23244991435E+01  0.35564548382E+01  0.51100000000E-03 0.  1.
        -12    1    3    3    0    0  0.50557318442E+01 -0.32951503516E+01 -0.13925428943E+01  0.61933525681E+01  0.00000000000E+00 0.  1.
</event>
<event>
 7    1  0.2497395E-009  0.4778728E+02  0.7816164E-02  0.1312668E+00
        -11   -1    0    0    0    0  0.00000000000E+00  0.00000000000E+00  0.45593999997E+02  0.45594000000E+02  0.51100000000E-03 0. -1.
         11   -1    0    0    0    0 -0.00000000000E+00 -0.00000000000E+00 -0.45593999997E+02  0.45594000000E+02  0.51100000000E-03 0.  1.
    9900012    2    1    2    0    0 -0.11359566554E+02  0.15088210704E+02  0.39075938577E+02  0.47787276155E+02  0.20000023302E+02 0.  0.
        -12    1    1    2    0    0  0.11359566554E+02 -0.15088210704E+02 -0.39075938577E+02  0.43400723845E+02  0.00000000000E+00 0.  1.
         11    1    3    3    0    0 -0.21098989527E+01 -0.41693175783E+00 -0.12787596255E+01  0.25021455038E+01  0.51100000000E-03 0. -1.
        -11    1    3    3    0    0 -0.37157543949E+01  0.43073173945E+01  0.43081288003E+01  0.71358102470E+01  0.51100000000E-03 0.  1.
         12    1    3    3    0    0 -0.55339132066E+01  0.11197825067E+02  0.36046569403E+02  0.38149320404E+02  0.00000000000E+00 0. -1.
</event>
<event>
 7    1  0.2497395E-009  0.4778727E+02  0.7816164E-02  0.1312668E+00
        -11   -1    0    0    0    0  0.00000000000E+00  0.00000000000E+00  0.45593999997E+02  0.45594000000E+02  0.51100000000E-03 0. -1.
         11   -1    0    0    0    0 -0.00000000000E+00 -0.00000000000E+00 -0.45593999997E+02  0.45594000000E+02  0.51100000000E-03 0.  1.
    9900012    2    1    2    0    0 -0.12388991584E+02  0.34765820374E+02  0.22835805336E+02  0.47787269775E+02  0.19999994211E+02 0.  0.
        -12    1    1    2    0    0  0.12388991584E+02 -0.34765820374E+02 -0.22835805336E+02  0.43400730225E+02  0.00000000000E+00 0.  1.
         11    1    3    3    0    0 -0.41664701035E+01  0.13909681811E+02  0.12643157102E+02  0.19253263177E+02  0.51100000000E-03 0. -1.
        -11    1    3    3    0    0 -0.57700336067E+01  0.18088948478E+02  0.14507341523E+01  0.19042268108E+02  0.51100000000E-03 0.  1.
        -12    1    3    3    0    0 -0.24524878735E+01  0.27671900852E+01  0.87419140823E+01  0.94917384899E+01  0.00000000000E+00 0.  1.
</event>
<event>
 7    1  0.2497395E-009  0.4778727E+02  0.7816164E-02  0.1312668E+00
        -11   -1    0    0    0    0  0.00000000000E+00  0.00000000000E+00  0.45593999997E+02  0.45594000000E+02  0.51100000000E-03 0.  1.
         11   -1    0    0    0    0 -0.00000000000E+00 -0.00000000000E+00 -0.45593999997E+02  0.45594000000E+02  0.51100000000E-03 0. -1.
    9900012    2    1    2    0    0  0.52445829894E+00 -0.40615328084E+02 -0.15288671527E+02  0.47787269489E+02  0.19999992907E+02 0.  0.
        -12    1    1    2    0    0 -0.52445829894E+00  0.40615328084E+02  0.15288671527E+02  0.43400730511E+02  0.00000000000E+00 0.  1.
         11    1    3    3    0    0 -0.13996158620E+01 -0.71427645777E+01  0.46383155996E+00  0.72933634456E+01  0.51100000000E-03 0. -1.
        -11    1    3    3    0    0  0.83057361089E+01 -0.17804416402E+02 -0.44388999187E+01  0.20141656547E+02  0.51100000000E-03 0.  1.
        -12    1    3    3    0    0 -0.63816619480E+01 -0.15668147104E+02 -0.11313603168E+02  0.20352249496E+02  0.00000000000E+00 0.  1.
</event>
<event>
 7    1  0.2497395E-009  0.4778727E+02  0.7816164E-02  0.1312668E+00
        -11   -1    0    0    0    0  0.00000000000E+00  0.00000000000E+00  0.45593999997E+02  0.45594000000E+02  0.51100000000E-03 0.  1.
         11   -1    0    0    0    0 -0.00000000000E+00 -0.00000000000E+00 -0.45593999997E+02  0.45594000000E+02  0.51100000000E-03 0. -1.
    9900012    2    1    2    0    0 -0.16563268209E+02 -0.20633756776E+01 -0.40062747473E+02  0.47787272955E+02  0.20000008711E+02 0.  0.
        -12    1    1    2    0    0  0.16563268209E+02  0.20633756776E+01  0.40062747473E+02  0.43400727045E+02  0.00000000000E+00 0.  1.
         11    1    3    3    0    0 -0.12241301256E+02  0.57562691393E+01 -0.23800336380E+02  0.27375903691E+02  0.51100000000E-03 0. -1.
        -11    1    3    3    0    0  0.20511493839E+01 -0.40730345245E+01 -0.87749385973E+01  0.98892048052E+01  0.51100000000E-03 0.  1.
         12    1    3    3    0    0 -0.63731163362E+01 -0.37466102924E+01 -0.74874724955E+01  0.10522164458E+02  0.00000000000E+00 0. -1.
</event>
<event>
 7    1  0.2497395E-009  0.4778727E+02  0.7816164E-02  0.1312668E+00
        -11   -1    0    0    0    0  0.00000000000E+00  0.00000000000E+00  0.45593999997E+02  0.45594000000E+02  0.51100000000E-03 0.  1.
         11   -1    0    0    0    0 -0.00000000000E+00 -0.00000000000E+00 -0.45593999997E+02  0.45594000000E+02  0.51100000000E-03 0. -1.
    9900012    2    1    2    0    0  0.25042766954E+02  0.34267598128E+02  0.90672390389E+01  0.47787270951E+02  0.19999999574E+02 0.  0.
        -12    1    1    2    0    0 -0.25042766954E+02 -0.34267598128E+02 -0.90672390389E+01  0.43400729049E+02  0.00000000000E+00 0.  1.
         11    1    3    3    0    0  0.37451516022E+01  0.13182278443E+02  0.11482663258E+01  0.13751986812E+02  0.51100000000E-03 0.  1.
        -11    1    3    3    0    0  0.13545946810E+02  0.21359609816E+02  0.52459362490E+01  0.25831094709E+02  0.51100000000E-03 0. -1.
        -12    1    3    3    0    0  0.77516685422E+01 -0.27429013039E+00  0.26730364642E+01  0.82041894300E+01  0.00000000000E+00 0.  1.
</event>
<event>
 7    1  0.2497395E-009  0.4778727E+02  0.7816164E-02  0.1312668E+00
        -11   -1    0    0    0    0  0.00000000000E+00  0.00000000000E+00  0.45593999997E+02  0.45594000000E+02  0.51100000000E-03 0.  1.
         11   -1    0    0    0    0 -0.00000000000E+00 -0.00000000000E+00 -0.45593999997E+02  0.45594000000E+02  0.51100000000E-03 0. -1.
    9900012    2    1    2    0    0 -0.15133182570E+02  0.31812134276E+02 -0.25349518413E+02  0.47787272061E+02  0.20000004633E+02 0.  0.
        -12    1    1    2    0    0  0.15133182570E+02 -0.31812134276E+02  0.25349518413E+02  0.43400727939E+02  0.00000000000E+00 0.  1.
         11    1    3    3    0    0 -0.11913404752E+01 -0.65603086947E-01 -0.11162526214E+01  0.16338959786E+01  0.51100000000E-03 0. -1.
        -11    1    3    3    0    0 -0.12530399358E+02  0.18887292417E+02 -0.24102510265E+02  0.33085823615E+02  0.51100000000E-03 0.  1.
        -12    1    3    3    0    0 -0.14114427365E+01  0.12990444945E+02 -0.13075552710E+00  0.13067552467E+02  0.00000000000E+00 0.  1.
</event>
<event>
 7    1  0.2497395E-009  0.4778728E+02  0.7816164E-02  0.1312668E+00
        -11   -1    0    0    0    0  0.00000000000E+00  0.00000000000E+00  0.45593999997E+02  0.45594000000E+02  0.51100000000E-03 0. -1.
         11   -1    0    0    0    0 -0.00000000000E+00 -0.00000000000E+00 -0.45593999997E+02  0.45594000000E+02  0.51100000000E-03 0.  1.
    9900012    2    1    2    0    0  0.28870050950E+02  0.26205435679E+02  0.19063531083E+02  0.47787275140E+02  0.20000018673E+02 0.  0.
        -12    1    1    2    0    0 -0.28870050950E+02 -0.26205435679E+02 -0.19063531083E+02  0.43400724860E+02  0.00000000000E+00 0.  1.
         11    1    3    3    0    0  0.64907197882E+01  0.10565716028E+02  0.13534822762E+02  0.18356340213E+02  0.51100000000E-03 0. -1.
        -11    1    3    3    0    0  0.36242777223E+01  0.68139697798E+01 -0.79793027995E+00  0.77590119320E+01  0.51100000000E-03 0.  1.
         12    1    3    3    0    0  0.18755053440E+02  0.88257498717E+01  0.63266386019E+01  0.21671922995E+02  0.00000000000E+00 0. -1.
</event>
<event>
 7    1  0.2497395E-009  0.4778727E+02  0.7816164E-02  0.1312668E+00
        -11   -1    0    0    0    0  0.00000000000E+00  0.00000000000E+00  0.45593999997E+02  0.45594000000E+02  0.51100000000E-03 0. -1.
         11   -1    0    0    0    0 -0.00000000000E+00 -0.00000000000E+00 -0.45593999997E+02  0.45594000000E+02  0.51100000000E-03 0.  1.
    9900012    2    1    2    0    0 -0.16372006091E+02  0.21069331200E+02  0.34229578190E+02  0.47787270470E+02  0.19999997382E+02 0.  0.
        -12    1    1    2    0    0  0.16372006091E+02 -0.21069331200E+02 -0.34229578190E+02  0.43400729530E+02  0.00000000000E+00 0.  1.
         11    1    3    3    0    0 -0.59103863329E+01  0.54744903672E+00  0.14053414033E+02  0.15255517470E+02  0.51100000000E-03 0. -1.
        -11    1    3    3    0    0 -0.93904438991E+01  0.21472397665E+02  0.16715044316E+02  0.28786055736E+02  0.51100000000E-03 0.  1.
        -12    1    3    3    0    0 -0.10711758594E+01 -0.95051550151E+00  0.34611198407E+01  0.37456972638E+01  0.00000000000E+00 0.  1.
</event>
<event>
 7    1  0.2497395E-009  0.4778727E+02  0.7816164E-02  0.1312668E+00
        -11   -1    0    0    0    0  0.00000000000E+00  0.00000000000E+00  0.45593999997E+02  0.45594000000E+02  0.51100000000E-03 0.  1.
         11   -1    0    0    0    0 -0.00000000000E+00 -0.00000000000E+00 -0.45593999997E+02  0.45594000000E+02  0.51100000000E-03 0. -1.
    9900012    2    1    2    0    0  0.30676130773E+02  0.58915433025E+01 -0.30131175785E+02  0.47787273786E+02  0.20000012499E+02 0.  0.
        -12    1    1    2    0    0 -0.30676130773E+02 -0.58915433025E+01  0.30131175785E+02  0.43400726214E+02  0.00000000000E+00 0.  1.
         11    1    3    3    0    0  0.14255637465E+02 -0.16385575707E+01 -0.89602761004E+01  0.16917287564E+02  0.51100000000E-03 0. -1.
        -11    1    3    3    0    0  0.61714665826E+01  0.35002676487E+01 -0.18094141911E+02  0.19435453305E+02  0.51100000000E-03 0.  1.
        -12    1    3    3    0    0  0.10249026726E+02  0.40298332245E+01 -0.30767577736E+01  0.11434532917E+02  0.00000000000E+00 0.  1.
</event>
<event>
 7    1  0.2497395E-009  0.4778727E+02  0.7816164E-02  0.1312668E+00
        -11   -1    0    0    0    0  0.00000000000E+00  0.00000000000E+00  0.45593999997E+02  0.45594000000E+02  0.51100000000E-03 0.  1.
         11   -1    0    0    0    0 -0.00000000000E+00 -0.00000000000E+00 -0.45593999997E+02  0.45594000000E+02  0.51100000000E-03 0. -1.
    9900012    2    1    2    0    0  0.93556938436E+01  0.42225818327E+02 -0.36159155651E+01  0.47787267448E+02  0.19999983601E+02 0.  0.
        -12    1    1    2    0    0 -0.93556938436E+01 -0.42225818327E+02  0.36159155651E+01  0.43400732552E+02  0.00000000000E+00 0.  1.
         11    1    3    3    0    0 -0.24931682052E+01  0.31105394178E+02 -0.74488456635E+00  0.31214039917E+02  0.51100000000E-03 0. -1.
        -11    1    3    3    0    0  0.93732369586E+01  0.90485742608E+01 -0.16974663017E+01  0.13138327875E+02  0.51100000000E-03 0.  1.
         12    1    3    3    0    0  0.24756250902E+01  0.20718498885E+01 -0.11735646971E+01  0.34348996559E+01  0.00000000000E+00 0. -1.
</event>
<event>
 7    1  0.2497395E-009  0.4778727E+02  0.7816164E-02  0.1312668E+00
        -11   -1    0    0    0    0  0.00000000000E+00  0.00000000000E+00  0.45593999997E+02  0.45594000000E+02  0.51100000000E-03 0.  1.
         11   -1    0    0    0    0 -0.00000000000E+00 -0.00000000000E+00 -0.45593999997E+02  0.45594000000E+02  0.51100000000E-03 0. -1.
    9900012    2    1    2    0    0 -0.39336801663E+02  0.15872165153E+02 -0.91822526153E+01  0.47787270112E+02  0.19999995747E+02 0.  0.
        -12    1    1    2    0    0  0.39336801663E+02 -0.15872165153E+02  0.91822526153E+01  0.43400729888E+02  0.00000000000E+00 0.  1.
         11    1    3    3    0    0 -0.10079811606E+02  0.40506267892E+01 -0.31509156443E+01  0.11310987978E+02  0.51100000000E-03 0. -1.
        -11    1    3    3    0    0 -0.21415020617E+02  0.43412604773E+01  0.33951250655E+01  0.22112813593E+02  0.51100000000E-03 0.  1.
        -12    1    3    3    0    0 -0.78419694410E+01  0.74802778863E+01 -0.94264620364E+01  0.14363468540E+02  0.00000000000E+00 0.  1.
</event>
<event>
 7    1  0.2497395E-009  0.4778726E+02  0.7816164E-02  0.1312668E+00
        -11   -1    0    0    0    0  0.00000000000E+00  0.00000000000E+00  0.45593999997E+02  0.45594000000E+02  0.51100000000E-03 0. -1.
         11   -1    0    0    0    0 -0.00000000000E+00 -0.00000000000E+00 -0.45593999997E+02  0.45594000000E+02  0.51100000000E-03 0.  1.
    9900012    2    1    2    0    0 -0.14749332207E+02  0.73298597290E+01  0.40154132944E+02  0.47787262256E+02  0.19999959932E+02 0.  0.
        -12    1    1    2    0    0  0.14749332207E+02 -0.73298597290E+01 -0.40154132944E+02  0.43400737744E+02  0.00000000000E+00 0.  1.
         11    1    3    3    0    0 -0.38342703163E+01  0.10291478282E+02  0.13219148355E+02  0.17186100127E+02  0.51100000000E-03 0. -1.
        -11    1    3    3    0    0 -0.50765155769E+01 -0.60222550512E+01  0.13327438385E+02  0.15480929574E+02  0.51100000000E-03 0.  1.
         12    1    3    3    0    0 -0.58385463134E+01  0.30606364980E+01  0.13607546204E+02  0.15120232555E+02  0.00000000000E+00 0. -1.
</event>
<event>
 7    1  0.2497395E-009  0.4778727E+02  0.7816164E-02  0.1312668E+00
        -11   -1    0    0    0    0  0.00000000000E+00  0.00000000000E+00  0.45593999997E+02  0.45594000000E+02  0.51100000000E-03 0.  1.
         11   -1    0    0    0    0 -0.00000000000E+00 -0.00000000000E+00 -0.45593999997E+02  0.45594000000E+02  0.51100000000E-03 0. -1.
    9900012    2    1    2    0    0 -0.26997368230E+02 -0.31787511368E+02 -0.12013303769E+02  0.47787271460E+02  0.20000001897E+02 0.  0.
        -12    1    1    2    0    0  0.26997368230E+02  0.31787511368E+02  0.12013303769E+02  0.43400728540E+02  0.00000000000E+00 0.  1.
         11    1    3    3    0    0 -0.22271994323E+02 -0.30012232795E+02 -0.70127885367E+01  0.38025715664E+02  0.51100000000E-03 0. -1.
        -11    1    3    3    0    0 -0.40908522155E+00  0.22033695248E+01 -0.34099916706E+00  0.22668190652E+01  0.51100000000E-03 0.  1.
         12    1    3    3    0    0 -0.43162886855E+01 -0.39786480981E+01 -0.46595160657E+01  0.74947367313E+01  0.00000000000E+00 0. -1.
</event>
<event>
 7    1  0.2497395E-009  0.4778727E+02  0.7816164E-02  0.1312668E+00
        -11   -1    0    0    0    0  0.00000000000E+00  0.00000000000E+00  0.45593999997E+02  0.45594000000E+02  0.51100000000E-03 0.  1.
         11   -1    0    0    0    0 -0.00000000000E+00 -0.00000000000E+00 -0.45593999997E+02  0.45594000000E+02  0.51100000000E-03 0. -1.
    9900012    2    1    2    0    0 -0.17918349640E+02  0.33625899429E+02 -0.20781120298E+02  0.47787270432E+02  0.19999997205E+02 0.  0.
        -12    1    1    2    0    0  0.17918349640E+02 -0.33625899429E+02  0.20781120298E+02  0.43400729568E+02  0.00000000000E+00 0.  1.
         11    1    3    3    0    0 -0.14529459889E+02  0.30685590287E+02 -0.13671543846E+02  0.36600843806E+02  0.51100000000E-03 0. -1.
        -11    1    3    3    0    0 -0.33940070269E+01 -0.55835570256E+00 -0.68658803757E+01  0.76792811111E+01  0.51100000000E-03 0.  1.
        -12    1    3    3    0    0  0.51172753990E-02  0.34986648449E+01 -0.24369607633E+00  0.35071455147E+01  0.00000000000E+00 0.  1.
</event>
<event>
 7    1  0.2497395E-009  0.4778727E+02  0.7816164E-02  0.1312668E+00
        -11   -1    0    0    0    0  0.00000000000E+00  0.00000000000E+00  0.45593999997E+02  0.45594000000E+02  0.51100000000E-03 0.  1.
         11   -1    0    0    0    0 -0.00000000000E+00 -0.00000000000E+00 -0.45593999997E+02  0.45594000000E+02  0.51100000000E-03 0. -1.
    9900012    2    1    2    0    0 -0.40851588759E+02 -0.11771527449E+02 -0.87293779427E+01  0.47787271874E+02  0.20000003781E+02 0.  0.
        -12    1    1    2    0    0  0.40851588759E+02  0.11771527449E+02  0.87293779427E+01  0.43400728126E+02  0.00000000000E+00 0.  1.
         11    1    3    3    0    0 -0.33196008577E+02 -0.95077728273E+01 -0.44779176135E+01  0.34819886215E+02  0.51100000000E-03 0. -1.
        -11    1    3    3    0    0 -0.73467902346E+01  0.15719743332E+01 -0.40118893722E+00  0.75237878013E+01  0.51100000000E-03 0.  1.
         12    1    3    3    0    0 -0.30878994757E+00 -0.38357289546E+01 -0.38502713920E+01  0.54435978577E+01  0.00000000000E+00 0. -1.
</event>
<event>
 7    1  0.2497395E-009  0.4778728E+02  0.7816164E-02  0.1312668E+00
        -11   -1    0    0    0    0  0.00000000000E+00  0.00000000000E+00  0.45593999997E+02  0.45594000000E+02  0.51100000000E-03 0. -1.
         11   -1    0    0    0    0 -0.00000000000E+00 -0.00000000000E+00 -0.45593999997E+02  0.45594000000E+02  0.51100000000E-03 0.  1.
    9900012    2    1    2    0    0 -0.26274610304E+02  0.32385991040E+02 -0.12017294326E+02  0.47787275062E+02  0.20000018317E+02 0.  0.
        -12    1    1    2    0    0  0.26274610304E+02 -0.32385991040E+02  0.12017294326E+02  0.43400724938E+02  0.00000000000E+00 0.  1.
         11    1    3    3    0    0 -0.32172712019E+01  0.10453808544E+02 -0.88605611467E+01  0.14076309572E+02  0.51100000000E-03 0. -1.
        -11    1    3    3    0    0 -0.68438632868E+01  0.10208011726E+02  0.32313483563E+01  0.12707618996E+02  0.51100000000E-03 0.  1.
         12    1    3    3    0    0 -0.16213475815E+02  0.11724170770E+02 -0.63880815352E+01  0.21003346494E+02  0.00000000000E+00 0. -1.
</event>
<event>
 7    1  0.2497395E-009  0.4778727E+02  0.7816164E-02  0.1312668E+00
        -11   -1    0    0    0    0  0.00000000000E+00  0.00000000000E+00  0.45593999997E+02  0.45594000000E+02  0.51100000000E-03 0. -1.
         11   -1    0    0    0    0 -0.00000000000E+00 -0.00000000000E+00 -0.45593999997E+02  0.45594000000E+02  0.51100000000E-03 0.  1.
    9900012    2    1    2    0    0 -0.17761007529E+02  0.95377363357E+01  0.38434375592E+02  0.47787273854E+02  0.20000012809E+02 0.  0.
        -12    1    1    2    0    0  0.17761007529E+02 -0.95377363357E+01 -0.38434375592E+02  0.43400726146E+02  0.00000000000E+00 0.  1.
         11    1    3    3    0    0 -0.70883141298E+01  0.61681060920E+01  0.22825861845E+02  0.24684199384E+02  0.51100000000E-03 0. -1.
        -11    1    3    3    0    0 -0.98001450693E+01 -0.22314067256E+01  0.53588337371E+01  0.11390308101E+02  0.51100000000E-03 0.  1.
        -12    1    3    3    0    0 -0.87254832991E+00  0.56010369693E+01  0.10249680010E+02  0.11712766369E+02  0.00000000000E+00 0.  1.
</event>
<event>
 7    1  0.2497395E-009  0.4778727E+02  0.7816164E-02  0.1312668E+00
        -11   -1    0    0    0    0  0.00000000000E+00  0.00000000000E+00  0.45593999997E+02  0.45594000000E+02  0.51100000000E-03 0.  1.
         11   -1    0    0    0    0 -0.00000000000E+00 -0.00000000000E+00 -0.45593999997E+02  0.45594000000E+02  0.51100000000E-03 0. -1.
    9900012    2    1    2    0    0 -0.11619843454E+02 -0.19687140708E+02 -0.36891988371E+02  0.47787273311E+02  0.20000010335E+02 0.  0.
        -12    1    1    2    0    0  0.11619843454E+02  0.19687140708E+02  0.36891988371E+02  0.43400726689E+02  0.00000000000E+00 0.  1.
         11    1    3    3    0    0 -0.42044880730E+01 -0.52715404945E+01 -0.48497275844E+01  0.83058242845E+01  0.51100000000E-03 0.  1.
        -11    1    3    3    0    0 -0.57470363086E+01 -0.13919985347E+02 -0.11714732707E+02  0.19079554006E+02  0.51100000000E-03 0. -1.
        -12    1    3    3    0    0 -0.16683190725E+01 -0.49561486578E+00 -0.20327528079E+02  0.20401895021E+02  0.00000000000E+00 0.  1.
</event>
<event>
 7    1  0.2497395E-009  0.4778727E+02  0.7816164E-02  0.1312668E+00
        -11   -1    0    0    0    0  0.00000000000E+00  0.00000000000E+00  0.45593999997E+02  0.45594000000E+02  0.51100000000E-03 0.  1.
         11   -1    0    0    0    0 -0.00000000000E+00 -0.00000000000E+00 -0.45593999997E+02  0.45594000000E+02  0.51100000000E-03 0. -1.
    9900012    2    1    2    0    0 -0.38751398995E+02 -0.18690679995E+02 -0.57106007963E+01  0.47787269543E+02  0.19999993157E+02 0.  0.
        -12    1    1    2    0    0  0.38751398995E+02  0.18690679995E+02  0.57106007963E+01  0.43400730457E+02  0.00000000000E+00 0.  1.
         11    1    3    3    0    0 -0.22650170421E+02 -0.85917556073E+01 -0.13830165436E+00  0.24225350609E+02  0.51100000000E-03 0.  1.
        -11    1    3    3    0    0 -0.93792490130E+01 -0.31926296458E+01 -0.89480173721E+01  0.13350288808E+02  0.51100000000E-03 0. -1.
        -12    1    3    3    0    0 -0.67219795605E+01 -0.69062947418E+01  0.33757182301E+01  0.10211630127E+02  0.00000000000E+00 0.  1.
</event>
<event>
 7    1  0.2497395E-009  0.4778727E+02  0.7816164E-02  0.1312668E+00
        -11   -1    0    0    0    0  0.00000000000E+00  0.00000000000E+00  0.45593999997E+02  0.45594000000E+02  0.51100000000E-03 0. -1.
         11   -1    0    0    0    0 -0.00000000000E+00 -0.00000000000E+00 -0.45593999997E+02  0.45594000000E+02  0.51100000000E-03 0.  1.
    9900012    2    1    2    0    0 -0.44172294463E+01  0.21942267601E+02  0.37183977798E+02  0.47787271569E+02  0.20000002393E+02 0.  0.
        -12    1    1    2    0    0  0.44172294463E+01 -0.21942267601E+02 -0.37183977798E+02  0.43400728431E+02  0.00000000000E+00 0.  1.
         11    1    3    3    0    0  0.35486269987E+01  0.48806723223E+01  0.52976318942E+01  0.80298580213E+01  0.51100000000E-03 0. -1.
        -11    1    3    3    0    0 -0.37796003550E+01  0.17247809440E+02  0.30677626307E+02  0.35396173033E+02  0.51100000000E-03 0.  1.
        -12    1    3    3    0    0 -0.41862560901E+01 -0.18621416108E+00  0.12087195965E+01  0.43612405148E+01  0.00000000000E+00 0.  1.
</event>
<event>
 7    1  0.2497395E-009  0.4778727E+02  0.7816164E-02  0.1312668E+00
        -11   -1    0    0    0    0  0.00000000000E+00  0.00000000000E+00  0.45593999997E+02  0.45594000000E+02  0.51100000000E-03 0. -1.
         11   -1    0    0    0    0 -0.00000000000E+00 -0.00000000000E+00 -0.45593999997E+02  0.45594000000E+02  0.51100000000E-03 0.  1.
    9900012    2    1    2    0    0 -0.11031864099E+02  0.84283951716E+01  0.41120357506E+02  0.47787266457E+02  0.19999979085E+02 0.  0.
        -12    1    1    2    0    0  0.11031864099E+02 -0.84283951716E+01 -0.41120357506E+02  0.43400733543E+02  0.00000000000E+00 0.  1.
         11    1    3    3    0    0 -0.44782095813E+01  0.10010490519E+02  0.17270301326E+02  0.20457946858E+02  0.51100000000E-03 0. -1.
        -11    1    3    3    0    0 -0.22888588403E+01 -0.17830022000E+01  0.22731215435E+02  0.22915630627E+02  0.51100000000E-03 0.  1.
        -12    1    3    3    0    0 -0.42647956772E+01  0.20090685263E+00  0.11188407447E+01  0.44136889723E+01  0.00000000000E+00 0.  1.
</event>
<event>
 7    1  0.2497395E-009  0.4778727E+02  0.7816164E-02  0.1312668E+00
        -11   -1    0    0    0    0  0.00000000000E+00  0.00000000000E+00  0.45593999997E+02  0.45594000000E+02  0.51100000000E-03 0. -1.
         11   -1    0    0    0    0 -0.00000000000E+00 -0.00000000000E+00 -0.45593999997E+02  0.45594000000E+02  0.51100000000E-03 0.  1.
    9900012    2    1    2    0    0  0.29961094654E+02  0.31731005166E+00 -0.31398333604E+02  0.47787271531E+02  0.20000002219E+02 0.  0.
        -12    1    1    2    0    0 -0.29961094654E+02 -0.31731005166E+00  0.31398333604E+02  0.43400728469E+02  0.00000000000E+00 0.  1.
         11    1    3    3    0    0  0.11721674490E+02 -0.10118425827E+01 -0.17416070081E+02  0.21017634872E+02  0.51100000000E-03 0. -1.
        -11    1    3    3    0    0  0.13713123738E+02  0.50905455670E+01 -0.39714069354E+01  0.15157027748E+02  0.51100000000E-03 0.  1.
        -12    1    3    3    0    0  0.45262964253E+01 -0.37613929327E+01 -0.10010856587E+02  0.11612608911E+02  0.00000000000E+00 0.  1.
</event>
<event>
 7    1  0.2497395E-009  0.4778727E+02  0.7816164E-02  0.1312668E+00
        -11   -1    0    0    0    0  0.00000000000E+00  0.00000000000E+00  0.45593999997E+02  0.45594000000E+02  0.51100000000E-03 0.  1.
         11   -1    0    0    0    0 -0.00000000000E+00 -0.00000000000E+00 -0.45593999997E+02  0.45594000000E+02  0.51100000000E-03 0. -1.
    9900012    2    1    2    0    0  0.20367225012E+02 -0.19666377064E+02 -0.32894266497E+02  0.47787274086E+02  0.20000013868E+02 0.  0.
        -12    1    1    2    0    0 -0.20367225012E+02  0.19666377064E+02  0.32894266497E+02  0.43400725914E+02  0.00000000000E+00 0.  1.
         11    1    3    3    0    0  0.38463430967E+00 -0.10043928876E+01 -0.73227230184E-01  0.10780125757E+01  0.51100000000E-03 0. -1.
        -11    1    3    3    0    0  0.56531818456E+01  0.29348813350E+01 -0.25569700069E+01  0.68636789921E+01  0.51100000000E-03 0.  1.
        -12    1    3    3    0    0  0.14329408857E+02 -0.21596865511E+02 -0.30264069259E+02  0.39845582518E+02  0.00000000000E+00 0.  1.
</event>
<event>
 7    1  0.2497395E-009  0.4778727E+02  0.7816164E-02  0.1312668E+00
        -11   -1    0    0    0    0  0.00000000000E+00  0.00000000000E+00  0.45593999997E+02  0.45594000000E+02  0.51100000000E-03 0.  1.
         11   -1    0    0    0    0 -0.00000000000E+00 -0.00000000000E+00 -0.45593999997E+02  0.45594000000E+02  0.51100000000E-03 0. -1.
    9900012    2    1    2    0    0  0.22620389640E+02 -0.12644172125E+02 -0.34814739975E+02  0.47787271484E+02  0.20000002004E+02 0.  0.
        -12    1    1    2    0    0 -0.22620389640E+02  0.12644172125E+02  0.34814739975E+02  0.43400728516E+02  0.00000000000E+00 0.  1.
         11    1    3    3    0    0  0.11365776218E+02 -0.16372906799E+01 -0.15292824810E+02  0.19124123006E+02  0.51100000000E-03 0. -1.
        -11    1    3    3    0    0 -0.95799428027E+00 -0.82066711745E+01 -0.58841362488E+01  0.10143483842E+02  0.51100000000E-03 0.  1.
        -12    1    3    3    0    0  0.12212607702E+02 -0.28002102705E+01 -0.13637778917E+02  0.18519664636E+02  0.00000000000E+00 0.  1.
</event>
<event>
 7    1  0.2497395E-009  0.4778727E+02  0.7816164E-02  0.1312668E+00
        -11   -1    0    0    0    0  0.00000000000E+00  0.00000000000E+00  0.45593999997E+02  0.45594000000E+02  0.51100000000E-03 0. -1.
         11   -1    0    0    0    0 -0.00000000000E+00 -0.00000000000E+00 -0.45593999997E+02  0.45594000000E+02  0.51100000000E-03 0.  1.
    9900012    2    1    2    0    0  0.26999595490E+02  0.28056826300E+02 -0.19169234967E+02  0.47787271574E+02  0.20000002414E+02 0.  0.
        -12    1    1    2    0    0 -0.26999595490E+02 -0.28056826300E+02  0.19169234967E+02  0.43400728426E+02  0.00000000000E+00 0.  1.
         11    1    3    3    0    0  0.12712010003E+02  0.16027719864E+02 -0.12026960017E+02  0.23730376521E+02  0.51100000000E-03 0. -1.
        -11    1    3    3    0    0  0.92396312029E+01 -0.47626765178E+00 -0.46046943948E+01  0.10334448528E+02  0.51100000000E-03 0.  1.
        -12    1    3    3    0    0  0.50479542845E+01  0.12505374089E+02 -0.25375805556E+01  0.13722446525E+02  0.00000000000E+00 0.  1.
</event>
<event>
 7    1  0.2497395E-009  0.4778727E+02  0.7816164E-02  0.1312668E+00
        -11   -1    0    0    0    0  0.00000000000E+00  0.00000000000E+00  0.45593999997E+02  0.45594000000E+02  0.51100000000E-03 0. -1.
         11   -1    0    0    0    0 -0.00000000000E+00 -0.00000000000E+00 -0.45593999997E+02  0.45594000000E+02  0.51100000000E-03 0.  1.
    9900012    2    1    2    0    0  0.16564206198E+02  0.39026081765E+02  0.92852190865E+01  0.47787270992E+02  0.19999999762E+02 0.  0.
        -12    1    1    2    0    0 -0.16564206198E+02 -0.39026081765E+02 -0.92852190865E+01  0.43400729008E+02  0.00000000000E+00 0.  1.
         11    1    3    3    0    0  0.13573615998E+02  0.13500262891E+02  0.36780580012E+01  0.19494313538E+02  0.51100000000E-03 0. -1.
        -11    1    3    3    0    0 -0.12813575537E+01  0.37828784931E+01  0.46273906877E+01  0.61126746774E+01  0.51100000000E-03 0.  1.
         12    1    3    3    0    0  0.42719477538E+01  0.21742940381E+02  0.97977039767E+00  0.22180282777E+02  0.00000000000E+00 0. -1.
</event>
<event>
 7    1  0.2497395E-009  0.4778727E+02  0.7816164E-02  0.1312668E+00
        -11   -1    0    0    0    0  0.00000000000E+00  0.00000000000E+00  0.45593999997E+02  0.45594000000E+02  0.51100000000E-03 0. -1.
         11   -1    0    0    0    0 -0.00000000000E+00 -0.00000000000E+00 -0.45593999997E+02  0.45594000000E+02  0.51100000000E-03 0.  1.
    9900012    2    1    2    0    0  0.33053576545E+02 -0.21569925915E+02  0.18050555429E+02  0.47787272153E+02  0.20000005053E+02 0.  0.
        -12    1    1    2    0    0 -0.33053576545E+02  0.21569925915E+02 -0.18050555429E+02  0.43400727847E+02  0.00000000000E+00 0.  1.
         11    1    3    3    0    0  0.23985866912E+02 -0.15084170963E+02  0.10250763810E+02  0.30131913051E+02  0.51100000000E-03 0. -1.
        -11    1    3    3    0    0  0.18132251789E+01 -0.15817201992E+01  0.85353029941E+01  0.88679773230E+01  0.51100000000E-03 0.  1.
        -12    1    3    3    0    0  0.72544844539E+01 -0.49040347519E+01 -0.73551137493E+00  0.87873817786E+01  0.00000000000E+00 0.  1.
</event>
<event>
 7    1  0.2497395E-009  0.4778728E+02  0.7816164E-02  0.1312668E+00
        -11   -1    0    0    0    0  0.00000000000E+00  0.00000000000E+00  0.45593999997E+02  0.45594000000E+02  0.51100000000E-03 0. -1.
         11   -1    0    0    0    0 -0.00000000000E+00 -0.00000000000E+00 -0.45593999997E+02  0.45594000000E+02  0.51100000000E-03 0.  1.
    9900012    2    1    2    0    0 -0.76200472927E+01  0.26982343567E+02  0.33128691791E+02  0.47787283359E+02  0.20000056149E+02 0.  0.
        -12    1    1    2    0    0  0.76200472927E+01 -0.26982343567E+02 -0.33128691791E+02  0.43400716641E+02  0.00000000000E+00 0.  1.
         11    1    3    3    0    0  0.12719654635E+01  0.69879155461E+01  0.10255063400E+02  0.12474581573E+02  0.51100000000E-03 0. -1.
        -11    1    3    3    0    0 -0.81047486539E+01  0.15774182910E+01  0.91952562027E+01  0.12358314452E+02  0.51100000000E-03 0.  1.
        -12    1    3    3    0    0 -0.78726410237E+00  0.18417009730E+02  0.13678372188E+02  0.22954387334E+02  0.00000000000E+00 0.  1.
</event>
<event>
 7    1  0.2497395E-009  0.4778727E+02  0.7816164E-02  0.1312668E+00
        -11   -1    0    0    0    0  0.00000000000E+00  0.00000000000E+00  0.45593999997E+02  0.45594000000E+02  0.51100000000E-03 0. -1.
         11   -1    0    0    0    0 -0.00000000000E+00 -0.00000000000E+00 -0.45593999997E+02  0.45594000000E+02  0.51100000000E-03 0.  1.
    9900012    2    1    2    0    0  0.32498783363E+02 -0.71515434095E+00  0.28756580775E+02  0.47787270701E+02  0.19999998435E+02 0.  0.
        -12    1    1    2    0    0 -0.32498783363E+02  0.71515434095E+00 -0.28756580775E+02  0.43400729299E+02  0.00000000000E+00 0.  1.
         11    1    3    3    0    0  0.27212330298E+02  0.10075923317E+01  0.15019567980E+02  0.31098449883E+02  0.51100000000E-03 0. -1.
        -11    1    3    3    0    0  0.53497262383E-01 -0.66242193036E+00 -0.89403171523E+00  0.11139828275E+01  0.51100000000E-03 0.  1.
         12    1    3    3    0    0  0.52329558027E+01 -0.10603247423E+01  0.14631044510E+02  0.15574837991E+02  0.00000000000E+00 0. -1.
</event>
<event>
 7    1  0.2497395E-009  0.4778727E+02  0.7816164E-02  0.1312668E+00
        -11   -1    0    0    0    0  0.00000000000E+00  0.00000000000E+00  0.45593999997E+02  0.45594000000E+02  0.51100000000E-03 0.  1.
         11   -1    0    0    0    0 -0.00000000000E+00 -0.00000000000E+00 -0.45593999997E+02  0.45594000000E+02  0.51100000000E-03 0. -1.
    9900012    2    1    2    0    0  0.20818597557E+02 -0.29424252454E+02  0.24174836757E+02  0.47787269949E+02  0.19999995007E+02 0.  0.
        -12    1    1    2    0    0 -0.20818597557E+02  0.29424252454E+02 -0.24174836757E+02  0.43400730051E+02  0.00000000000E+00 0.  1.
         11    1    3    3    0    0  0.40024131603E+01 -0.27872558369E+01  0.33783671772E+00  0.48889917278E+01  0.51100000000E-03 0. -1.
        -11    1    3    3    0    0  0.16218448141E+02 -0.10246332364E+02  0.14281206733E+02  0.23916066839E+02  0.51100000000E-03 0.  1.
        -12    1    3    3    0    0  0.59773625554E+00 -0.16390664252E+02  0.95557933064E+01  0.18982211383E+02  0.00000000000E+00 0.  1.
</event>
<event>
 7    1  0.2497395E-009  0.4778727E+02  0.7816164E-02  0.1312668E+00
        -11   -1    0    0    0    0  0.00000000000E+00  0.00000000000E+00  0.45593999997E+02  0.45594000000E+02  0.51100000000E-03 0.  1.
         11   -1    0    0    0    0 -0.00000000000E+00 -0.00000000000E+00 -0.45593999997E+02  0.45594000000E+02  0.51100000000E-03 0. -1.
    9900012    2    1    2    0    0 -0.39551849492E+01 -0.25977928068E+02 -0.34541668357E+02  0.47787273191E+02  0.20000009786E+02 0.  0.
        -12    1    1    2    0    0  0.39551849492E+01  0.25977928068E+02  0.34541668357E+02  0.43400726809E+02  0.00000000000E+00 0.  1.
         11    1    3    3    0    0  0.38051496192E+01 -0.42202047641E+01 -0.15942024809E+02  0.16924462979E+02  0.51100000000E-03 0. -1.
        -11    1    3    3    0    0 -0.55876205974E+01 -0.57989407490E+01 -0.34825538078E+01  0.87736764834E+01  0.51100000000E-03 0.  1.
         12    1    3    3    0    0 -0.21727139710E+01 -0.15958782555E+02 -0.15117089740E+02  0.22089133728E+02  0.00000000000E+00 0. -1.
</event>
<event>
 7    1  0.2497395E-009  0.4778726E+02  0.7816164E-02  0.1312668E+00
        -11   -1    0    0    0    0  0.00000000000E+00  0.00000000000E+00  0.45593999997E+02  0.45594000000E+02  0.51100000000E-03 0. -1.
         11   -1    0    0    0    0 -0.00000000000E+00 -0.00000000000E+00 -0.45593999997E+02  0.45594000000E+02  0.51100000000E-03 0.  1.
    9900012    2    1    2    0    0 -0.56710832821E+01  0.14114323052E+02  0.40647866480E+02  0.47787258644E+02  0.19999943464E+02 0.  0.
        -12    1    1    2    0    0  0.56710832821E+01 -0.14114323052E+02 -0.40647866480E+02  0.43400741356E+02  0.00000000000E+00 0.  1.
         11    1    3    3    0    0 -0.81784507355E+00  0.40482883792E+01  0.13880359999E+02  0.14481778320E+02  0.51100000000E-03 0. -1.
        -11    1    3    3    0    0  0.46478128991E+01 -0.84420955347E+00  0.10630233176E+02  0.11632571176E+02  0.51100000000E-03 0.  1.
        -12    1    3    3    0    0 -0.95010511076E+01  0.10910244226E+02  0.16137273305E+02  0.21672909148E+02  0.00000000000E+00 0.  1.
</event>
<event>
 7    1  0.2497395E-009  0.4778727E+02  0.7816164E-02  0.1312668E+00
        -11   -1    0    0    0    0  0.00000000000E+00  0.00000000000E+00  0.45593999997E+02  0.45594000000E+02  0.51100000000E-03 0.  1.
         11   -1    0    0    0    0 -0.00000000000E+00 -0.00000000000E+00 -0.45593999997E+02  0.45594000000E+02  0.51100000000E-03 0. -1.
    9900012    2    1    2    0    0  0.39085802379E+02  0.18411555187E+02  0.41155824616E+01  0.47787270386E+02  0.19999996999E+02 0.  0.
        -12    1    1    2    0    0 -0.39085802379E+02 -0.18411555187E+02 -0.41155824616E+01  0.43400729614E+02  0.00000000000E+00 0.  1.
         11    1    3    3    0    0  0.24791863769E+02  0.95801720919E+01  0.30538340871E+01  0.26753356973E+02  0.51100000000E-03 0. -1.
        -11    1    3    3    0    0 -0.28065107197E+00  0.20259410260E+01  0.41760696307E+01  0.46500279447E+01  0.51100000000E-03 0.  1.
        -12    1    3    3    0    0  0.14574589682E+02  0.68054420693E+01 -0.31143212563E+01  0.16383885468E+02  0.00000000000E+00 0.  1.
</event>
<event>
 7    1  0.2497395E-009  0.4778728E+02  0.7816164E-02  0.1312668E+00
        -11   -1    0    0    0    0  0.00000000000E+00  0.00000000000E+00  0.45593999997E+02  0.45594000000E+02  0.51100000000E-03 0.  1.
         11   -1    0    0    0    0 -0.00000000000E+00 -0.00000000000E+00 -0.45593999997E+02  0.45594000000E+02  0.51100000000E-03 0. -1.
    9900012    2    1    2    0    0  0.14410535794E+02  0.98559267995E-01 -0.40938363606E+02  0.47787275691E+02  0.20000021186E+02 0.  0.
        -12    1    1    2    0    0 -0.14410535794E+02 -0.98559267995E-01  0.40938363606E+02  0.43400724309E+02  0.00000000000E+00 0.  1.
         11    1    3    3    0    0  0.88812448766E+01  0.47394768356E+01 -0.34085633547E+02  0.35541096857E+02  0.51100000000E-03 0. -1.
        -11    1    3    3    0    0 -0.25199361985E+00 -0.88835073600E+00  0.12846776632E+01  0.15821076999E+01  0.51100000000E-03 0.  1.
         12    1    3    3    0    0  0.57812845371E+01 -0.37525668316E+01 -0.81374077224E+01  0.10664071135E+02  0.00000000000E+00 0. -1.
</event>
<event>
 7    1  0.2497395E-009  0.4778727E+02  0.7816164E-02  0.1312668E+00
        -11   -1    0    0    0    0  0.00000000000E+00  0.00000000000E+00  0.45593999997E+02  0.45594000000E+02  0.51100000000E-03 0.  1.
         11   -1    0    0    0    0 -0.00000000000E+00 -0.00000000000E+00 -0.45593999997E+02  0.45594000000E+02  0.51100000000E-03 0. -1.
    9900012    2    1    2    0    0  0.40831140160E+02 -0.31696515660E+01 -0.14366440548E+02  0.47787270607E+02  0.19999998005E+02 0.  0.
        -12    1    1    2    0    0 -0.40831140160E+02  0.31696515660E+01  0.14366440548E+02  0.43400729393E+02  0.00000000000E+00 0.  1.
         11    1    3    3    0    0  0.42736591674E+01  0.18645324514E+01 -0.62365221709E+01  0.77868384464E+01  0.51100000000E-03 0. -1.
        -11    1    3    3    0    0  0.36726459242E+02 -0.58960415947E+01 -0.59751869344E+01  0.37673584567E+02  0.51100000000E-03 0.  1.
        -12    1    3    3    0    0 -0.16897824955E+00  0.86185757733E+00 -0.21547314431E+01  0.23268475937E+01  0.00000000000E+00 0.  1.
</event>
<event>
 7    1  0.2497395E-009  0.4778727E+02  0.7816164E-02  0.1312668E+00
        -11   -1    0    0    0    0  0.00000000000E+00  0.00000000000E+00  0.45593999997E+02  0.45594000000E+02  0.51100000000E-03 0.  1.
         11   -1    0    0    0    0 -0.00000000000E+00 -0.00000000000E+00 -0.45593999997E+02  0.45594000000E+02  0.51100000000E-03 0. -1.
    9900012    2    1    2    0    0  0.39322388961E+02  0.14203040558E+02 -0.11646742869E+02  0.47787271271E+02  0.20000001035E+02 0.  0.
        -12    1    1    2    0    0 -0.39322388961E+02 -0.14203040558E+02  0.11646742869E+02  0.43400728729E+02  0.00000000000E+00 0.  1.
         11    1    3    3    0    0  0.34956164673E+02  0.12896879721E+02 -0.46508584654E+01  0.37548547774E+02  0.51100000000E-03 0. -1.
        -11    1    3    3    0    0  0.20685773351E+01 -0.22462651348E+01 -0.18242382142E+01  0.35570443588E+01  0.51100000000E-03 0.  1.
         12    1    3    3    0    0  0.22976469527E+01  0.35524259724E+01 -0.51716461891E+01  0.66816791388E+01  0.00000000000E+00 0. -1.
</event>
<event>
 7    1  0.2497395E-009  0.4778730E+02  0.7816164E-02  0.1312668E+00
        -11   -1    0    0    0    0  0.00000000000E+00  0.00000000000E+00  0.45593999997E+02  0.45594000000E+02  0.51100000000E-03 0.  1.
         11   -1    0    0    0    0 -0.00000000000E+00 -0.00000000000E+00 -0.45593999997E+02  0.45594000000E+02  0.51100000000E-03 0. -1.
    9900012    2    1    2    0    0  0.33706618609E+02 -0.21227771343E+02 -0.17229802210E+02  0.47787303019E+02  0.20000145784E+02 0.  0.
        -12    1    1    2    0    0 -0.33706618609E+02  0.21227771343E+02  0.17229802210E+02  0.43400696981E+02  0.00000000000E+00 0.  1.
         11    1    3    3    0    0  0.17296853943E+02 -0.27371435470E+01 -0.82100564340E+01  0.19341099711E+02  0.51100000000E-03 0. -1.
        -11    1    3    3    0    0  0.10284160830E+02 -0.16064966075E+02 -0.10383970963E+02  0.21718055903E+02  0.51100000000E-03 0.  1.
         12    1    3    3    0    0  0.61256038370E+01 -0.24256617209E+01  0.13642251872E+01  0.67281474057E+01  0.00000000000E+00 0. -1.
</event>
<event>
 7    1  0.2497395E-009  0.4778727E+02  0.7816164E-02  0.1312668E+00
        -11   -1    0    0    0    0  0.00000000000E+00  0.00000000000E+00  0.45593999997E+02  0.45594000000E+02  0.51100000000E-03 0.  1.
         11   -1    0    0    0    0 -0.00000000000E+00 -0.00000000000E+00 -0.45593999997E+02  0.45594000000E+02  0.51100000000E-03 0. -1.
    9900012    2    1    2    0    0 -0.36602480504E+02  0.45795254908E+01 -0.22867222225E+02  0.47787268612E+02  0.19999988909E+02 0.  0.
        -12    1    1    2    0    0  0.36602480504E+02 -0.45795254908E+01  0.22867222225E+02  0.43400731388E+02  0.00000000000E+00 0.  1.
         11    1    3    3    0    0 -0.29618564091E+02 -0.42807476300E+01 -0.15886872381E+02  0.33881807115E+02  0.51100000000E-03 0. -1.
        -11    1    3    3    0    0 -0.23307185928E+01  0.62953769775E+01 -0.39400734828E+01  0.77838422234E+01  0.51100000000E-03 0.  1.
         12    1    3    3    0    0 -0.46531978202E+01  0.25648961433E+01 -0.30402763613E+01  0.61216192737E+01  0.00000000000E+00 0. -1.
</event>
<event>
 7    1  0.2497395E-009  0.4778727E+02  0.7816164E-02  0.1312668E+00
        -11   -1    0    0    0    0  0.00000000000E+00  0.00000000000E+00  0.45593999997E+02  0.45594000000E+02  0.51100000000E-03 0.  1.
         11   -1    0    0    0    0 -0.00000000000E+00 -0.00000000000E+00 -0.45593999997E+02  0.45594000000E+02  0.51100000000E-03 0. -1.
    9900012    2    1    2    0    0  0.23279622448E+02 -0.32984956534E+02 -0.15927176860E+02  0.47787272568E+02  0.20000006946E+02 0.  0.
        -12    1    1    2    0    0 -0.23279622448E+02  0.32984956534E+02  0.15927176860E+02  0.43400727432E+02  0.00000000000E+00 0.  1.
         11    1    3    3    0    0  0.25107868682E+02 -0.34020623400E+02 -0.14524635589E+02  0.44707638336E+02  0.51100000000E-03 0. -1.
        -11    1    3    3    0    0 -0.20649663113E+01  0.48385325874E+00 -0.93134309075E+00  0.23163764929E+01  0.51100000000E-03 0.  1.
         12    1    3    3    0    0  0.23672007788E+00  0.55181360716E+00 -0.47119817982E+00  0.76325773955E+00  0.00000000000E+00 0. -1.
</event>
<event>
 7    1  0.2497395E-009  0.4778727E+02  0.7816164E-02  0.1312668E+00
        -11   -1    0    0    0    0  0.00000000000E+00  0.00000000000E+00  0.45593999997E+02  0.45594000000E+02  0.51100000000E-03 0. -1.
         11   -1    0    0    0    0 -0.00000000000E+00 -0.00000000000E+00 -0.45593999997E+02  0.45594000000E+02  0.51100000000E-03 0.  1.
    9900012    2    1    2    0    0 -0.17524329217E+02 -0.28833458147E+02  0.27297486744E+02  0.47787271829E+02  0.20000003579E+02 0.  0.
        -12    1    1    2    0    0  0.17524329217E+02  0.28833458147E+02 -0.27297486744E+02  0.43400728171E+02  0.00000000000E+00 0.  1.
         11    1    3    3    0    0 -0.68822378234E+01 -0.10694867902E+02  0.19152464892E+02  0.22990483001E+02  0.51100000000E-03 0. -1.
        -11    1    3    3    0    0 -0.15468087739E+01 -0.82030397713E+01 -0.11565601036E+01  0.84273430218E+01  0.51100000000E-03 0.  1.
        -12    1    3    3    0    0 -0.90952826201E+01 -0.99355504734E+01  0.93015819551E+01  0.16369445807E+02  0.00000000000E+00 0.  1.
</event>
<event>
 7    1  0.2497395E-009  0.4778727E+02  0.7816164E-02  0.1312668E+00
        -11   -1    0    0    0    0  0.00000000000E+00  0.00000000000E+00  0.45593999997E+02  0.45594000000E+02  0.51100000000E-03 0. -1.
         11   -1    0    0    0    0 -0.00000000000E+00 -0.00000000000E+00 -0.45593999997E+02  0.45594000000E+02  0.51100000000E-03 0.  1.
    9900012    2    1    2    0    0 -0.42154047022E+02 -0.10186735622E+02 -0.16999446824E+01  0.47787273337E+02  0.20000010450E+02 0.  0.
        -12    1    1    2    0    0  0.42154047022E+02  0.10186735622E+02  0.16999446824E+01  0.43400726663E+02  0.00000000000E+00 0.  1.
         11    1    3    3    0    0 -0.15344987675E+02 -0.12482419841E+02 -0.79304481475E+00  0.19796675786E+02  0.51100000000E-03 0.  1.
        -11    1    3    3    0    0 -0.25909719830E+02  0.94311189171E+00  0.36205433480E+00  0.25929406575E+02  0.51100000000E-03 0. -1.
         12    1    3    3    0    0 -0.89933951678E+00  0.13525723277E+01 -0.12689542024E+01  0.20611909751E+01  0.00000000000E+00 0. -1.
</event>
<event>
 7    1  0.2497395E-009  0.4778727E+02  0.7816164E-02  0.1312668E+00
        -11   -1    0    0    0    0  0.00000000000E+00  0.00000000000E+00  0.45593999997E+02  0.45594000000E+02  0.51100000000E-03 0. -1.
         11   -1    0    0    0    0 -0.00000000000E+00 -0.00000000000E+00 -0.45593999997E+02  0.45594000000E+02  0.51100000000E-03 0.  1.
    9900012    2    1    2    0    0 -0.23636743241E+02 -0.28639021752E+02 -0.22466287273E+02  0.47787271184E+02  0.20000000637E+02 0.  0.
        -12    1    1    2    0    0  0.23636743241E+02  0.28639021752E+02  0.22466287273E+02  0.43400728816E+02  0.00000000000E+00 0.  1.
         11    1    3    3    0    0 -0.12504982796E+02 -0.10633065591E+02 -0.79386246223E+01  0.18233442894E+02  0.51100000000E-03 0. -1.
        -11    1    3    3    0    0 -0.24956776165E+01  0.24707755391E+01 -0.18761407739E+01  0.39815879991E+01  0.51100000000E-03 0.  1.
        -12    1    3    3    0    0 -0.86360828277E+01 -0.20476731700E+02 -0.12651521876E+02  0.25572240291E+02  0.00000000000E+00 0.  1.
</event>
<event>
 7    1  0.2497395E-009  0.4778727E+02  0.7816164E-02  0.1312668E+00
        -11   -1    0    0    0    0  0.00000000000E+00  0.00000000000E+00  0.45593999997E+02  0.45594000000E+02  0.51100000000E-03 0.  1.
         11   -1    0    0    0    0 -0.00000000000E+00 -0.00000000000E+00 -0.45593999997E+02  0.45594000000E+02  0.51100000000E-03 0. -1.
    9900012    2    1    2    0    0 -0.37772505987E+02  0.14778966658E+02 -0.15441606445E+02  0.47787271048E+02  0.20000000015E+02 0.  0.
        -12    1    1    2    0    0  0.37772505987E+02 -0.14778966658E+02  0.15441606445E+02  0.43400728952E+02  0.00000000000E+00 0.  1.
         11    1    3    3    0    0  0.96861361128E+00  0.36670578343E+01 -0.87868728810E+00  0.38932784513E+01  0.51100000000E-03 0. -1.
        -11    1    3    3    0    0 -0.36600479222E+01  0.40882288119E+00  0.13376026155E+01  0.39181970292E+01  0.51100000000E-03 0.  1.
         12    1    3    3    0    0 -0.35081071676E+02  0.10703085942E+02 -0.15900521772E+02  0.39975795567E+02  0.00000000000E+00 0. -1.
</event>
<event>
 7    1  0.2497395E-009  0.4778727E+02  0.7816164E-02  0.1312668E+00
        -11   -1    0    0    0    0  0.00000000000E+00  0.00000000000E+00  0.45593999997E+02  0.45594000000E+02  0.51100000000E-03 0. -1.
         11   -1    0    0    0    0 -0.00000000000E+00 -0.00000000000E+00 -0.45593999997E+02  0.45594000000E+02  0.51100000000E-03 0.  1.
    9900012    2    1    2    0    0 -0.37418565256E+02 -0.82506630056E+01  0.20381396529E+02  0.47787265095E+02  0.19999972872E+02 0.  0.
        -12    1    1    2    0    0  0.37418565256E+02  0.82506630056E+01 -0.20381396529E+02  0.43400734905E+02  0.00000000000E+00 0.  1.
         11    1    3    3    0    0 -0.27904493589E+02 -0.33296643913E+01  0.18634424206E+02  0.33719270354E+02  0.51100000000E-03 0. -1.
        -11    1    3    3    0    0  0.78460853048E+00 -0.14245359492E+01 -0.19880355924E+01  0.25685013129E+01  0.51100000000E-03 0.  1.
        -12    1    3    3    0    0 -0.10298680197E+02 -0.34964626651E+01  0.37350079159E+01  0.11499493428E+02  0.00000000000E+00 0.  1.
</event>
<event>
 7    1  0.2497395E-009  0.4778728E+02  0.7816164E-02  0.1312668E+00
        -11   -1    0    0    0    0  0.00000000000E+00  0.00000000000E+00  0.45593999997E+02  0.45594000000E+02  0.51100000000E-03 0. -1.
         11   -1    0    0    0    0 -0.00000000000E+00 -0.00000000000E+00 -0.45593999997E+02  0.45594000000E+02  0.51100000000E-03 0.  1.
    9900012    2    1    2    0    0  0.10998156463E+02 -0.41979128405E+02 -0.64456411384E+00  0.47787284221E+02  0.20000060079E+02 0.  0.
        -12    1    1    2    0    0 -0.10998156463E+02  0.41979128405E+02  0.64456411384E+00  0.43400715779E+02  0.00000000000E+00 0.  1.
         11    1    3    3    0    0  0.90994637362E+01 -0.14392675511E+02  0.56028877523E+01  0.17926006250E+02  0.51100000000E-03 0. -1.
        -11    1    3    3    0    0  0.25368655757E+01 -0.80569821414E+01 -0.59267168133E+01  0.10318750924E+02  0.51100000000E-03 0.  1.
         12    1    3    3    0    0 -0.63817284917E+00 -0.19529470752E+02 -0.32073505291E+00  0.19542527048E+02  0.00000000000E+00 0. -1.
</event>
<event>
 7    1  0.2497395E-009  0.4778727E+02  0.7816164E-02  0.1312668E+00
        -11   -1    0    0    0    0  0.00000000000E+00  0.00000000000E+00  0.45593999997E+02  0.45594000000E+02  0.51100000000E-03 0.  1.
         11   -1    0    0    0    0 -0.00000000000E+00 -0.00000000000E+00 -0.45593999997E+02  0.45594000000E+02  0.51100000000E-03 0. -1.
    9900012    2    1    2    0    0  0.18009705259E+02 -0.19490274140E+02 -0.34342433174E+02  0.47787274362E+02  0.20000015125E+02 0.  0.
        -12    1    1    2    0    0 -0.18009705259E+02  0.19490274140E+02  0.34342433174E+02  0.43400725638E+02  0.00000000000E+00 0.  1.
         11    1    3    3    0    0  0.60144893867E+01 -0.13073023059E+02 -0.69318323812E+01  0.15972736613E+02  0.51100000000E-03 0. -1.
        -11    1    3    3    0    0  0.52785132636E+01 -0.35401018185E+01 -0.45552271041E+01  0.78195343461E+01  0.51100000000E-03 0.  1.
         12    1    3    3    0    0  0.67167026093E+01 -0.28771492619E+01 -0.22855373689E+02  0.23995003402E+02  0.00000000000E+00 0. -1.
</event>
<event>
 7    1  0.2497395E-009  0.4778727E+02  0.7816164E-02  0.1312668E+00
        -11   -1    0    0    0    0  0.00000000000E+00  0.00000000000E+00  0.45593999997E+02  0.45594000000E+02  0.51100000000E-03 0. -1.
         11   -1    0    0    0    0 -0.00000000000E+00 -0.00000000000E+00 -0.45593999997E+02  0.45594000000E+02  0.51100000000E-03 0.  1.
    9900012    2    1    2    0    0  0.21315143640E+02 -0.37170077059E+02 -0.69045627660E+01  0.47787274615E+02  0.20000016279E+02 0.  0.
        -12    1    1    2    0    0 -0.21315143640E+02  0.37170077059E+02  0.69045627660E+01  0.43400725385E+02  0.00000000000E+00 0.  1.
         11    1    3    3    0    0  0.13043645663E+02 -0.25320164183E+02 -0.11463536336E+02  0.30702769778E+02  0.51100000000E-03 0. -1.
        -11    1    3    3    0    0  0.33193335282E+01  0.10390484180E+00  0.20552730377E+01  0.39054985352E+01  0.51100000000E-03 0.  1.
         12    1    3    3    0    0  0.49521644495E+01 -0.11953817717E+02  0.25037005323E+01  0.13179006302E+02  0.00000000000E+00 0. -1.
</event>
<event>
 7    1  0.2497395E-009  0.4778726E+02  0.7816164E-02  0.1312668E+00
        -11   -1    0    0    0    0  0.00000000000E+00  0.00000000000E+00  0.45593999997E+02  0.45594000000E+02  0.51100000000E-03 0.  1.
         11   -1    0    0    0    0 -0.00000000000E+00 -0.00000000000E+00 -0.45593999997E+02  0.45594000000E+02  0.51100000000E-03 0. -1.
    9900012    2    1    2    0    0 -0.26747752646E+01 -0.22349588181E+02 -0.37107492853E+02  0.47787256453E+02  0.19999933471E+02 0.  0.
        -12    1    1    2    0    0  0.26747752646E+01  0.22349588181E+02  0.37107492853E+02  0.43400743547E+02  0.00000000000E+00 0.  1.
         11    1    3    3    0    0 -0.71983857357E+00 -0.58345049263E+01 -0.26743395809E+02  0.27381907073E+02  0.51100000000E-03 0. -1.
        -11    1    3    3    0    0 -0.48929430278E+00 -0.15142317582E+02 -0.10434691385E+02  0.18395977148E+02  0.51100000000E-03 0.  1.
         12    1    3    3    0    0 -0.14656423882E+01 -0.13727656727E+01  0.70594340958E-01  0.20093722312E+01  0.00000000000E+00 0. -1.
</event>
<event>
 7    1  0.2497395E-009  0.4778727E+02  0.7816164E-02  0.1312668E+00
        -11   -1    0    0    0    0  0.00000000000E+00  0.00000000000E+00  0.45593999997E+02  0.45594000000E+02  0.51100000000E-03 0. -1.
         11   -1    0    0    0    0 -0.00000000000E+00 -0.00000000000E+00 -0.45593999997E+02  0.45594000000E+02  0.51100000000E-03 0.  1.
    9900012    2    1    2    0    0 -0.37838063347E+02  0.17102967628E+02  0.12625080519E+02  0.47787271922E+02  0.20000004003E+02 0.  0.
        -12    1    1    2    0    0  0.37838063347E+02 -0.17102967628E+02 -0.12625080519E+02  0.43400728078E+02  0.00000000000E+00 0.  1.
         11    1    3    3    0    0 -0.24192798108E+02  0.65921352560E+01  0.77367145970E+01  0.26241274370E+02  0.51100000000E-03 0. -1.
        -11    1    3    3    0    0 -0.19958155940E+01  0.77940625029E+01 -0.11818832541E+01  0.81318840666E+01  0.51100000000E-03 0.  1.
        -12    1    3    3    0    0 -0.11649449645E+02  0.27167698695E+01  0.60702491764E+01  0.13414113486E+02  0.00000000000E+00 0.  1.
</event>
<event>
 7    1  0.2497395E-009  0.4778726E+02  0.7816164E-02  0.1312668E+00
        -11   -1    0    0    0    0  0.00000000000E+00  0.00000000000E+00  0.45593999997E+02  0.45594000000E+02  0.51100000000E-03 0.  1.
         11   -1    0    0    0    0 -0.00000000000E+00 -0.00000000000E+00 -0.45593999997E+02  0.45594000000E+02  0.51100000000E-03 0. -1.
    9900012    2    1    2    0    0  0.66212801191E+00  0.30535887036E+01 -0.43288120794E+02  0.47787260152E+02  0.19999950337E+02 0.  0.
        -12    1    1    2    0    0 -0.66212801191E+00 -0.30535887036E+01  0.43288120794E+02  0.43400739848E+02  0.00000000000E+00 0.  1.
         11    1    3    3    0    0 -0.37364361563E+01  0.10140232968E+02 -0.31617437605E+02  0.33413285393E+02  0.51100000000E-03 0. -1.
        -11    1    3    3    0    0  0.27256768540E+01 -0.38477081912E+01 -0.71798516182E+01  0.85897870845E+01  0.51100000000E-03 0.  1.
         12    1    3    3    0    0  0.16728873142E+01 -0.32389360735E+01 -0.44908315713E+01  0.57841876747E+01  0.00000000000E+00 0. -1.
</event>
<event>
 7    1  0.2497395E-009  0.4778727E+02  0.7816164E-02  0.1312668E+00
        -11   -1    0    0    0    0  0.00000000000E+00  0.00000000000E+00  0.45593999997E+02  0.45594000000E+02  0.51100000000E-03 0. -1.
         11   -1    0    0    0    0 -0.00000000000E+00 -0.00000000000E+00 -0.45593999997E+02  0.45594000000E+02  0.51100000000E-03 0.  1.
    9900012    2    1    2    0    0 -0.33583198383E+01 -0.25099116157E+02  0.35247400627E+02  0.47787271954E+02  0.20000004147E+02 0.  0.
        -12    1    1    2    0    0  0.33583198383E+01  0.25099116157E+02 -0.35247400627E+02  0.43400728046E+02  0.00000000000E+00 0.  1.
         11    1    3    3    0    0  0.54746185495E+01 -0.66456170003E+01  0.19997206271E+02  0.21772090678E+02  0.51100000000E-03 0. -1.
        -11    1    3    3    0    0 -0.26215252870E+01 -0.75346683042E+01  0.31613961140E+01  0.85812613837E+01  0.51100000000E-03 0.  1.
         12    1    3    3    0    0 -0.62114131009E+01 -0.10918830852E+02  0.12088798242E+02  0.17433919893E+02  0.00000000000E+00 0. -1.
</event>
<event>
 7    1  0.2497395E-009  0.4778728E+02  0.7816164E-02  0.1312668E+00
        -11   -1    0    0    0    0  0.00000000000E+00  0.00000000000E+00  0.45593999997E+02  0.45594000000E+02  0.51100000000E-03 0. -1.
         11   -1    0    0    0    0 -0.00000000000E+00 -0.00000000000E+00 -0.45593999997E+02  0.45594000000E+02  0.51100000000E-03 0.  1.
    9900012    2    1    2    0    0  0.28016750539E+02  0.28805387049E+02  0.16399214801E+02  0.47787275583E+02  0.20000020693E+02 0.  0.
        -12    1    1    2    0    0 -0.28016750539E+02 -0.28805387049E+02 -0.16399214801E+02  0.43400724417E+02  0.00000000000E+00 0.  1.
         11    1    3    3    0    0  0.59206539058E+01  0.51845273858E+01  0.39778489172E+01  0.88179787455E+01  0.51100000000E-03 0. -1.
        -11    1    3    3    0    0  0.22100318704E+02  0.16250257434E+02  0.39080193314E+01  0.27708619035E+02  0.51100000000E-03 0.  1.
        -12    1    3    3    0    0 -0.42220701406E-02  0.73706022290E+01  0.85133465527E+01  0.11260677802E+02  0.00000000000E+00 0.  1.
</event>
<event>
 7    1  0.2497395E-009  0.4778727E+02  0.7816164E-02  0.1312668E+00
        -11   -1    0    0    0    0  0.00000000000E+00  0.00000000000E+00  0.45593999997E+02  0.45594000000E+02  0.51100000000E-03 0.  1.
         11   -1    0    0    0    0 -0.00000000000E+00 -0.00000000000E+00 -0.45593999997E+02  0.45594000000E+02  0.51100000000E-03 0. -1.
    9900012    2    1    2    0    0 -0.22204634266E+02 -0.27404439995E+02 -0.25289801227E+02  0.47787272352E+02  0.20000005961E+02 0.  0.
        -12    1    1    2    0    0  0.22204634266E+02  0.27404439995E+02  0.25289801227E+02  0.43400727648E+02  0.00000000000E+00 0.  1.
         11    1    3    3    0    0 -0.70719699235E+01 -0.13034227555E+02 -0.18443629312E+02  0.23665825762E+02  0.51100000000E-03 0. -1.
        -11    1    3    3    0    0 -0.11541682902E+02 -0.42103066609E+01 -0.45681527031E+01  0.13107446196E+02  0.51100000000E-03 0.  1.
        -12    1    3    3    0    0 -0.35909814405E+01 -0.10159905779E+02 -0.22780192114E+01  0.11014000394E+02  0.00000000000E+00 0.  1.
</event>
<event>
 7    1  0.2497395E-009  0.4778727E+02  0.7816164E-02  0.1312668E+00
        -11   -1    0    0    0    0  0.00000000000E+00  0.00000000000E+00  0.45593999997E+02  0.45594000000E+02  0.51100000000E-03 0. -1.
         11   -1    0    0    0    0 -0.00000000000E+00 -0.00000000000E+00 -0.45593999997E+02  0.45594000000E+02  0.51100000000E-03 0.  1.
    9900012    2    1    2    0    0 -0.20491706644E+02 -0.33747824898E+02  0.18022140416E+02  0.47787271069E+02  0.20000000112E+02 0.  0.
        -12    1    1    2    0    0  0.20491706644E+02  0.33747824898E+02 -0.18022140416E+02  0.43400728931E+02  0.00000000000E+00 0.  1.
         11    1    3    3    0    0  0.34189011031E+00 -0.85646369955E+01  0.10930946147E+02  0.13890841574E+02  0.51100000000E-03 0. -1.
        -11    1    3    3    0    0 -0.15806999345E+02 -0.20475323456E+02  0.76835356023E+01  0.26984010424E+02  0.51100000000E-03 0.  1.
         12    1    3    3    0    0 -0.50265974093E+01 -0.47078644467E+01 -0.59234133240E+00  0.69124190714E+01  0.00000000000E+00 0. -1.
</event>
<event>
 7    1  0.2497395E-009  0.4778729E+02  0.7816164E-02  0.1312668E+00
        -11   -1    0    0    0    0  0.00000000000E+00  0.00000000000E+00  0.45593999997E+02  0.45594000000E+02  0.51100000000E-03 0.  1.
         11   -1    0    0    0    0 -0.00000000000E+00 -0.00000000000E+00 -0.45593999997E+02  0.45594000000E+02  0.51100000000E-03 0. -1.
    9900012    2    1    2    0    0 -0.11728798530E+02 -0.12624605331E+02 -0.39833104922E+02  0.47787290069E+02  0.20000086742E+02 0.  0.
        -12    1    1    2    0    0  0.11728798530E+02  0.12624605331E+02  0.39833104922E+02  0.43400709931E+02  0.00000000000E+00 0.  1.
         11    1    3    3    0    0  0.10594356842E+01 -0.83139044112E+01 -0.20152388528E+02  0.21825722764E+02  0.51100000000E-03 0.  1.
        -11    1    3    3    0    0  0.81872682770E+00  0.17296009055E+01 -0.33913966011E+01  0.38940215816E+01  0.51100000000E-03 0. -1.
         12    1    3    3    0    0 -0.13606961042E+02 -0.60403018254E+01 -0.16289319793E+02  0.22067545724E+02  0.00000000000E+00 0. -1.
</event>
<event>
 7    1  0.2497395E-009  0.4778727E+02  0.7816164E-02  0.1312668E+00
        -11   -1    0    0    0    0  0.00000000000E+00  0.00000000000E+00  0.45593999997E+02  0.45594000000E+02  0.51100000000E-03 0.  1.
         11   -1    0    0    0    0 -0.00000000000E+00 -0.00000000000E+00 -0.45593999997E+02  0.45594000000E+02  0.51100000000E-03 0. -1.
    9900012    2    1    2    0    0 -0.20508068796E+02 -0.37585500450E+02  0.70973513785E+01  0.47787272743E+02  0.20000007744E+02 0.  0.
        -12    1    1    2    0    0  0.20508068796E+02  0.37585500450E+02 -0.70973513785E+01  0.43400727257E+02  0.00000000000E+00 0.  1.
         11    1    3    3    0    0 -0.11621273950E+02 -0.96296288017E+01 -0.50784097917E+01  0.15924007201E+02  0.51100000000E-03 0. -1.
        -11    1    3    3    0    0 -0.74949200135E+01 -0.20451439063E+02  0.96534330263E+01  0.23824860025E+02  0.51100000000E-03 0.  1.
         12    1    3    3    0    0 -0.13918748331E+01 -0.75044325859E+01  0.25223281439E+01  0.80384055168E+01  0.00000000000E+00 0. -1.
</event>
<event>
 7    1  0.2497395E-009  0.4778727E+02  0.7816164E-02  0.1312668E+00
        -11   -1    0    0    0    0  0.00000000000E+00  0.00000000000E+00  0.45593999997E+02  0.45594000000E+02  0.51100000000E-03 0.  1.
         11   -1    0    0    0    0 -0.00000000000E+00 -0.00000000000E+00 -0.45593999997E+02  0.45594000000E+02  0.51100000000E-03 0. -1.
    9900012    2    1    2    0    0 -0.12945889424E+02 -0.41381772107E+02  0.18911277716E+01  0.47787268671E+02  0.19999989177E+02 0.  0.
        -12    1    1    2    0    0  0.12945889424E+02  0.41381772107E+02 -0.18911277716E+01  0.43400731329E+02  0.00000000000E+00 0.  1.
         11    1    3    3    0    0 -0.80417576288E+01 -0.54902455549E+01 -0.69367080379E+00  0.97618564556E+01  0.51100000000E-03 0. -1.
        -11    1    3    3    0    0 -0.44631708102E+01 -0.23008685993E+02  0.68996336277E+01  0.24432037763E+02  0.51100000000E-03 0.  1.
         12    1    3    3    0    0 -0.44096098449E+00 -0.12882840559E+02 -0.43148350523E+01  0.13593374452E+02  0.00000000000E+00 0. -1.
</event>
<event>
 7    1  0.2497395E-009  0.4778727E+02  0.7816164E-02  0.1312668E+00
        -11   -1    0    0    0    0  0.00000000000E+00  0.00000000000E+00  0.45593999997E+02  0.45594000000E+02  0.51100000000E-03 0.  1.
         11   -1    0    0    0    0 -0.00000000000E+00 -0.00000000000E+00 -0.45593999997E+02  0.45594000000E+02  0.51100000000E-03 0. -1.
    9900012    2    1    2    0    0  0.50653820297E+01  0.27265570299E+02 -0.33384940773E+02  0.47787266259E+02  0.19999978182E+02 0.  0.
        -12    1    1    2    0    0 -0.50653820297E+01 -0.27265570299E+02  0.33384940773E+02  0.43400733741E+02  0.00000000000E+00 0.  1.
         11    1    3    3    0    0  0.89398807454E+01  0.19598808699E+02 -0.14432519876E+02  0.25929373313E+02  0.51100000000E-03 0. -1.
        -11    1    3    3    0    0 -0.43645209835E+01  0.14082277548E+01 -0.72710820805E+01  0.85965565029E+01  0.51100000000E-03 0.  1.
         12    1    3    3    0    0  0.49002226781E+00  0.62585338446E+01 -0.11681338817E+02  0.13261336443E+02  0.00000000000E+00 0. -1.
</event>
<event>
 7    1  0.2497395E-009  0.4778726E+02  0.7816164E-02  0.1312668E+00
        -11   -1    0    0    0    0  0.00000000000E+00  0.00000000000E+00  0.45593999997E+02  0.45594000000E+02  0.51100000000E-03 0.  1.
         11   -1    0    0    0    0 -0.00000000000E+00 -0.00000000000E+00 -0.45593999997E+02  0.45594000000E+02  0.51100000000E-03 0. -1.
    9900012    2    1    2    0    0  0.15754166806E+02 -0.25677985725E+02 -0.31242148816E+02  0.47787255937E+02  0.19999931117E+02 0.  0.
        -12    1    1    2    0    0 -0.15754166806E+02  0.25677985725E+02  0.31242148816E+02  0.43400744063E+02  0.00000000000E+00 0.  1.
         11    1    3    3    0    0  0.71164384240E+01 -0.20883626639E+02 -0.17742257429E+02  0.28311786527E+02  0.51100000000E-03 0. -1.
        -11    1    3    3    0    0  0.60526540507E+01 -0.16421229923E+01 -0.10291877492E+01  0.63553455188E+01  0.51100000000E-03 0.  1.
        -12    1    3    3    0    0  0.25850743318E+01 -0.31522360936E+01 -0.12470703638E+02  0.13120123891E+02  0.00000000000E+00 0.  1.
</event>
<event>
 7    1  0.2497395E-009  0.4778727E+02  0.7816164E-02  0.1312668E+00
        -11   -1    0    0    0    0  0.00000000000E+00  0.00000000000E+00  0.45593999997E+02  0.45594000000E+02  0.51100000000E-03 0. -1.
         11   -1    0    0    0    0 -0.00000000000E+00 -0.00000000000E+00 -0.45593999997E+02  0.45594000000E+02  0.51100000000E-03 0.  1.
    9900012    2    1    2    0    0  0.37961395616E+02 -0.14942281581E+02  0.14808231633E+02  0.47787273508E+02  0.20000011233E+02 0.  0.
        -12    1    1    2    0    0 -0.37961395616E+02  0.14942281581E+02 -0.14808231633E+02  0.43400726492E+02  0.00000000000E+00 0.  1.
         11    1    3    3    0    0  0.27626145399E+02 -0.15381260896E+02  0.72790080502E+01  0.32446433622E+02  0.51100000000E-03 0. -1.
        -11    1    3    3    0    0  0.28522395729E+01  0.41175159661E+01  0.32229018837E+01  0.59561988823E+01  0.51100000000E-03 0.  1.
        -12    1    3    3    0    0  0.74830106442E+01 -0.36785366504E+01  0.43063216990E+01  0.93846410035E+01  0.00000000000E+00 0.  1.
</event>
<event>
 7    1  0.2497395E-009  0.4778727E+02  0.7816164E-02  0.1312668E+00
        -11   -1    0    0    0    0  0.00000000000E+00  0.00000000000E+00  0.45593999997E+02  0.45594000000E+02  0.51100000000E-03 0.  1.
         11   -1    0    0    0    0 -0.00000000000E+00 -0.00000000000E+00 -0.45593999997E+02  0.45594000000E+02  0.51100000000E-03 0. -1.
    9900012    2    1    2    0    0  0.16177704217E+02  0.40225777509E+02  0.19472720339E+01  0.47787272376E+02  0.20000006071E+02 0.  0.
        -12    1    1    2    0    0 -0.16177704217E+02 -0.40225777509E+02 -0.19472720339E+01  0.43400727624E+02  0.00000000000E+00 0.  1.
         11    1    3    3    0    0  0.21431357995E+01  0.28134587299E+02  0.42268027030E+01  0.28530928742E+02  0.51100000000E-03 0. -1.
        -11    1    3    3    0    0  0.10593175576E+02  0.10151190624E+02  0.46513119996E-01  0.14671884801E+02  0.51100000000E-03 0.  1.
         12    1    3    3    0    0  0.34413928417E+01  0.19399995850E+01 -0.23260437892E+01  0.45844588329E+01  0.00000000000E+00 0. -1.
</event>
<event>
 7    1  0.2497395E-009  0.4778727E+02  0.7816164E-02  0.1312668E+00
        -11   -1    0    0    0    0  0.00000000000E+00  0.00000000000E+00  0.45593999997E+02  0.45594000000E+02  0.51100000000E-03 0. -1.
         11   -1    0    0    0    0 -0.00000000000E+00 -0.00000000000E+00 -0.45593999997E+02  0.45594000000E+02  0.51100000000E-03 0.  1.
    9900012    2    1    2    0    0  0.12818905243E+02  0.36151904381E+02  0.20306130986E+02  0.47787268698E+02  0.19999989300E+02 0.  0.
        -12    1    1    2    0    0 -0.12818905243E+02 -0.36151904381E+02 -0.20306130986E+02  0.43400731302E+02  0.00000000000E+00 0.  1.
         11    1    3    3    0    0  0.29428417764E+01  0.11606050009E+01  0.29702544322E+01  0.43393240651E+01  0.51100000000E-03 0. -1.
        -11    1    3    3    0    0 -0.43450594458E+01  0.88495855478E+01  0.63430202180E+01  0.11722994997E+02  0.51100000000E-03 0.  1.
        -12    1    3    3    0    0  0.14221122912E+02  0.26141713832E+02  0.10992856336E+02  0.31724949635E+02  0.00000000000E+00 0.  1.
</event>
<event>
 7    1  0.2497395E-009  0.4778727E+02  0.7816164E-02  0.1312668E+00
        -11   -1    0    0    0    0  0.00000000000E+00  0.00000000000E+00  0.45593999997E+02  0.45594000000E+02  0.51100000000E-03 0. -1.
         11   -1    0    0    0    0 -0.00000000000E+00 -0.00000000000E+00 -0.45593999997E+02  0.45594000000E+02  0.51100000000E-03 0.  1.
    9900012    2    1    2    0    0 -0.34611327335E+02 -0.20962503288E+02 -0.15692435525E+02  0.47787273546E+02  0.20000011405E+02 0.  0.
        -12    1    1    2    0    0  0.34611327335E+02  0.20962503288E+02  0.15692435525E+02  0.43400726454E+02  0.00000000000E+00 0.  1.
         11    1    3    3    0    0 -0.15382836249E+02 -0.10043354339E+02 -0.89704432658E+01  0.20444301653E+02  0.51100000000E-03 0. -1.
        -11    1    3    3    0    0 -0.18503039311E+01  0.27192027849E+01 -0.38541007335E+01  0.50667327883E+01  0.51100000000E-03 0.  1.
        -12    1    3    3    0    0 -0.17378187155E+02 -0.13638351734E+02 -0.28678915259E+01  0.22276239104E+02  0.00000000000E+00 0.  1.
</event>
<event>
 7    1  0.2497395E-009  0.4778727E+02  0.7816164E-02  0.1312668E+00
        -11   -1    0    0    0    0  0.00000000000E+00  0.00000000000E+00  0.45593999997E+02  0.45594000000E+02  0.51100000000E-03 0. -1.
         11   -1    0    0    0    0 -0.00000000000E+00 -0.00000000000E+00 -0.45593999997E+02  0.45594000000E+02  0.51100000000E-03 0.  1.
    9900012    2    1    2    0    0  0.21783825891E+02  0.28387477859E+02  0.24560931958E+02  0.47787270187E+02  0.19999996090E+02 0.  0.
        -12    1    1    2    0    0 -0.21783825891E+02 -0.28387477859E+02 -0.24560931958E+02  0.43400729813E+02  0.00000000000E+00 0.  1.
         11    1    3    3    0    0  0.75366207225E+01  0.99505151493E+01  0.42002993976E+00  0.12489588827E+02  0.51100000000E-03 0. -1.
        -11    1    3    3    0    0  0.37169969180E+01  0.73377033687E+01  0.21388062347E+01  0.84989675365E+01  0.51100000000E-03 0.  1.
         12    1    3    3    0    0  0.10530208251E+02  0.11099259341E+02  0.22002095784E+02  0.26798713824E+02  0.00000000000E+00 0. -1.
</event>
<event>
 7    1  0.2497395E-009  0.4778729E+02  0.7816164E-02  0.1312668E+00
        -11   -1    0    0    0    0  0.00000000000E+00  0.00000000000E+00  0.45593999997E+02  0.45594000000E+02  0.51100000000E-03 0. -1.
         11   -1    0    0    0    0 -0.00000000000E+00 -0.00000000000E+00 -0.45593999997E+02  0.45594000000E+02  0.51100000000E-03 0.  1.
    9900012    2    1    2    0    0  0.19713025954E+02 -0.38382041957E+02  0.46729879623E+01  0.47787293168E+02  0.20000100870E+02 0.  0.
        -12    1    1    2    0    0 -0.19713025954E+02  0.38382041957E+02 -0.46729879623E+01  0.43400706832E+02  0.00000000000E+00 0.  1.
         11    1    3    3    0    0  0.86397893982E+01 -0.22577940990E+02 -0.48540049473E+01  0.24657062771E+02  0.51100000000E-03 0. -1.
        -11    1    3    3    0    0 -0.13841945200E+00 -0.63620178619E+01  0.21216739645E+01  0.67079007068E+01  0.51100000000E-03 0.  1.
         12    1    3    3    0    0  0.11211656007E+02 -0.94420831048E+01  0.74053189451E+01  0.16422329691E+02  0.00000000000E+00 0. -1.
</event>
<event>
 7    1  0.2497395E-009  0.4778727E+02  0.7816164E-02  0.1312668E+00
        -11   -1    0    0    0    0  0.00000000000E+00  0.00000000000E+00  0.45593999997E+02  0.45594000000E+02  0.51100000000E-03 0. -1.
         11   -1    0    0    0    0 -0.00000000000E+00 -0.00000000000E+00 -0.45593999997E+02  0.45594000000E+02  0.51100000000E-03 0.  1.
    9900012    2    1    2    0    0  0.32201649382E+02 -0.23386066636E+02  0.17313831787E+02  0.47787272970E+02  0.20000008778E+02 0.  0.
        -12    1    1    2    0    0 -0.32201649382E+02  0.23386066636E+02 -0.17313831787E+02  0.43400727030E+02  0.00000000000E+00 0.  1.
         11    1    3    3    0    0  0.57694830916E+01 -0.13850693925E+02  0.33182724567E+01  0.15366834082E+02  0.51100000000E-03 0.  1.
        -11    1    3    3    0    0  0.22922194524E+02 -0.87293624811E+01  0.87183191910E+01  0.26031478270E+02  0.51100000000E-03 0. -1.
        -12    1    3    3    0    0  0.35099717658E+01 -0.80601023024E+00  0.52772401392E+01  0.63889606177E+01  0.00000000000E+00 0.  1.
</event>
<event>
 7    1  0.2497395E-009  0.4778727E+02  0.7816164E-02  0.1312668E+00
        -11   -1    0    0    0    0  0.00000000000E+00  0.00000000000E+00  0.45593999997E+02  0.45594000000E+02  0.51100000000E-03 0.  1.
         11   -1    0    0    0    0 -0.00000000000E+00 -0.00000000000E+00 -0.45593999997E+02  0.45594000000E+02  0.51100000000E-03 0. -1.
    9900012    2    1    2    0    0  0.27923247725E+01 -0.42764700523E+02 -0.68561281107E+01  0.47787272113E+02  0.20000004871E+02 0.  0.
        -12    1    1    2    0    0 -0.27923247725E+01  0.42764700523E+02  0.68561281107E+01  0.43400727887E+02  0.00000000000E+00 0.  1.
         11    1    3    3    0    0 -0.90569811247E+00 -0.20039962418E+02 -0.43118182427E+01  0.20518580838E+02  0.51100000000E-03 0. -1.
        -11    1    3    3    0    0  0.76418183555E+01 -0.91639786434E+01  0.26469453776E+01  0.12222201620E+02  0.51100000000E-03 0.  1.
        -12    1    3    3    0    0 -0.39437954705E+01 -0.13560759462E+02 -0.51912552456E+01  0.15046489655E+02  0.00000000000E+00 0.  1.
</event>
<event>
 7    1  0.2497395E-009  0.4778727E+02  0.7816164E-02  0.1312668E+00
        -11   -1    0    0    0    0  0.00000000000E+00  0.00000000000E+00  0.45593999997E+02  0.45594000000E+02  0.51100000000E-03 0.  1.
         11   -1    0    0    0    0 -0.00000000000E+00 -0.00000000000E+00 -0.45593999997E+02  0.45594000000E+02  0.51100000000E-03 0. -1.
    9900012    2    1    2    0    0  0.10643403261E+01  0.52788386104E+01 -0.43065347928E+02  0.47787272477E+02  0.20000006531E+02 0.  0.
        -12    1    1    2    0    0 -0.10643403261E+01 -0.52788386104E+01  0.43065347928E+02  0.43400727523E+02  0.00000000000E+00 0.  1.
         11    1    3    3    0    0  0.38415958697E+01  0.77468491660E+01 -0.30083160114E+02  0.31301246836E+02  0.51100000000E-03 0. -1.
        -11    1    3    3    0    0 -0.37951449252E+01 -0.34528802656E+01 -0.13887535084E+02  0.14805037592E+02  0.51100000000E-03 0.  1.
         12    1    3    3    0    0  0.10178893817E+01  0.98486971005E+00  0.90534727015E+00  0.16809880483E+01  0.00000000000E+00 0. -1.
</event>
<event>
 7    1  0.2497395E-009  0.4778727E+02  0.7816164E-02  0.1312668E+00
        -11   -1    0    0    0    0  0.00000000000E+00  0.00000000000E+00  0.45593999997E+02  0.45594000000E+02  0.51100000000E-03 0.  1.
         11   -1    0    0    0    0 -0.00000000000E+00 -0.00000000000E+00 -0.45593999997E+02  0.45594000000E+02  0.51100000000E-03 0. -1.
    9900012    2    1    2    0    0 -0.36617979144E+02 -0.10806317401E+02 -0.20639051889E+02  0.47787270107E+02  0.19999995726E+02 0.  0.
        -12    1    1    2    0    0  0.36617979144E+02  0.10806317401E+02  0.20639051889E+02  0.43400729893E+02  0.00000000000E+00 0.  1.
         11    1    3    3    0    0 -0.99593207915E+01  0.16712861303E+01 -0.97214794443E+01  0.14017433103E+02  0.51100000000E-03 0. -1.
        -11    1    3    3    0    0 -0.19131751277E+02 -0.10169219825E+02 -0.18261317284E+01  0.21743313826E+02  0.51100000000E-03 0.  1.
        -12    1    3    3    0    0 -0.75269070757E+01 -0.23083837062E+01 -0.90914407159E+01  0.12026523178E+02  0.00000000000E+00 0.  1.
</event>
<event>
 7    1  0.2497395E-009  0.4778728E+02  0.7816164E-02  0.1312668E+00
        -11   -1    0    0    0    0  0.00000000000E+00  0.00000000000E+00  0.45593999997E+02  0.45594000000E+02  0.51100000000E-03 0. -1.
         11   -1    0    0    0    0 -0.00000000000E+00 -0.00000000000E+00 -0.45593999997E+02  0.45594000000E+02  0.51100000000E-03 0.  1.
    9900012    2    1    2    0    0  0.15513513742E+02  0.48206628764E+01  0.40245678850E+02  0.47787279208E+02  0.20000037221E+02 0.  0.
        -12    1    1    2    0    0 -0.15513513742E+02 -0.48206628764E+01 -0.40245678850E+02  0.43400720792E+02  0.00000000000E+00 0.  1.
         11    1    3    3    0    0  0.15715460269E+01  0.13866588963E+01  0.12269492258E+02  0.12447209339E+02  0.51100000000E-03 0. -1.
        -11    1    3    3    0    0  0.32858727550E+01 -0.42437565347E+01  0.11757954605E+01  0.54944448777E+01  0.51100000000E-03 0.  1.
        -12    1    3    3    0    0  0.10656094960E+02  0.76777605148E+01  0.26800391132E+02  0.29845624991E+02  0.00000000000E+00 0.  1.
</event>
<event>
 7    1  0.2497395E-009  0.4778727E+02  0.7816164E-02  0.1312668E+00
        -11   -1    0    0    0    0  0.00000000000E+00  0.00000000000E+00  0.45593999997E+02  0.45594000000E+02  0.51100000000E-03 0. -1.
         11   -1    0    0    0    0 -0.00000000000E+00 -0.00000000000E+00 -0.45593999997E+02  0.45594000000E+02  0.51100000000E-03 0.  1.
    9900012    2    1    2    0    0 -0.49295459464E+01 -0.10679808059E+02  0.41776364079E+02  0.47787270523E+02  0.19999997624E+02 0.  0.
        -12    1    1    2    0    0  0.49295459464E+01  0.10679808059E+02 -0.41776364079E+02  0.43400729477E+02  0.00000000000E+00 0.  1.
         11    1    3    3    0    0 -0.73631355849E+01 -0.87609855642E+01  0.10659723628E+02  0.15639704018E+02  0.51100000000E-03 0. -1.
        -11    1    3    3    0    0  0.38526914063E+01 -0.32778622225E+01  0.28070820180E+02  0.28522947913E+02  0.51100000000E-03 0.  1.
        -12    1    3    3    0    0 -0.14191017678E+01  0.13590397276E+01  0.30458202717E+01  0.36246185918E+01  0.00000000000E+00 0.  1.
</event>
<event>
 7    1  0.2497395E-009  0.4778727E+02  0.7816164E-02  0.1312668E+00
        -11   -1    0    0    0    0  0.00000000000E+00  0.00000000000E+00  0.45593999997E+02  0.45594000000E+02  0.51100000000E-03 0. -1.
         11   -1    0    0    0    0 -0.00000000000E+00 -0.00000000000E+00 -0.45593999997E+02  0.45594000000E+02  0.51100000000E-03 0.  1.
    9900012    2    1    2    0    0 -0.79550692330E+01 -0.42298219695E+02 -0.55857619082E+01  0.47787271297E+02  0.20000001152E+02 0.  0.
        -12    1    1    2    0    0  0.79550692330E+01  0.42298219695E+02  0.55857619082E+01  0.43400728703E+02  0.00000000000E+00 0.  1.
         11    1    3    3    0    0  0.81428837079E+00 -0.30351683355E+01  0.37537924577E+01  0.48955357677E+01  0.51100000000E-03 0. -1.
        -11    1    3    3    0    0 -0.88338259939E+01 -0.39648770108E+02 -0.78767856251E+01  0.41377593028E+02  0.51100000000E-03 0.  1.
        -12    1    3    3    0    0  0.64468390113E-01  0.38571874832E+00 -0.14627687408E+01  0.15141425016E+01  0.00000000000E+00 0.  1.
</event>
<event>
 7    1  0.2497395E-009  0.4778727E+02  0.7816164E-02  0.1312668E+00
        -11   -1    0    0    0    0  0.00000000000E+00  0.00000000000E+00  0.45593999997E+02  0.45594000000E+02  0.51100000000E-03 0. -1.
         11   -1    0    0    0    0 -0.00000000000E+00 -0.00000000000E+00 -0.45593999997E+02  0.45594000000E+02  0.51100000000E-03 0.  1.
    9900012    2    1    2    0    0 -0.15011742481E+02 -0.11294058712E+02  0.39124355980E+02  0.47787269530E+02  0.19999993093E+02 0.  0.
        -12    1    1    2    0    0  0.15011742481E+02  0.11294058712E+02 -0.39124355980E+02  0.43400730470E+02  0.00000000000E+00 0.  1.
         11    1    3    3    0    0  0.16883829384E+01 -0.71561025707E+01  0.67187525810E+01  0.99600239686E+01  0.51100000000E-03 0. -1.
        -11    1    3    3    0    0 -0.13742167795E+02 -0.67918211496E+01  0.27783282141E+02  0.31731479276E+02  0.51100000000E-03 0.  1.
        -12    1    3    3    0    0 -0.29579576241E+01  0.26538650085E+01  0.46223212579E+01  0.60957662849E+01  0.00000000000E+00 0.  1.
</event>
<event>
 7    1  0.2497395E-009  0.4778727E+02  0.7816164E-02  0.1312668E+00
        -11   -1    0    0    0    0  0.00000000000E+00  0.00000000000E+00  0.45593999997E+02  0.45594000000E+02  0.51100000000E-03 0. -1.
         11   -1    0    0    0    0 -0.00000000000E+00 -0.00000000000E+00 -0.45593999997E+02  0.45594000000E+02  0.51100000000E-03 0.  1.
    9900012    2    1    2    0    0  0.92181293142E+01  0.41654576591E+02 -0.79715437806E+01  0.47787272249E+02  0.20000005492E+02 0.  0.
        -12    1    1    2    0    0 -0.92181293142E+01 -0.41654576591E+02  0.79715437806E+01  0.43400727751E+02  0.00000000000E+00 0.  1.
         11    1    3    3    0    0  0.83710220217E+01  0.21875141667E+02 -0.10719724694E+02  0.25758655446E+02  0.51100000000E-03 0. -1.
        -11    1    3    3    0    0 -0.28825960319E+01  0.26515541031E+01 -0.11281343710E+01  0.40758786127E+01  0.51100000000E-03 0.  1.
         12    1    3    3    0    0  0.37297033244E+01  0.17127880822E+02  0.38763152848E+01  0.17952738190E+02  0.00000000000E+00 0. -1.
</event>
<event>
 7    1  0.2497395E-009  0.4778728E+02  0.7816164E-02  0.1312668E+00
        -11   -1    0    0    0    0  0.00000000000E+00  0.00000000000E+00  0.45593999997E+02  0.45594000000E+02  0.51100000000E-03 0.  1.
         11   -1    0    0    0    0 -0.00000000000E+00 -0.00000000000E+00 -0.45593999997E+02  0.45594000000E+02  0.51100000000E-03 0. -1.
    9900012    2    1    2    0    0 -0.21032395598E+02 -0.36362537569E+02  0.10909947416E+02  0.47787277015E+02  0.20000027221E+02 0.  0.
        -12    1    1    2    0    0  0.21032395598E+02  0.36362537569E+02 -0.10909947416E+02  0.43400722985E+02  0.00000000000E+00 0.  1.
         11    1    3    3    0    0 -0.85643222995E+00 -0.56906672034E+01 -0.22171140501E+01  0.61670709706E+01  0.51100000000E-03 0. -1.
        -11    1    3    3    0    0 -0.14646795571E+02 -0.30641497114E+02  0.11503904601E+02  0.35857632203E+02  0.51100000000E-03 0.  1.
        -12    1    3    3    0    0 -0.55291677969E+01 -0.30373251071E-01  0.16231568654E+01  0.57625738408E+01  0.00000000000E+00 0.  1.
</event>
<event>
 7    1  0.2497395E-009  0.4778727E+02  0.7816164E-02  0.1312668E+00
        -11   -1    0    0    0    0  0.00000000000E+00  0.00000000000E+00  0.45593999997E+02  0.45594000000E+02  0.51100000000E-03 0.  1.
         11   -1    0    0    0    0 -0.00000000000E+00 -0.00000000000E+00 -0.45593999997E+02  0.45594000000E+02  0.51100000000E-03 0. -1.
    9900012    2    1    2    0    0  0.19877492848E+01 -0.10505056256E+01 -0.43342455413E+02  0.47787272465E+02  0.20000006478E+02 0.  0.
        -12    1    1    2    0    0 -0.19877492848E+01  0.10505056256E+01  0.43342455413E+02  0.43400727535E+02  0.00000000000E+00 0.  1.
         11    1    3    3    0    0  0.32749455709E+01  0.72303540645E+01 -0.23380442222E+02  0.24691058445E+02  0.51100000000E-03 0. -1.
        -11    1    3    3    0    0 -0.34267851486E+01 -0.70409174505E+01 -0.93308165689E+01  0.12181195061E+02  0.51100000000E-03 0.  1.
         12    1    3    3    0    0  0.21395888626E+01 -0.12399422395E+01 -0.10631196622E+02  0.10915018959E+02  0.00000000000E+00 0. -1.
</event>
<event>
 7    1  0.2497395E-009  0.4778727E+02  0.7816164E-02  0.1312668E+00
        -11   -1    0    0    0    0  0.00000000000E+00  0.00000000000E+00  0.45593999997E+02  0.45594000000E+02  0.51100000000E-03 0. -1.
         11   -1    0    0    0    0 -0.00000000000E+00 -0.00000000000E+00 -0.45593999997E+02  0.45594000000E+02  0.51100000000E-03 0.  1.
    9900012    2    1    2    0    0  0.81425493372E+01 -0.38632565230E+02  0.18023519034E+02  0.47787269081E+02  0.19999991046E+02 0.  0.
        -12    1    1    2    0    0 -0.81425493372E+01  0.38632565230E+02 -0.18023519034E+02  0.43400730919E+02  0.00000000000E+00 0.  1.
         11    1    3    3    0    0  0.56182184289E+01 -0.33124375104E+02  0.14006200878E+02  0.36400031149E+02  0.51100000000E-03 0. -1.
        -11    1    3    3    0    0 -0.23463649793E+01 -0.23305783665E+01 -0.12552651156E+01  0.35373316087E+01  0.51100000000E-03 0.  1.
        -12    1    3    3    0    0  0.48706958876E+01 -0.31776117593E+01  0.52725832715E+01  0.78499063228E+01  0.00000000000E+00 0.  1.
</event>
<event>
 7    1  0.2497395E-009  0.4778728E+02  0.7816164E-02  0.1312668E+00
        -11   -1    0    0    0    0  0.00000000000E+00  0.00000000000E+00  0.45593999997E+02  0.45594000000E+02  0.51100000000E-03 0.  1.
         11   -1    0    0    0    0 -0.00000000000E+00 -0.00000000000E+00 -0.45593999997E+02  0.45594000000E+02  0.51100000000E-03 0. -1.
    9900012    2    1    2    0    0  0.21134341157E+02  0.36440427102E+02 -0.10443062905E+02  0.47787278043E+02  0.20000031909E+02 0.  0.
        -12    1    1    2    0    0 -0.21134341157E+02 -0.36440427102E+02  0.10443062905E+02  0.43400721957E+02  0.00000000000E+00 0.  1.
         11    1    3    3    0    0  0.11739805607E+01  0.48074488082E+01 -0.31114802440E+00  0.49584884546E+01  0.51100000000E-03 0. -1.
        -11    1    3    3    0    0  0.14173067502E+02  0.30310851950E+02 -0.13409459544E+02  0.36047707193E+02  0.51100000000E-03 0.  1.
        -12    1    3    3    0    0  0.57872930949E+01  0.13221263444E+01  0.32775446634E+01  0.67810823958E+01  0.00000000000E+00 0.  1.
</event>
<event>
 7    1  0.2497395E-009  0.4778727E+02  0.7816164E-02  0.1312668E+00
        -11   -1    0    0    0    0  0.00000000000E+00  0.00000000000E+00  0.45593999997E+02  0.45594000000E+02  0.51100000000E-03 0.  1.
         11   -1    0    0    0    0 -0.00000000000E+00 -0.00000000000E+00 -0.45593999997E+02  0.45594000000E+02  0.51100000000E-03 0. -1.
    9900012    2    1    2    0    0  0.21154016056E+01  0.21032064955E+02 -0.37905155147E+02  0.47787268821E+02  0.19999989860E+02 0.  0.
        -12    1    1    2    0    0 -0.21154016056E+01 -0.21032064955E+02  0.37905155147E+02  0.43400731179E+02  0.00000000000E+00 0.  1.
         11    1    3    3    0    0 -0.28582870335E+01  0.73495854095E+01 -0.25884013463E+02  0.27058609788E+02  0.51100000000E-03 0. -1.
        -11    1    3    3    0    0  0.22765221102E+01  0.26685518663E+01  0.81515889140E+00  0.36011395781E+01  0.51100000000E-03 0.  1.
         12    1    3    3    0    0  0.26971665289E+01  0.11013927679E+02 -0.12836300576E+02  0.17127519455E+02  0.00000000000E+00 0. -1.
</event>
<event>
 7    1  0.2497395E-009  0.4778727E+02  0.7816164E-02  0.1312668E+00
        -11   -1    0    0    0    0  0.00000000000E+00  0.00000000000E+00  0.45593999997E+02  0.45594000000E+02  0.51100000000E-03 0.  1.
         11   -1    0    0    0    0 -0.00000000000E+00 -0.00000000000E+00 -0.45593999997E+02  0.45594000000E+02  0.51100000000E-03 0. -1.
    9900012    2    1    2    0    0 -0.11120829603E+02  0.38253301198E+02 -0.17223101313E+02  0.47787272789E+02  0.20000007954E+02 0.  0.
        -12    1    1    2    0    0  0.11120829603E+02 -0.38253301198E+02  0.17223101313E+02  0.43400727211E+02  0.00000000000E+00 0.  1.
         11    1    3    3    0    0 -0.66428174593E+01  0.22309791130E+02 -0.18256794230E+02  0.29583176636E+02  0.51100000000E-03 0. -1.
        -11    1    3    3    0    0 -0.54904199989E+01  0.15460191862E+02 -0.36606565238E+00  0.16410248276E+02  0.51100000000E-03 0.  1.
         12    1    3    3    0    0  0.10124078557E+01  0.48331820665E+00  0.13997585687E+01  0.17938478770E+01  0.00000000000E+00 0. -1.
</event>
<event>
 7    1  0.2497395E-009  0.4778727E+02  0.7816164E-02  0.1312668E+00
        -11   -1    0    0    0    0  0.00000000000E+00  0.00000000000E+00  0.45593999997E+02  0.45594000000E+02  0.51100000000E-03 0. -1.
         11   -1    0    0    0    0 -0.00000000000E+00 -0.00000000000E+00 -0.45593999997E+02  0.45594000000E+02  0.51100000000E-03 0.  1.
    9900012    2    1    2    0    0 -0.13379493103E+02 -0.72135701728E+01  0.40651896319E+02  0.47787272994E+02  0.20000008889E+02 0.  0.
        -12    1    1    2    0    0  0.13379493103E+02  0.72135701728E+01 -0.40651896319E+02  0.43400727006E+02  0.00000000000E+00 0.  1.
         11    1    3    3    0    0 -0.61061570602E+01 -0.19480951938E+01  0.79775163457E+01  0.10233327720E+02  0.51100000000E-03 0. -1.
        -11    1    3    3    0    0 -0.57631315591E+01  0.50267764243E+01  0.18088311493E+02  0.19638461740E+02  0.51100000000E-03 0.  1.
        -12    1    3    3    0    0 -0.15102044834E+01 -0.10292251403E+02  0.14586068481E+02  0.17915483534E+02  0.00000000000E+00 0.  1.
</event>
<event>
 7    1  0.2497395E-009  0.4778727E+02  0.7816164E-02  0.1312668E+00
        -11   -1    0    0    0    0  0.00000000000E+00  0.00000000000E+00  0.45593999997E+02  0.45594000000E+02  0.51100000000E-03 0. -1.
         11   -1    0    0    0    0 -0.00000000000E+00 -0.00000000000E+00 -0.45593999997E+02  0.45594000000E+02  0.51100000000E-03 0.  1.
    9900012    2    1    2    0    0 -0.19188636844E+00  0.14639612697E+02  0.40856678268E+02  0.47787271441E+02  0.20000001810E+02 0.  0.
        -12    1    1    2    0    0  0.19188636844E+00 -0.14639612697E+02 -0.40856678268E+02  0.43400728559E+02  0.00000000000E+00 0.  1.
         11    1    3    3    0    0 -0.42147444684E+01  0.17875645153E+01  0.10141089492E+02  0.11126596703E+02  0.51100000000E-03 0. -1.
        -11    1    3    3    0    0  0.14001368422E+01  0.38288245256E+01 -0.45726068846E+00  0.41023612741E+01  0.51100000000E-03 0.  1.
        -12    1    3    3    0    0  0.26227212577E+01  0.90232236558E+01  0.31172849464E+02  0.32558313465E+02  0.00000000000E+00 0.  1.
</event>
<event>
 7    1  0.2497395E-009  0.4778728E+02  0.7816164E-02  0.1312668E+00
        -11   -1    0    0    0    0  0.00000000000E+00  0.00000000000E+00  0.45593999997E+02  0.45594000000E+02  0.51100000000E-03 0.  1.
         11   -1    0    0    0    0 -0.00000000000E+00 -0.00000000000E+00 -0.45593999997E+02  0.45594000000E+02  0.51100000000E-03 0. -1.
    9900012    2    1    2    0    0  0.37846186458E+02  0.68658284987E+01 -0.20103464227E+02  0.47787277606E+02  0.20000029919E+02 0.  0.
        -12    1    1    2    0    0 -0.37846186458E+02 -0.68658284987E+01  0.20103464227E+02  0.43400722394E+02  0.00000000000E+00 0.  1.
         11    1    3    3    0    0  0.20524296428E+02  0.11030640597E+01 -0.19910904364E+02  0.28616561761E+02  0.51100000000E-03 0. -1.
        -11    1    3    3    0    0  0.49832341503E+01  0.45764465465E+01 -0.33861801812E+00  0.67743005553E+01  0.51100000000E-03 0.  1.
        -12    1    3    3    0    0  0.12338655880E+02  0.11863178924E+01  0.14605815530E+00  0.12396415290E+02  0.00000000000E+00 0.  1.
</event>
<event>
 7    1  0.2497395E-009  0.4778727E+02  0.7816164E-02  0.1312668E+00
        -11   -1    0    0    0    0  0.00000000000E+00  0.00000000000E+00  0.45593999997E+02  0.45594000000E+02  0.51100000000E-03 0.  1.
         11   -1    0    0    0    0 -0.00000000000E+00 -0.00000000000E+00 -0.45593999997E+02  0.45594000000E+02  0.51100000000E-03 0. -1.
    9900012    2    1    2    0    0 -0.78800680052E+01 -0.42651318737E+02 -0.15469103210E+01  0.47787269668E+02  0.19999993726E+02 0.  0.
        -12    1    1    2    0    0  0.78800680052E+01  0.42651318737E+02  0.15469103210E+01  0.43400730332E+02  0.00000000000E+00 0.  1.
         11    1    3    3    0    0 -0.26775970563E+01 -0.27056495082E+02 -0.67640076735E+01  0.28017409805E+02  0.51100000000E-03 0. -1.
        -11    1    3    3    0    0 -0.26919009455E+01 -0.14500795843E+02  0.71771105485E+01  0.16402143972E+02  0.51100000000E-03 0.  1.
        -12    1    3    3    0    0 -0.25105700034E+01 -0.10940278117E+01 -0.19600131961E+01  0.33677158912E+01  0.00000000000E+00 0.  1.
</event>
<event>
 7    1  0.2497395E-009  0.4778727E+02  0.7816164E-02  0.1312668E+00
        -11   -1    0    0    0    0  0.00000000000E+00  0.00000000000E+00  0.45593999997E+02  0.45594000000E+02  0.51100000000E-03 0. -1.
         11   -1    0    0    0    0 -0.00000000000E+00 -0.00000000000E+00 -0.45593999997E+02  0.45594000000E+02  0.51100000000E-03 0.  1.
    9900012    2    1    2    0    0 -0.28131263032E+02 -0.32862913850E+02 -0.35048901998E+01  0.47787270492E+02  0.19999997483E+02 0.  0.
        -12    1    1    2    0    0  0.28131263032E+02  0.32862913850E+02  0.35048901998E+01  0.43400729508E+02  0.00000000000E+00 0.  1.
         11    1    3    3    0    0 -0.17087750613E+02 -0.30342958003E+02 -0.63974756885E+01  0.35406412086E+02  0.51100000000E-03 0. -1.
        -11    1    3    3    0    0 -0.84708372127E+01 -0.15912273154E+01  0.39075920912E+01  0.94634224076E+01  0.51100000000E-03 0.  1.
         12    1    3    3    0    0 -0.25726752062E+01 -0.92872853173E+00 -0.10150066024E+01  0.29174359985E+01  0.00000000000E+00 0. -1.
</event>
<event>
 7    1  0.2497395E-009  0.4778727E+02  0.7816164E-02  0.1312668E+00
        -11   -1    0    0    0    0  0.00000000000E+00  0.00000000000E+00  0.45593999997E+02  0.45594000000E+02  0.51100000000E-03 0.  1.
         11   -1    0    0    0    0 -0.00000000000E+00 -0.00000000000E+00 -0.45593999997E+02  0.45594000000E+02  0.51100000000E-03 0. -1.
    9900012    2    1    2    0    0  0.41136389844E+02 -0.37162941910E+00  0.13830500258E+02  0.47787269417E+02  0.19999992578E+02 0.  0.
        -12    1    1    2    0    0 -0.41136389844E+02  0.37162941910E+00 -0.13830500258E+02  0.43400730583E+02  0.00000000000E+00 0.  1.
         11    1    3    3    0    0  0.22270875279E+02 -0.51569117191E+01  0.43444466036E+01  0.23269289648E+02  0.51100000000E-03 0. -1.
        -11    1    3    3    0    0  0.64765493222E+01  0.74798604463E+01  0.48440494130E+01  0.11016297853E+02  0.51100000000E-03 0.  1.
        -12    1    3    3    0    0  0.12388965243E+02 -0.26945781463E+01  0.46420042410E+01  0.13501681915E+02  0.00000000000E+00 0.  1.
</event>
<event>
 7    1  0.2497395E-009  0.4778729E+02  0.7816164E-02  0.1312668E+00
        -11   -1    0    0    0    0  0.00000000000E+00  0.00000000000E+00  0.45593999997E+02  0.45594000000E+02  0.51100000000E-03 0.  1.
         11   -1    0    0    0    0 -0.00000000000E+00 -0.00000000000E+00 -0.45593999997E+02  0.45594000000E+02  0.51100000000E-03 0. -1.
    9900012    2    1    2    0    0 -0.50737400638E+01  0.42793523234E+01 -0.42890163534E+02  0.47787287765E+02  0.20000076235E+02 0.  0.
        -12    1    1    2    0    0  0.50737400638E+01 -0.42793523234E+01  0.42890163534E+02  0.43400712235E+02  0.00000000000E+00 0.  1.
         11    1    3    3    0    0 -0.59413011462E+01  0.39226373183E+01 -0.67935193010E+01  0.98406324794E+01  0.51100000000E-03 0. -1.
        -11    1    3    3    0    0  0.41585077917E+01  0.89390216347E-01 -0.33470157373E+02  0.33727623879E+02  0.51100000000E-03 0.  1.
        -12    1    3    3    0    0 -0.32909467094E+01  0.26732478871E+00 -0.26264868597E+01  0.42190314067E+01  0.00000000000E+00 0.  1.
</event>
<event>
 7    1  0.2497395E-009  0.4778725E+02  0.7816164E-02  0.1312668E+00
        -11   -1    0    0    0    0  0.00000000000E+00  0.00000000000E+00  0.45593999997E+02  0.45594000000E+02  0.51100000000E-03 0.  1.
         11   -1    0    0    0    0 -0.00000000000E+00 -0.00000000000E+00 -0.45593999997E+02  0.45594000000E+02  0.51100000000E-03 0. -1.
    9900012    2    1    2    0    0 -0.26414110752E+01  0.12590041349E+02 -0.41450441723E+02  0.47787247557E+02  0.19999892910E+02 0.  0.
        -12    1    1    2    0    0  0.26414110752E+01 -0.12590041349E+02  0.41450441723E+02  0.43400752443E+02  0.00000000000E+00 0.  1.
         11    1    3    3    0    0  0.32064383641E+01  0.67381637463E+01 -0.53866122011E+01  0.92032433913E+01  0.51100000000E-03 0.  1.
        -11    1    3    3    0    0 -0.43909083280E+01  0.89915370123E+01 -0.29692000076E+02  0.31332773298E+02  0.51100000000E-03 0. -1.
        -12    1    3    3    0    0 -0.14569411113E+01 -0.31396594092E+01 -0.63718294460E+01  0.72512308676E+01  0.00000000000E+00 0.  1.
</event>
<event>
 7    1  0.2497395E-009  0.4778727E+02  0.7816164E-02  0.1312668E+00
        -11   -1    0    0    0    0  0.00000000000E+00  0.00000000000E+00  0.45593999997E+02  0.45594000000E+02  0.51100000000E-03 0.  1.
         11   -1    0    0    0    0 -0.00000000000E+00 -0.00000000000E+00 -0.45593999997E+02  0.45594000000E+02  0.51100000000E-03 0. -1.
    9900012    2    1    2    0    0 -0.88383733834E+01 -0.35020796595E+02 -0.24063463073E+02  0.47787270821E+02  0.19999998983E+02 0.  0.
        -12    1    1    2    0    0  0.88383733834E+01  0.35020796595E+02  0.24063463073E+02  0.43400729179E+02  0.00000000000E+00 0.  1.
         11    1    3    3    0    0 -0.64385060691E+01 -0.80304378373E+01 -0.12304227011E+02  0.16041704861E+02  0.51100000000E-03 0.  1.
        -11    1    3    3    0    0 -0.17633852924E+01 -0.17673368179E+02 -0.14269641490E+01  0.17818352826E+02  0.51100000000E-03 0. -1.
         12    1    3    3    0    0 -0.63648202191E+00 -0.93169905779E+01 -0.10332271913E+02  0.13927213134E+02  0.00000000000E+00 0. -1.
</event>
<event>
 7    1  0.2497395E-009  0.4778727E+02  0.7816164E-02  0.1312668E+00
        -11   -1    0    0    0    0  0.00000000000E+00  0.00000000000E+00  0.45593999997E+02  0.45594000000E+02  0.51100000000E-03 0.  1.
         11   -1    0    0    0    0 -0.00000000000E+00 -0.00000000000E+00 -0.45593999997E+02  0.45594000000E+02  0.51100000000E-03 0. -1.
    9900012    2    1    2    0    0  0.17257361515E+02  0.22258549644E+01 -0.39759934586E+02  0.47787270109E+02  0.19999995735E+02 0.  0.
        -12    1    1    2    0    0 -0.17257361515E+02 -0.22258549644E+01  0.39759934586E+02  0.43400729891E+02  0.00000000000E+00 0.  1.
         11    1    3    3    0    0  0.14934124967E+02 -0.70117326610E+00 -0.10863184741E+02  0.18480490130E+02  0.51100000000E-03 0. -1.
        -11    1    3    3    0    0 -0.31963471529E+00  0.19816134066E+01 -0.96605066178E+01  0.98668306166E+01  0.51100000000E-03 0.  1.
         12    1    3    3    0    0  0.26428712638E+01  0.94541482397E+00 -0.19236243227E+02  0.19439949362E+02  0.00000000000E+00 0. -1.
</event>
<event>
 7    1  0.2497395E-009  0.4778728E+02  0.7816164E-02  0.1312668E+00
        -11   -1    0    0    0    0  0.00000000000E+00  0.00000000000E+00  0.45593999997E+02  0.45594000000E+02  0.51100000000E-03 0.  1.
         11   -1    0    0    0    0 -0.00000000000E+00 -0.00000000000E+00 -0.45593999997E+02  0.45594000000E+02  0.51100000000E-03 0. -1.
    9900012    2    1    2    0    0 -0.18135939348E+02 -0.36593325492E+02 -0.14684647500E+02  0.47787278361E+02  0.20000033358E+02 0.  0.
        -12    1    1    2    0    0  0.18135939348E+02  0.36593325492E+02  0.14684647500E+02  0.43400721639E+02  0.00000000000E+00 0.  1.
         11    1    3    3    0    0 -0.10050967172E+02 -0.18448679515E+02 -0.68583778192E+01  0.22100069310E+02  0.51100000000E-03 0. -1.
        -11    1    3    3    0    0  0.26290500137E-01 -0.55496703431E+01 -0.90930996134E+01  0.10652886602E+02  0.51100000000E-03 0.  1.
        -12    1    3    3    0    0 -0.81112626763E+01 -0.12594975634E+02  0.12668299324E+01  0.15034322449E+02  0.00000000000E+00 0.  1.
</event>
<event>
 7    1  0.2497395E-009  0.4778727E+02  0.7816164E-02  0.1312668E+00
        -11   -1    0    0    0    0  0.00000000000E+00  0.00000000000E+00  0.45593999997E+02  0.45594000000E+02  0.51100000000E-03 0. -1.
         11   -1    0    0    0    0 -0.00000000000E+00 -0.00000000000E+00 -0.45593999997E+02  0.45594000000E+02  0.51100000000E-03 0.  1.
    9900012    2    1    2    0    0  0.16097959130E+02  0.33125675062E+02  0.22960153880E+02  0.47787270713E+02  0.19999998488E+02 0.  0.
        -12    1    1    2    0    0 -0.16097959130E+02 -0.33125675062E+02 -0.22960153880E+02  0.43400729287E+02  0.00000000000E+00 0.  1.
         11    1    3    3    0    0  0.13668241414E+02  0.28173607730E+02  0.19130860532E+02  0.36695542247E+02  0.51100000000E-03 0. -1.
        -11    1    3    3    0    0 -0.12491728852E+01  0.53124374688E+01 -0.40330486342E+00  0.54722097759E+01  0.51100000000E-03 0.  1.
         12    1    3    3    0    0  0.36788906006E+01 -0.36037013597E+00  0.42325982114E+01  0.56195186898E+01  0.00000000000E+00 0. -1.
</event>
<event>
 7    1  0.2497395E-009  0.4778727E+02  0.7816164E-02  0.1312668E+00
        -11   -1    0    0    0    0  0.00000000000E+00  0.00000000000E+00  0.45593999997E+02  0.45594000000E+02  0.51100000000E-03 0.  1.
         11   -1    0    0    0    0 -0.00000000000E+00 -0.00000000000E+00 -0.45593999997E+02  0.45594000000E+02  0.51100000000E-03 0. -1.
    9900012    2    1    2    0    0 -0.30856847116E+01 -0.11173204887E+02 -0.41824177173E+02  0.47787265515E+02  0.19999974790E+02 0.  0.
        -12    1    1    2    0    0  0.30856847116E+01  0.11173204887E+02  0.41824177173E+02  0.43400734485E+02  0.00000000000E+00 0.  1.
         11    1    3    3    0    0  0.11122636492E+01 -0.38326849995E+01 -0.19038112194E+02  0.19451897617E+02  0.51100000000E-03 0. -1.
        -11    1    3    3    0    0  0.20808406559E+01  0.25652097414E+01 -0.77193705022E+00  0.33920621933E+01  0.51100000000E-03 0.  1.
        -12    1    3    3    0    0 -0.62787890166E+01 -0.99057296292E+01 -0.22014127929E+02  0.24943305705E+02  0.00000000000E+00 0.  1.
</event>
<event>
 7    1  0.2497395E-009  0.4778727E+02  0.7816164E-02  0.1312668E+00
        -11   -1    0    0    0    0  0.00000000000E+00  0.00000000000E+00  0.45593999997E+02  0.45594000000E+02  0.51100000000E-03 0. -1.
         11   -1    0    0    0    0 -0.00000000000E+00 -0.00000000000E+00 -0.45593999997E+02  0.45594000000E+02  0.51100000000E-03 0.  1.
    9900012    2    1    2    0    0  0.19651672774E+02  0.31029891873E+02  0.23121003674E+02  0.47787271396E+02  0.20000001605E+02 0.  0.
        -12    1    1    2    0    0 -0.19651672774E+02 -0.31029891873E+02 -0.23121003674E+02  0.43400728604E+02  0.00000000000E+00 0.  1.
         11    1    3    3    0    0  0.10175290437E+01  0.17045505366E+02  0.15006134478E+02  0.22732546949E+02  0.51100000000E-03 0. -1.
        -11    1    3    3    0    0 -0.59178025656E-01  0.85161779507E+00  0.19640189304E+00  0.87597310022E+00  0.51100000000E-03 0.  1.
         12    1    3    3    0    0  0.18693321756E+02  0.13132768712E+02  0.79184673026E+01  0.24178751347E+02  0.00000000000E+00 0. -1.
</event>
<event>
 7    1  0.2497395E-009  0.4778727E+02  0.7816164E-02  0.1312668E+00
        -11   -1    0    0    0    0  0.00000000000E+00  0.00000000000E+00  0.45593999997E+02  0.45594000000E+02  0.51100000000E-03 0.  1.
         11   -1    0    0    0    0 -0.00000000000E+00 -0.00000000000E+00 -0.45593999997E+02  0.45594000000E+02  0.51100000000E-03 0. -1.
    9900012    2    1    2    0    0 -0.10987731980E+02 -0.13484501391E+02 -0.39762561485E+02  0.47787270425E+02  0.19999997174E+02 0.  0.
        -12    1    1    2    0    0  0.10987731980E+02  0.13484501391E+02  0.39762561485E+02  0.43400729575E+02  0.00000000000E+00 0.  1.
         11    1    3    3    0    0 -0.90455002094E+01 -0.16520869464E+02 -0.39753172072E+02  0.43989486152E+02  0.51100000000E-03 0. -1.
        -11    1    3    3    0    0 -0.71176595398E+00  0.18648856263E+01  0.43227382826E+00  0.20423687464E+01  0.51100000000E-03 0.  1.
         12    1    3    3    0    0 -0.12304658165E+01  0.11714824471E+01 -0.44166324137E+00  0.17554155258E+01  0.00000000000E+00 0. -1.
</event>
<event>
 7    1  0.2497395E-009  0.4778728E+02  0.7816164E-02  0.1312668E+00
        -11   -1    0    0    0    0  0.00000000000E+00  0.00000000000E+00  0.45593999997E+02  0.45594000000E+02  0.51100000000E-03 0.  1.
         11   -1    0    0    0    0 -0.00000000000E+00 -0.00000000000E+00 -0.45593999997E+02  0.45594000000E+02  0.51100000000E-03 0. -1.
    9900012    2    1    2    0    0  0.30948451288E+00 -0.66563033670E+01 -0.42886132225E+02  0.47787280048E+02  0.20000041049E+02 0.  0.
        -12    1    1    2    0    0 -0.30948451288E+00  0.66563033670E+01  0.42886132225E+02  0.43400719952E+02  0.00000000000E+00 0.  1.
         11    1    3    3    0    0  0.15317122653E+01 -0.13823266813E+01 -0.23897975349E+02  0.23986875486E+02  0.51100000000E-03 0. -1.
        -11    1    3    3    0    0  0.12898488263E+01 -0.84978269959E+01 -0.68445260397E+01  0.10987461518E+02  0.51100000000E-03 0.  1.
        -12    1    3    3    0    0 -0.25120765787E+01  0.32238503102E+01 -0.12143630836E+02  0.12812943043E+02  0.00000000000E+00 0.  1.
</event>
<event>
 7    1  0.2497395E-009  0.4778723E+02  0.7816164E-02  0.1312668E+00
        -11   -1    0    0    0    0  0.00000000000E+00  0.00000000000E+00  0.45593999997E+02  0.45594000000E+02  0.51100000000E-03 0. -1.
         11   -1    0    0    0    0 -0.00000000000E+00 -0.00000000000E+00 -0.45593999997E+02  0.45594000000E+02  0.51100000000E-03 0.  1.
    9900012    2    1    2    0    0 -0.23450467833E+02 -0.35914764396E+02  0.66205905189E+01  0.47787228555E+02  0.19999806273E+02 0.  0.
        -12    1    1    2    0    0  0.23450467833E+02  0.35914764396E+02 -0.66205905189E+01  0.43400771445E+02  0.00000000000E+00 0.  1.
         11    1    3    3    0    0 -0.89101570406E+01 -0.39089335627E+01  0.78621401144E+01  0.12509352802E+02  0.51100000000E-03 0. -1.
        -11    1    3    3    0    0 -0.83689340238E+01 -0.17169383286E+02 -0.19063581543E+01  0.19195337475E+02  0.51100000000E-03 0.  1.
         12    1    3    3    0    0 -0.61713767685E+01 -0.14836447547E+02  0.66480855874E+00  0.16082538278E+02  0.00000000000E+00 0. -1.
</event>
<event>
 7    1  0.2497395E-009  0.4778727E+02  0.7816164E-02  0.1312668E+00
        -11   -1    0    0    0    0  0.00000000000E+00  0.00000000000E+00  0.45593999997E+02  0.45594000000E+02  0.51100000000E-03 0.  1.
         11   -1    0    0    0    0 -0.00000000000E+00 -0.00000000000E+00 -0.45593999997E+02  0.45594000000E+02  0.51100000000E-03 0. -1.
    9900012    2    1    2    0    0 -0.64197574292E+01  0.42242111360E+02 -0.76167170712E+01  0.47787266867E+02  0.19999980952E+02 0.  0.
        -12    1    1    2    0    0  0.64197574292E+01 -0.42242111360E+02  0.76167170712E+01  0.43400733133E+02  0.00000000000E+00 0.  1.
         11    1    3    3    0    0 -0.45962071414E+01  0.39514688343E+02 -0.14845441002E+01  0.39808787803E+02  0.51100000000E-03 0.  1.
        -11    1    3    3    0    0 -0.28118958789E+01  0.28623880420E+01 -0.54592414702E+01  0.67752004714E+01  0.51100000000E-03 0. -1.
        -12    1    3    3    0    0  0.98834559110E+00 -0.13496502508E+00 -0.67293150091E+00  0.12032785922E+01  0.00000000000E+00 0.  1.
</event>
<event>
 7    1  0.2497395E-009  0.4778727E+02  0.7816164E-02  0.1312668E+00
        -11   -1    0    0    0    0  0.00000000000E+00  0.00000000000E+00  0.45593999997E+02  0.45594000000E+02  0.51100000000E-03 0.  1.
         11   -1    0    0    0    0 -0.00000000000E+00 -0.00000000000E+00 -0.45593999997E+02  0.45594000000E+02  0.51100000000E-03 0. -1.
    9900012    2    1    2    0    0 -0.17280330841E+02  0.96446822042E+01 -0.38626330570E+02  0.47787272563E+02  0.20000006922E+02 0.  0.
        -12    1    1    2    0    0  0.17280330841E+02 -0.96446822042E+01  0.38626330570E+02  0.43400727437E+02  0.00000000000E+00 0.  1.
         11    1    3    3    0    0 -0.75732019912E+01  0.80480711566E+01 -0.32004957175E+02  0.33859151226E+02  0.51100000000E-03 0. -1.
        -11    1    3    3    0    0 -0.45450974603E+01 -0.28494448320E+01 -0.21510704543E+01  0.57796497416E+01  0.51100000000E-03 0.  1.
         12    1    3    3    0    0 -0.51620313891E+01  0.44460558796E+01 -0.44703029407E+01  0.81484715947E+01  0.00000000000E+00 0. -1.
</event>
<event>
 7    1  0.2497395E-009  0.4778728E+02  0.7816164E-02  0.1312668E+00
        -11   -1    0    0    0    0  0.00000000000E+00  0.00000000000E+00  0.45593999997E+02  0.45594000000E+02  0.51100000000E-03 0.  1.
         11   -1    0    0    0    0 -0.00000000000E+00 -0.00000000000E+00 -0.45593999997E+02  0.45594000000E+02  0.51100000000E-03 0. -1.
    9900012    2    1    2    0    0 -0.19267019220E+01 -0.14330294510E+02 -0.40921305152E+02  0.47787277237E+02  0.20000028234E+02 0.  0.
        -12    1    1    2    0    0  0.19267019220E+01  0.14330294510E+02  0.40921305152E+02  0.43400722763E+02  0.00000000000E+00 0.  1.
         11    1    3    3    0    0  0.51168243594E+01 -0.13190575425E+02 -0.23406086815E+02  0.27349919046E+02  0.51100000000E-03 0. -1.
        -11    1    3    3    0    0 -0.36843788464E+01 -0.30928236805E+00 -0.13978977522E+01  0.39527738936E+01  0.51100000000E-03 0.  1.
         12    1    3    3    0    0 -0.33591474349E+01 -0.83043671691E+00 -0.16117320585E+02  0.16484584298E+02  0.00000000000E+00 0. -1.
</event>
<event>
 7    1  0.2497395E-009  0.4778727E+02  0.7816164E-02  0.1312668E+00
        -11   -1    0    0    0    0  0.00000000000E+00  0.00000000000E+00  0.45593999997E+02  0.45594000000E+02  0.51100000000E-03 0.  1.
         11   -1    0    0    0    0 -0.00000000000E+00 -0.00000000000E+00 -0.45593999997E+02  0.45594000000E+02  0.51100000000E-03 0. -1.
    9900012    2    1    2    0    0 -0.14480586434E+02  0.40877520521E+02  0.17217408146E+01  0.47787268913E+02  0.19999990283E+02 0.  0.
        -12    1    1    2    0    0  0.14480586434E+02 -0.40877520521E+02 -0.17217408146E+01  0.43400731087E+02  0.00000000000E+00 0.  1.
         11    1    3    3    0    0 -0.12944498460E+02  0.17143816414E+02 -0.42381095566E+01  0.21895936940E+02  0.51100000000E-03 0. -1.
        -11    1    3    3    0    0  0.15072784907E+01  0.19527409946E+02  0.27248761124E+01  0.19774139115E+02  0.51100000000E-03 0.  1.
        -12    1    3    3    0    0 -0.30433664644E+01  0.42062941618E+01  0.32349742588E+01  0.61171928584E+01  0.00000000000E+00 0.  1.
</event>
<event>
 7    1  0.2497395E-009  0.4778727E+02  0.7816164E-02  0.1312668E+00
        -11   -1    0    0    0    0  0.00000000000E+00  0.00000000000E+00  0.45593999997E+02  0.45594000000E+02  0.51100000000E-03 0. -1.
         11   -1    0    0    0    0 -0.00000000000E+00 -0.00000000000E+00 -0.45593999997E+02  0.45594000000E+02  0.51100000000E-03 0.  1.
    9900012    2    1    2    0    0 -0.36490006611E+02  0.13723161354E+02  0.19072951480E+02  0.47787271686E+02  0.20000002925E+02 0.  0.
        -12    1    1    2    0    0  0.36490006611E+02 -0.13723161354E+02 -0.19072951480E+02  0.43400728314E+02  0.00000000000E+00 0.  1.
         11    1    3    3    0    0 -0.79991671432E+01 -0.24496298981E+01  0.75871269478E+01  0.11293885833E+02  0.51100000000E-03 0. -1.
        -11    1    3    3    0    0 -0.27244710769E+02  0.17091492942E+02  0.12645876554E+02  0.34558813492E+02  0.51100000000E-03 0.  1.
        -12    1    3    3    0    0 -0.12461286986E+01 -0.91870168935E+00 -0.11600520218E+01  0.19345723612E+01  0.00000000000E+00 0.  1.
</event>
<event>
 7    1  0.2497395E-009  0.4778728E+02  0.7816164E-02  0.1312668E+00
        -11   -1    0    0    0    0  0.00000000000E+00  0.00000000000E+00  0.45593999997E+02  0.45594000000E+02  0.51100000000E-03 0.  1.
         11   -1    0    0    0    0 -0.00000000000E+00 -0.00000000000E+00 -0.45593999997E+02  0.45594000000E+02  0.51100000000E-03 0. -1.
    9900012    2    1    2    0    0 -0.32837302064E+02  0.21065509644E+02 -0.19015203849E+02  0.47787284789E+02  0.20000062667E+02 0.  0.
        -12    1    1    2    0    0  0.32837302064E+02 -0.21065509644E+02  0.19015203849E+02  0.43400715211E+02  0.00000000000E+00 0.  1.
         11    1    3    3    0    0 -0.44241325073E+01 -0.29322632502E+01 -0.72398884627E+00  0.53567972074E+01  0.51100000000E-03 0. -1.
        -11    1    3    3    0    0 -0.21100831588E+00  0.20146251304E+01  0.42632818698E+00  0.20700229249E+01  0.51100000000E-03 0.  1.
         12    1    3    3    0    0 -0.28202161241E+02  0.21983147764E+02 -0.18717543190E+02  0.40360464657E+02  0.00000000000E+00 0. -1.
</event>
<event>
 7    1  0.2497395E-009  0.4778727E+02  0.7816164E-02  0.1312668E+00
        -11   -1    0    0    0    0  0.00000000000E+00  0.00000000000E+00  0.45593999997E+02  0.45594000000E+02  0.51100000000E-03 0.  1.
         11   -1    0    0    0    0 -0.00000000000E+00 -0.00000000000E+00 -0.45593999997E+02  0.45594000000E+02  0.51100000000E-03 0. -1.
    9900012    2    1    2    0    0  0.59972939873E+01  0.42656457340E+02 -0.52993157155E+01  0.47787266883E+02  0.19999981028E+02 0.  0.
        -12    1    1    2    0    0 -0.59972939873E+01 -0.42656457340E+02  0.52993157155E+01  0.43400733117E+02  0.00000000000E+00 0.  1.
         11    1    3    3    0    0  0.48972245331E+01  0.21340622902E+02 -0.99954246866E+01  0.24068932442E+02  0.51100000000E-03 0. -1.
        -11    1    3    3    0    0 -0.43939371727E+00  0.23270959760E+01  0.40073904947E+01  0.46548492305E+01  0.51100000000E-03 0.  1.
        -12    1    3    3    0    0  0.15394631715E+01  0.18988738462E+02  0.68871847638E+00  0.19063485211E+02  0.00000000000E+00 0.  1.
</event>
<event>
 7    1  0.2497395E-009  0.4778727E+02  0.7816164E-02  0.1312668E+00
        -11   -1    0    0    0    0  0.00000000000E+00  0.00000000000E+00  0.45593999997E+02  0.45594000000E+02  0.51100000000E-03 0.  1.
         11   -1    0    0    0    0 -0.00000000000E+00 -0.00000000000E+00 -0.45593999997E+02  0.45594000000E+02  0.51100000000E-03 0. -1.
    9900012    2    1    2    0    0  0.16925482387E+02 -0.33156221980E+02 -0.22311791889E+02  0.47787273424E+02  0.20000010849E+02 0.  0.
        -12    1    1    2    0    0 -0.16925482387E+02  0.33156221980E+02  0.22311791889E+02  0.43400726576E+02  0.00000000000E+00 0.  1.
         11    1    3    3    0    0  0.13492504967E+02 -0.15771136524E+02 -0.62582419388E+01  0.21678146369E+02  0.51100000000E-03 0.  1.
        -11    1    3    3    0    0 -0.32394580714E+01 -0.34835194779E+01 -0.61806346803E+01  0.77993103453E+01  0.51100000000E-03 0. -1.
        -12    1    3    3    0    0  0.66724354906E+01 -0.13901565979E+02 -0.98729152698E+01  0.18309816710E+02  0.00000000000E+00 0.  1.
</event>
<event>
 7    1  0.2497395E-009  0.4778727E+02  0.7816164E-02  0.1312668E+00
        -11   -1    0    0    0    0  0.00000000000E+00  0.00000000000E+00  0.45593999997E+02  0.45594000000E+02  0.51100000000E-03 0.  1.
         11   -1    0    0    0    0 -0.00000000000E+00 -0.00000000000E+00 -0.45593999997E+02  0.45594000000E+02  0.51100000000E-03 0. -1.
    9900012    2    1    2    0    0 -0.59091986553E+01  0.24275242104E+02 -0.35488272143E+02  0.47787268812E+02  0.19999989823E+02 0.  0.
        -12    1    1    2    0    0  0.59091986553E+01 -0.24275242104E+02  0.35488272143E+02  0.43400731188E+02  0.00000000000E+00 0.  1.
         11    1    3    3    0    0 -0.20502137512E+01  0.46243032601E+01 -0.70923727369E+01  0.87114469732E+01  0.51100000000E-03 0.  1.
        -11    1    3    3    0    0 -0.41295266409E+01  0.14750220698E+02 -0.30187196332E+02  0.33850979654E+02  0.51100000000E-03 0. -1.
        -12    1    3    3    0    0  0.27054173682E+00  0.49007181460E+01  0.17912969263E+01  0.52248421848E+01  0.00000000000E+00 0.  1.
</event>
<event>
 7    1  0.2497395E-009  0.4778733E+02  0.7816164E-02  0.1312667E+00
        -11   -1    0    0    0    0  0.00000000000E+00  0.00000000000E+00  0.45593999997E+02  0.45594000000E+02  0.51100000000E-03 0.  1.
         11   -1    0    0    0    0 -0.00000000000E+00 -0.00000000000E+00 -0.45593999997E+02  0.45594000000E+02  0.51100000000E-03 0. -1.
    9900012    2    1    2    0    0  0.19961446045E+02 -0.37331921512E+02 -0.95648563029E+01  0.47787329866E+02  0.20000268191E+02 0.  0.
        -12    1    1    2    0    0 -0.19961446045E+02  0.37331921512E+02  0.95648563029E+01  0.43400670134E+02  0.00000000000E+00 0.  1.
         11    1    3    3    0    0  0.10188383800E+02 -0.18419221092E+02 -0.14405556234E+02  0.25506683845E+02  0.51100000000E-03 0. -1.
        -11    1    3    3    0    0  0.97236175899E+01 -0.15459898522E+02  0.45067522154E+01  0.18811379991E+02  0.51100000000E-03 0.  1.
        -12    1    3    3    0    0  0.49444654527E-01 -0.34528018969E+01  0.33394771559E+00  0.34692660304E+01  0.00000000000E+00 0.  1.
</event>
<event>
 7    1  0.2497395E-009  0.4778727E+02  0.7816164E-02  0.1312668E+00
        -11   -1    0    0    0    0  0.00000000000E+00  0.00000000000E+00  0.45593999997E+02  0.45594000000E+02  0.51100000000E-03 0. -1.
         11   -1    0    0    0    0 -0.00000000000E+00 -0.00000000000E+00 -0.45593999997E+02  0.45594000000E+02  0.51100000000E-03 0.  1.
    9900012    2    1    2    0    0  0.23395081644E+02  0.28929979874E+02  0.22346139695E+02  0.47787267980E+02  0.19999986027E+02 0.  0.
        -12    1    1    2    0    0 -0.23395081644E+02 -0.28929979874E+02 -0.22346139695E+02  0.43400732020E+02  0.00000000000E+00 0.  1.
         11    1    3    3    0    0  0.16244792069E+02  0.21519783100E+02  0.82405515089E+01  0.28193989137E+02  0.51100000000E-03 0. -1.
        -11    1    3    3    0    0  0.32893987762E+01  0.85711519545E+01  0.11793767435E+02  0.14945826866E+02  0.51100000000E-03 0.  1.
         12    1    3    3    0    0  0.38608907986E+01 -0.11609551805E+01  0.23118207517E+01  0.46474519770E+01  0.00000000000E+00 0. -1.
</event>
<event>
 7    1  0.2497395E-009  0.4778726E+02  0.7816164E-02  0.1312668E+00
        -11   -1    0    0    0    0  0.00000000000E+00  0.00000000000E+00  0.45593999997E+02  0.45594000000E+02  0.51100000000E-03 0.  1.
         11   -1    0    0    0    0 -0.00000000000E+00 -0.00000000000E+00 -0.45593999997E+02  0.45594000000E+02  0.51100000000E-03 0. -1.
    9900012    2    1    2    0    0 -0.25881323721E+01  0.42840694614E+01 -0.43111160113E+02  0.47787264907E+02  0.19999972016E+02 0.  0.
        -12    1    1    2    0    0  0.25881323721E+01 -0.42840694614E+01  0.43111160113E+02  0.43400735093E+02  0.00000000000E+00 0.  1.
         11    1    3    3    0    0 -0.15206986275E+01 -0.13320328201E+01  0.91996932388E+00  0.22210762183E+01  0.51100000000E-03 0. -1.
        -11    1    3    3    0    0 -0.15947428501E+01 -0.22433450121E+01 -0.46380390290E+01  0.53932557789E+01  0.51100000000E-03 0.  1.
         12    1    3    3    0    0  0.52730910548E+00  0.78594472935E+01 -0.39393090408E+02  0.40172932910E+02  0.00000000000E+00 0. -1.
</event>
<event>
 7    1  0.2497395E-009  0.4778727E+02  0.7816164E-02  0.1312668E+00
        -11   -1    0    0    0    0  0.00000000000E+00  0.00000000000E+00  0.45593999997E+02  0.45594000000E+02  0.51100000000E-03 0. -1.
         11   -1    0    0    0    0 -0.00000000000E+00 -0.00000000000E+00 -0.45593999997E+02  0.45594000000E+02  0.51100000000E-03 0.  1.
    9900012    2    1    2    0    0  0.16646692956E+02 -0.25389115717E+02  0.31014572150E+02  0.47787271102E+02  0.20000000261E+02 0.  0.
        -12    1    1    2    0    0 -0.16646692956E+02  0.25389115717E+02 -0.31014572150E+02  0.43400728898E+02  0.00000000000E+00 0.  1.
         11    1    3    3    0    0  0.92856367379E+00 -0.15463277120E+02  0.19835086093E+02  0.25167554716E+02  0.51100000000E-03 0. -1.
        -11    1    3    3    0    0  0.20239725894E+00  0.76708922422E+00  0.70142225354E+00  0.10589541856E+01  0.51100000000E-03 0.  1.
         12    1    3    3    0    0  0.15515732023E+02 -0.10692927820E+02  0.10478063804E+02  0.21560762200E+02  0.00000000000E+00 0. -1.
</event>
<event>
 7    1  0.2497395E-009  0.4778727E+02  0.7816164E-02  0.1312668E+00
        -11   -1    0    0    0    0  0.00000000000E+00  0.00000000000E+00  0.45593999997E+02  0.45594000000E+02  0.51100000000E-03 0.  1.
         11   -1    0    0    0    0 -0.00000000000E+00 -0.00000000000E+00 -0.45593999997E+02  0.45594000000E+02  0.51100000000E-03 0. -1.
    9900012    2    1    2    0    0 -0.30502800358E+02 -0.75322798112E+01 -0.29941060478E+02  0.47787272225E+02  0.20000005384E+02 0.  0.
        -12    1    1    2    0    0  0.30502800358E+02  0.75322798112E+01  0.29941060478E+02  0.43400727775E+02  0.00000000000E+00 0.  1.
         11    1    3    3    0    0 -0.49284538042E+01 -0.27115655694E+00 -0.16559862856E+01  0.52062917338E+01  0.51100000000E-03 0. -1.
        -11    1    3    3    0    0 -0.12051844605E+02 -0.37196333811E+01 -0.19454849595E+01  0.12761956858E+02  0.51100000000E-03 0.  1.
        -12    1    3    3    0    0 -0.13522501950E+02 -0.35414898732E+01 -0.26339589232E+02  0.29819023633E+02  0.00000000000E+00 0.  1.
</event>
<event>
 7    1  0.2497395E-009  0.4778727E+02  0.7816164E-02  0.1312668E+00
        -11   -1    0    0    0    0  0.00000000000E+00  0.00000000000E+00  0.45593999997E+02  0.45594000000E+02  0.51100000000E-03 0. -1.
         11   -1    0    0    0    0 -0.00000000000E+00 -0.00000000000E+00 -0.45593999997E+02  0.45594000000E+02  0.51100000000E-03 0.  1.
    9900012    2    1    2    0    0  0.85970071850E+01 -0.38168594838E+02  0.18784920238E+02  0.47787269674E+02  0.19999993753E+02 0.  0.
        -12    1    1    2    0    0 -0.85970071850E+01  0.38168594838E+02 -0.18784920238E+02  0.43400730326E+02  0.00000000000E+00 0.  1.
         11    1    3    3    0    0  0.67727967914E+01 -0.17872913944E+02 -0.15865938519E+00  0.19113790893E+02  0.51100000000E-03 0.  1.
        -11    1    3    3    0    0 -0.24073998548E+01 -0.10150151101E+02  0.78446176803E+01  0.13052171017E+02  0.51100000000E-03 0. -1.
        -12    1    3    3    0    0  0.42316102484E+01 -0.10145529793E+02  0.11098961943E+02  0.15621307765E+02  0.00000000000E+00 0.  1.
</event>
<event>
 7    1  0.2497395E-009  0.4778727E+02  0.7816164E-02  0.1312668E+00
        -11   -1    0    0    0    0  0.00000000000E+00  0.00000000000E+00  0.45593999997E+02  0.45594000000E+02  0.51100000000E-03 0. -1.
         11   -1    0    0    0    0 -0.00000000000E+00 -0.00000000000E+00 -0.45593999997E+02  0.45594000000E+02  0.51100000000E-03 0.  1.
    9900012    2    1    2    0    0 -0.64046260163E+01  0.14233322977E+02  0.40497116936E+02  0.47787271924E+02  0.20000004009E+02 0.  0.
        -12    1    1    2    0    0  0.64046260163E+01 -0.14233322977E+02 -0.40497116936E+02  0.43400728076E+02  0.00000000000E+00 0.  1.
         11    1    3    3    0    0  0.39134393175E+01 -0.77365112103E+00  0.55045936994E+01  0.67980949836E+01  0.51100000000E-03 0. -1.
        -11    1    3    3    0    0 -0.56785483390E+00  0.26500742703E+01  0.10166206705E+00  0.27121371992E+01  0.51100000000E-03 0.  1.
         12    1    3    3    0    0 -0.97502104999E+01  0.12356899828E+02  0.34890861170E+02  0.38277039741E+02  0.00000000000E+00 0. -1.
</event>
<event>
 7    1  0.2497395E-009  0.4778727E+02  0.7816164E-02  0.1312668E+00
        -11   -1    0    0    0    0  0.00000000000E+00  0.00000000000E+00  0.45593999997E+02  0.45594000000E+02  0.51100000000E-03 0. -1.
         11   -1    0    0    0    0 -0.00000000000E+00 -0.00000000000E+00 -0.45593999997E+02  0.45594000000E+02  0.51100000000E-03 0.  1.
    9900012    2    1    2    0    0  0.34445027289E+02  0.14939872726E+02  0.21770702001E+02  0.47787272269E+02  0.20000005581E+02 0.  0.
        -12    1    1    2    0    0 -0.34445027289E+02 -0.14939872726E+02 -0.21770702001E+02  0.43400727731E+02  0.00000000000E+00 0.  1.
         11    1    3    3    0    0  0.85874230629E+01  0.71070813699E+01  0.15885048281E+02  0.19405906308E+02  0.51100000000E-03 0.  1.
        -11    1    3    3    0    0  0.16740005130E+02  0.20942678785E+01  0.48758537847E+01  0.17560970363E+02  0.51100000000E-03 0. -1.
         12    1    3    3    0    0  0.91175990958E+01  0.57385234780E+01  0.10097999345E+01  0.10820395597E+02  0.00000000000E+00 0. -1.
</event>
<event>
 7    1  0.2497395E-009  0.4778727E+02  0.7816164E-02  0.1312668E+00
        -11   -1    0    0    0    0  0.00000000000E+00  0.00000000000E+00  0.45593999997E+02  0.45594000000E+02  0.51100000000E-03 0.  1.
         11   -1    0    0    0    0 -0.00000000000E+00 -0.00000000000E+00 -0.45593999997E+02  0.45594000000E+02  0.51100000000E-03 0. -1.
    9900012    2    1    2    0    0  0.37503903887E+02  0.18736193699E+02 -0.11226552098E+02  0.47787271514E+02  0.20000002142E+02 0.  0.
        -12    1    1    2    0    0 -0.37503903887E+02 -0.18736193699E+02  0.11226552098E+02  0.43400728486E+02  0.00000000000E+00 0.  1.
         11    1    3    3    0    0  0.17832976067E+02  0.12035537698E+02 -0.71431044626E+01  0.22669211383E+02  0.51100000000E-03 0. -1.
        -11    1    3    3    0    0  0.17080601561E+02  0.10523656879E+02 -0.24109530255E+01  0.20206607794E+02  0.51100000000E-03 0.  1.
        -12    1    3    3    0    0  0.25903262588E+01 -0.38230008782E+01 -0.16724946102E+01  0.49114523374E+01  0.00000000000E+00 0.  1.
</event>
<event>
 7    1  0.2497395E-009  0.4778728E+02  0.7816164E-02  0.1312668E+00
        -11   -1    0    0    0    0  0.00000000000E+00  0.00000000000E+00  0.45593999997E+02  0.45594000000E+02  0.51100000000E-03 0.  1.
         11   -1    0    0    0    0 -0.00000000000E+00 -0.00000000000E+00 -0.45593999997E+02  0.45594000000E+02  0.51100000000E-03 0. -1.
    9900012    2    1    2    0    0 -0.29972222004E+01  0.37973551780E+02 -0.20800212793E+02  0.47787276182E+02  0.20000023426E+02 0.  0.
        -12    1    1    2    0    0  0.29972222004E+01 -0.37973551780E+02  0.20800212793E+02  0.43400723818E+02  0.00000000000E+00 0.  1.
         11    1    3    3    0    0  0.44508031406E+01  0.20355736821E+01 -0.86268849927E-01  0.48949618372E+01  0.51100000000E-03 0. -1.
        -11    1    3    3    0    0 -0.68777573396E+01  0.16094394102E+02 -0.11945439528E+02  0.21190247599E+02  0.51100000000E-03 0.  1.
         12    1    3    3    0    0 -0.57026800145E+00  0.19843583995E+02 -0.87685044148E+01  0.21702066746E+02  0.00000000000E+00 0. -1.
</event>
<event>
 7    1  0.2497395E-009  0.4778727E+02  0.7816164E-02  0.1312668E+00
        -11   -1    0    0    0    0  0.00000000000E+00  0.00000000000E+00  0.45593999997E+02  0.45594000000E+02  0.51100000000E-03 0.  1.
         11   -1    0    0    0    0 -0.00000000000E+00 -0.00000000000E+00 -0.45593999997E+02  0.45594000000E+02  0.51100000000E-03 0. -1.
    9900012    2    1    2    0    0 -0.26765739968E+02 -0.33438171382E+02 -0.70076425746E+01  0.47787271943E+02  0.20000004099E+02 0.  0.
        -12    1    1    2    0    0  0.26765739968E+02  0.33438171382E+02  0.70076425746E+01  0.43400728057E+02  0.00000000000E+00 0.  1.
         11    1    3    3    0    0 -0.14640201705E+02 -0.25024580041E+02 -0.73955640892E+01  0.29920887030E+02  0.51100000000E-03 0. -1.
        -11    1    3    3    0    0 -0.12188704627E+02 -0.37856143566E+01  0.20937313059E+01  0.12933642472E+02  0.51100000000E-03 0.  1.
         12    1    3    3    0    0  0.63166363724E-01 -0.46279769841E+01 -0.17058097913E+01  0.49327424420E+01  0.00000000000E+00 0. -1.
</event>
<event>
 7    1  0.2497395E-009  0.4778726E+02  0.7816164E-02  0.1312668E+00
        -11   -1    0    0    0    0  0.00000000000E+00  0.00000000000E+00  0.45593999997E+02  0.45594000000E+02  0.51100000000E-03 0.  1.
         11   -1    0    0    0    0 -0.00000000000E+00 -0.00000000000E+00 -0.45593999997E+02  0.45594000000E+02  0.51100000000E-03 0. -1.
    9900012    2    1    2    0    0 -0.19509406085E+02 -0.33579629965E+01 -0.38622936155E+02  0.47787262235E+02  0.19999959835E+02 0.  0.
        -12    1    1    2    0    0  0.19509406085E+02  0.33579629965E+01  0.38622936155E+02  0.43400737765E+02  0.00000000000E+00 0.  1.
         11    1    3    3    0    0 -0.11481377566E+02 -0.54538577136E+01 -0.98435661922E+01  0.16076765546E+02  0.51100000000E-03 0. -1.
        -11    1    3    3    0    0 -0.35460520925E+01  0.56027649163E+01 -0.93335010802E+01  0.11449004447E+02  0.51100000000E-03 0.  1.
        -12    1    3    3    0    0 -0.44819764266E+01 -0.35068701991E+01 -0.19445868883E+02  0.20261492243E+02  0.00000000000E+00 0.  1.
</event>
<event>
 7    1  0.2497395E-009  0.4778727E+02  0.7816164E-02  0.1312668E+00
        -11   -1    0    0    0    0  0.00000000000E+00  0.00000000000E+00  0.45593999997E+02  0.45594000000E+02  0.51100000000E-03 0.  1.
         11   -1    0    0    0    0 -0.00000000000E+00 -0.00000000000E+00 -0.45593999997E+02  0.45594000000E+02  0.51100000000E-03 0. -1.
    9900012    2    1    2    0    0 -0.35889076441E+02 -0.70015238608E+01 -0.23378976451E+02  0.47787266319E+02  0.19999978457E+02 0.  0.
        -12    1    1    2    0    0  0.35889076441E+02  0.70015238608E+01  0.23378976451E+02  0.43400733681E+02  0.00000000000E+00 0.  1.
         11    1    3    3    0    0 -0.11813423871E+02  0.10611915078E+01 -0.30069067584E+01  0.12236200370E+02  0.51100000000E-03 0. -1.
        -11    1    3    3    0    0 -0.11096936733E+02 -0.61136285756E+01 -0.18309715603E+02  0.22265761720E+02  0.51100000000E-03 0.  1.
        -12    1    3    3    0    0 -0.12978715837E+02 -0.19490867930E+01 -0.20623540888E+01  0.13285304230E+02  0.00000000000E+00 0.  1.
</event>
<event>
 7    1  0.2497395E-009  0.4778727E+02  0.7816164E-02  0.1312668E+00
        -11   -1    0    0    0    0  0.00000000000E+00  0.00000000000E+00  0.45593999997E+02  0.45594000000E+02  0.51100000000E-03 0.  1.
         11   -1    0    0    0    0 -0.00000000000E+00 -0.00000000000E+00 -0.45593999997E+02  0.45594000000E+02  0.51100000000E-03 0. -1.
    9900012    2    1    2    0    0 -0.26410208527E+02 -0.34324282604E+02 -0.28227780890E+01  0.47787267669E+02  0.19999984611E+02 0.  0.
        -12    1    1    2    0    0  0.26410208527E+02  0.34324282604E+02  0.28227780890E+01  0.43400732331E+02  0.00000000000E+00 0.  1.
         11    1    3    3    0    0 -0.94821427079E+01 -0.17575361860E+02 -0.40111653209E+01  0.20368942592E+02  0.51100000000E-03 0. -1.
        -11    1    3    3    0    0 -0.78584195702E+01 -0.12994645356E+02  0.61929099482E+01  0.16400234753E+02  0.51100000000E-03 0.  1.
        -12    1    3    3    0    0 -0.90696462485E+01 -0.37542753882E+01 -0.50045227163E+01  0.11018090324E+02  0.00000000000E+00 0.  1.
</event>
<event>
 7    1  0.2497395E-009  0.4778727E+02  0.7816164E-02  0.1312668E+00
        -11   -1    0    0    0    0  0.00000000000E+00  0.00000000000E+00  0.45593999997E+02  0.45594000000E+02  0.51100000000E-03 0.  1.
         11   -1    0    0    0    0 -0.00000000000E+00 -0.00000000000E+00 -0.45593999997E+02  0.45594000000E+02  0.51100000000E-03 0. -1.
    9900012    2    1    2    0    0  0.17102402325E+02  0.58146070618E+01 -0.39462912636E+02  0.47787270809E+02  0.19999998927E+02 0.  0.
        -12    1    1    2    0    0 -0.17102402325E+02 -0.58146070618E+01  0.39462912636E+02  0.43400729191E+02  0.00000000000E+00 0.  1.
         11    1    3    3    0    0  0.29343182105E+01  0.84042042149E+01 -0.13063699757E+02  0.15808261241E+02  0.51100000000E-03 0. -1.
        -11    1    3    3    0    0  0.14919866849E+02  0.94198931445E-01 -0.24195550095E+02  0.28425973068E+02  0.51100000000E-03 0.  1.
        -12    1    3    3    0    0 -0.75178273450E+00 -0.26837960845E+01 -0.22036627841E+01  0.35530364999E+01  0.00000000000E+00 0.  1.
</event>
<event>
 7    1  0.2497395E-009  0.4778730E+02  0.7816164E-02  0.1312668E+00
        -11   -1    0    0    0    0  0.00000000000E+00  0.00000000000E+00  0.45593999997E+02  0.45594000000E+02  0.51100000000E-03 0. -1.
         11   -1    0    0    0    0 -0.00000000000E+00 -0.00000000000E+00 -0.45593999997E+02  0.45594000000E+02  0.51100000000E-03 0.  1.
    9900012    2    1    2    0    0  0.32470327913E+02  0.28516571915E+02  0.40129695972E+01  0.47787297315E+02  0.20000119778E+02 0.  0.
        -12    1    1    2    0    0 -0.32470327913E+02 -0.28516571915E+02 -0.40129695972E+01  0.43400702685E+02  0.00000000000E+00 0.  1.
         11    1    3    3    0    0  0.76116107169E+01 -0.99407846049E-01 -0.30355748408E+01  0.81951945982E+01  0.51100000000E-03 0.  1.
        -11    1    3    3    0    0  0.13099066027E+02  0.17350279882E+02  0.82737079290E+01  0.23260954106E+02  0.51100000000E-03 0. -1.
        -12    1    3    3    0    0  0.11759651169E+02  0.11265699879E+02 -0.12251634910E+01  0.16331148611E+02  0.00000000000E+00 0.  1.
</event>
<event>
 7    1  0.2497395E-009  0.4778727E+02  0.7816164E-02  0.1312668E+00
        -11   -1    0    0    0    0  0.00000000000E+00  0.00000000000E+00  0.45593999997E+02  0.45594000000E+02  0.51100000000E-03 0. -1.
         11   -1    0    0    0    0 -0.00000000000E+00 -0.00000000000E+00 -0.45593999997E+02  0.45594000000E+02  0.51100000000E-03 0.  1.
    9900012    2    1    2    0    0  0.35844808320E+02  0.18978621844E+02  0.15446203700E+02  0.47787267526E+02  0.19999983956E+02 0.  0.
        -12    1    1    2    0    0 -0.35844808320E+02 -0.18978621844E+02 -0.15446203700E+02  0.43400732474E+02  0.00000000000E+00 0.  1.
         11    1    3    3    0    0  0.49892340218E+01  0.57217689892E+01  0.16096269193E+01  0.77602832146E+01  0.51100000000E-03 0. -1.
        -11    1    3    3    0    0  0.13487634102E+02  0.13378708860E+01 -0.19636836394E+01  0.13695335916E+02  0.51100000000E-03 0.  1.
        -12    1    3    3    0    0  0.17367940197E+02  0.11918981968E+02  0.15800260420E+02  0.26331648395E+02  0.00000000000E+00 0.  1.
</event>
<event>
 7    1  0.2497395E-009  0.4778727E+02  0.7816164E-02  0.1312668E+00
        -11   -1    0    0    0    0  0.00000000000E+00  0.00000000000E+00  0.45593999997E+02  0.45594000000E+02  0.51100000000E-03 0.  1.
         11   -1    0    0    0    0 -0.00000000000E+00 -0.00000000000E+00 -0.45593999997E+02  0.45594000000E+02  0.51100000000E-03 0. -1.
    9900012    2    1    2    0    0  0.29694846747E+02  0.14196480612E+02 -0.28289561154E+02  0.47787271258E+02  0.20000000974E+02 0.  0.
        -12    1    1    2    0    0 -0.29694846747E+02 -0.14196480612E+02  0.28289561154E+02  0.43400728742E+02  0.00000000000E+00 0.  1.
         11    1    3    3    0    0  0.23469673190E+02  0.16388224990E+02 -0.27237920906E+02  0.39513337159E+02  0.51100000000E-03 0. -1.
        -11    1    3    3    0    0 -0.54086354908E+00 -0.83479917090E+00  0.62193978729E+00  0.11731293171E+01  0.51100000000E-03 0.  1.
         12    1    3    3    0    0  0.67660371058E+01 -0.13569452062E+01 -0.16735800350E+01  0.71008047814E+01  0.00000000000E+00 0. -1.
</event>
<event>
 7    1  0.2497395E-009  0.4778727E+02  0.7816164E-02  0.1312668E+00
        -11   -1    0    0    0    0  0.00000000000E+00  0.00000000000E+00  0.45593999997E+02  0.45594000000E+02  0.51100000000E-03 0.  1.
         11   -1    0    0    0    0 -0.00000000000E+00 -0.00000000000E+00 -0.45593999997E+02  0.45594000000E+02  0.51100000000E-03 0. -1.
    9900012    2    1    2    0    0  0.16507340414E+02  0.22538716639E+01 -0.40075569373E+02  0.47787268606E+02  0.19999988881E+02 0.  0.
        -12    1    1    2    0    0 -0.16507340414E+02 -0.22538716639E+01  0.40075569373E+02  0.43400731394E+02  0.00000000000E+00 0.  1.
         11    1    3    3    0    0  0.47626784915E+01 -0.61607568695E+01 -0.10136088375E+02  0.12781952880E+02  0.51100000000E-03 0. -1.
        -11    1    3    3    0    0  0.12573734250E+02  0.93766055437E+01 -0.29864825104E+02  0.33733178078E+02  0.51100000000E-03 0.  1.
        -12    1    3    3    0    0 -0.82907232778E+00 -0.96197701022E+00 -0.74655894546E-01  0.12721376480E+01  0.00000000000E+00 0.  1.
</event>
<event>
 7    1  0.2497395E-009  0.4778727E+02  0.7816164E-02  0.1312668E+00
        -11   -1    0    0    0    0  0.00000000000E+00  0.00000000000E+00  0.45593999997E+02  0.45594000000E+02  0.51100000000E-03 0.  1.
         11   -1    0    0    0    0 -0.00000000000E+00 -0.00000000000E+00 -0.45593999997E+02  0.45594000000E+02  0.51100000000E-03 0. -1.
    9900012    2    1    2    0    0  0.28894291129E+02  0.27828237972E+02 -0.16562976798E+02  0.47787273175E+02  0.20000009715E+02 0.  0.
        -12    1    1    2    0    0 -0.28894291129E+02 -0.27828237972E+02  0.16562976798E+02  0.43400726825E+02  0.00000000000E+00 0.  1.
         11    1    3    3    0    0  0.18118427130E+02  0.20188350369E+02 -0.95580118156E+01  0.28761127975E+02  0.51100000000E-03 0. -1.
        -11    1    3    3    0    0  0.11171455972E+01 -0.18222454256E+00 -0.64885852746E+01  0.65865741624E+01  0.51100000000E-03 0.  1.
        -12    1    3    3    0    0  0.96587184022E+01  0.78221121463E+01 -0.51637970752E+00  0.12439571038E+02  0.00000000000E+00 0.  1.
</event>
<event>
 7    1  0.2497395E-009  0.4778727E+02  0.7816164E-02  0.1312668E+00
        -11   -1    0    0    0    0  0.00000000000E+00  0.00000000000E+00  0.45593999997E+02  0.45594000000E+02  0.51100000000E-03 0. -1.
         11   -1    0    0    0    0 -0.00000000000E+00 -0.00000000000E+00 -0.45593999997E+02  0.45594000000E+02  0.51100000000E-03 0.  1.
    9900012    2    1    2    0    0  0.36326377619E+02 -0.42540118184E+01  0.23364950359E+02  0.47787271518E+02  0.20000002160E+02 0.  0.
        -12    1    1    2    0    0 -0.36326377619E+02  0.42540118184E+01 -0.23364950359E+02  0.43400728482E+02  0.00000000000E+00 0.  1.
         11    1    3    3    0    0 -0.21000834461E+01 -0.12834322655E+01  0.22097240591E+01  0.33076320139E+01  0.51100000000E-03 0. -1.
        -11    1    3    3    0    0  0.79753141743E+01  0.20974294176E+01  0.48762160920E+01  0.95803094928E+01  0.51100000000E-03 0.  1.
         12    1    3    3    0    0  0.30451146891E+02 -0.50680089704E+01  0.16279010208E+02  0.34899330011E+02  0.00000000000E+00 0. -1.
</event>
<event>
 7    1  0.2497395E-009  0.4778727E+02  0.7816164E-02  0.1312668E+00
        -11   -1    0    0    0    0  0.00000000000E+00  0.00000000000E+00  0.45593999997E+02  0.45594000000E+02  0.51100000000E-03 0.  1.
         11   -1    0    0    0    0 -0.00000000000E+00 -0.00000000000E+00 -0.45593999997E+02  0.45594000000E+02  0.51100000000E-03 0. -1.
    9900012    2    1    2    0    0 -0.26452498887E+02 -0.27414367597E+02 -0.20792818419E+02  0.47787267910E+02  0.19999985709E+02 0.  0.
        -12    1    1    2    0    0  0.26452498887E+02  0.27414367597E+02  0.20792818419E+02  0.43400732090E+02  0.00000000000E+00 0.  1.
         11    1    3    3    0    0 -0.32163496756E+01 -0.11371634344E+01 -0.87988716954E+00  0.35231019861E+01  0.51100000000E-03 0. -1.
        -11    1    3    3    0    0 -0.79323805605E+00 -0.44187714278E+01 -0.10708505620E+02  0.11611496907E+02  0.51100000000E-03 0.  1.
        -12    1    3    3    0    0 -0.22442911155E+02 -0.21858432735E+02 -0.92044256297E+01  0.32652669017E+02  0.00000000000E+00 0.  1.
</event>
<event>
 7    1  0.2497395E-009  0.4778726E+02  0.7816164E-02  0.1312668E+00
        -11   -1    0    0    0    0  0.00000000000E+00  0.00000000000E+00  0.45593999997E+02  0.45594000000E+02  0.51100000000E-03 0.  1.
         11   -1    0    0    0    0 -0.00000000000E+00 -0.00000000000E+00 -0.45593999997E+02  0.45594000000E+02  0.51100000000E-03 0. -1.
    9900012    2    1    2    0    0 -0.34190319789E+02 -0.42774060866E+01 -0.26388447059E+02  0.47787259128E+02  0.19999945666E+02 0.  0.
        -12    1    1    2    0    0  0.34190319789E+02  0.42774060866E+01  0.26388447059E+02  0.43400740872E+02  0.00000000000E+00 0.  1.
         11    1    3    3    0    0 -0.32502089673E+02 -0.57778720052E+01 -0.25852864824E+02  0.41930183137E+02  0.51100000000E-03 0. -1.
        -11    1    3    3    0    0 -0.21147255912E+01  0.74040247055E+00  0.21062761766E+01  0.30751682454E+01  0.51100000000E-03 0.  1.
         12    1    3    3    0    0  0.42649547543E+00  0.76006344809E+00 -0.26418584120E+01  0.27819077456E+01  0.00000000000E+00 0. -1.
</event>
<event>
 7    1  0.2497395E-009  0.4778726E+02  0.7816164E-02  0.1312668E+00
        -11   -1    0    0    0    0  0.00000000000E+00  0.00000000000E+00  0.45593999997E+02  0.45594000000E+02  0.51100000000E-03 0. -1.
         11   -1    0    0    0    0 -0.00000000000E+00 -0.00000000000E+00 -0.45593999997E+02  0.45594000000E+02  0.51100000000E-03 0.  1.
    9900012    2    1    2    0    0 -0.28735896197E+02  0.32378408336E+02  0.30839552800E+01  0.47787264559E+02  0.19999970431E+02 0.  0.
        -12    1    1    2    0    0  0.28735896197E+02 -0.32378408336E+02 -0.30839552800E+01  0.43400735441E+02  0.00000000000E+00 0.  1.
         11    1    3    3    0    0 -0.13115129277E+02  0.11704996374E+02 -0.10771089194E+01  0.17611749486E+02  0.51100000000E-03 0. -1.
        -11    1    3    3    0    0  0.21277125844E+01  0.91745456848E+00 -0.18275598619E+01  0.29510776060E+01  0.51100000000E-03 0.  1.
        -12    1    3    3    0    0 -0.17748479505E+02  0.19755957393E+02  0.59886240613E+01  0.27224437467E+02  0.00000000000E+00 0.  1.
</event>
<event>
 7    1  0.2497395E-009  0.4778728E+02  0.7816164E-02  0.1312668E+00
        -11   -1    0    0    0    0  0.00000000000E+00  0.00000000000E+00  0.45593999997E+02  0.45594000000E+02  0.51100000000E-03 0.  1.
         11   -1    0    0    0    0 -0.00000000000E+00 -0.00000000000E+00 -0.45593999997E+02  0.45594000000E+02  0.51100000000E-03 0. -1.
    9900012    2    1    2    0    0  0.14424639999E+02  0.25445273966E+02 -0.32063850366E+02  0.47787277580E+02  0.20000029797E+02 0.  0.
        -12    1    1    2    0    0 -0.14424639999E+02 -0.25445273966E+02  0.32063850366E+02  0.43400722420E+02  0.00000000000E+00 0.  1.
         11    1    3    3    0    0 -0.40559101293E+00  0.24639334335E+01 -0.64595970814E+01  0.69254506532E+01  0.51100000000E-03 0. -1.
        -11    1    3    3    0    0  0.11304970269E+02  0.36234789654E+01 -0.12394561389E+02  0.17162666018E+02  0.51100000000E-03 0.  1.
        -12    1    3    3    0    0  0.35252607438E+01  0.19357861567E+02 -0.13209691896E+02  0.23699160908E+02  0.00000000000E+00 0.  1.
</event>
<event>
 7    1  0.2497395E-009  0.4778727E+02  0.7816164E-02  0.1312668E+00
        -11   -1    0    0    0    0  0.00000000000E+00  0.00000000000E+00  0.45593999997E+02  0.45594000000E+02  0.51100000000E-03 0.  1.
         11   -1    0    0    0    0 -0.00000000000E+00 -0.00000000000E+00 -0.45593999997E+02  0.45594000000E+02  0.51100000000E-03 0. -1.
    9900012    2    1    2    0    0 -0.69570391161E+01  0.61131089746E+01 -0.42401099510E+02  0.47787265740E+02  0.19999975817E+02 0.  0.
        -12    1    1    2    0    0  0.69570391161E+01 -0.61131089746E+01  0.42401099510E+02  0.43400734260E+02  0.00000000000E+00 0.  1.
         11    1    3    3    0    0 -0.71618359603E+01  0.16932028684E+01 -0.22627637479E+02  0.23794302016E+02  0.51100000000E-03 0. -1.
        -11    1    3    3    0    0  0.53457764399E+01  0.57967980430E+01 -0.89261598908E+01  0.11910353645E+02  0.51100000000E-03 0.  1.
        -12    1    3    3    0    0 -0.51409795956E+01 -0.13768919368E+01 -0.10847302140E+02  0.12082610079E+02  0.00000000000E+00 0.  1.
</event>
<event>
 7    1  0.2497395E-009  0.4778727E+02  0.7816164E-02  0.1312668E+00
        -11   -1    0    0    0    0  0.00000000000E+00  0.00000000000E+00  0.45593999997E+02  0.45594000000E+02  0.51100000000E-03 0.  1.
         11   -1    0    0    0    0 -0.00000000000E+00 -0.00000000000E+00 -0.45593999997E+02  0.45594000000E+02  0.51100000000E-03 0. -1.
    9900012    2    1    2    0    0  0.37277927283E+02 -0.14327359989E+02 -0.16991370206E+02  0.47787265349E+02  0.19999974030E+02 0.  0.
        -12    1    1    2    0    0 -0.37277927283E+02  0.14327359989E+02  0.16991370206E+02  0.43400734651E+02  0.00000000000E+00 0.  1.
         11    1    3    3    0    0  0.17016882043E+02 -0.24850040254E+01 -0.65738019449E+01  0.18410985627E+02  0.51100000000E-03 0. -1.
        -11    1    3    3    0    0  0.15075876214E+02 -0.14350154894E+02 -0.48623949361E+01  0.21374093521E+02  0.51100000000E-03 0.  1.
        -12    1    3    3    0    0  0.51851690266E+01  0.25077989305E+01 -0.55551733255E+01  0.80021862004E+01  0.00000000000E+00 0.  1.
</event>
<event>
 7    1  0.2497395E-009  0.4778727E+02  0.7816164E-02  0.1312668E+00
        -11   -1    0    0    0    0  0.00000000000E+00  0.00000000000E+00  0.45593999997E+02  0.45594000000E+02  0.51100000000E-03 0. -1.
         11   -1    0    0    0    0 -0.00000000000E+00 -0.00000000000E+00 -0.45593999997E+02  0.45594000000E+02  0.51100000000E-03 0.  1.
    9900012    2    1    2    0    0 -0.32578182258E+02  0.15062017893E+02  0.24401241859E+02  0.47787274816E+02  0.20000017194E+02 0.  0.
        -12    1    1    2    0    0  0.32578182258E+02 -0.15062017893E+02 -0.24401241859E+02  0.43400725184E+02  0.00000000000E+00 0.  1.
         11    1    3    3    0    0 -0.23518526187E+02  0.49779525785E+01  0.92736000171E+01  0.25766271430E+02  0.51100000000E-03 0. -1.
        -11    1    3    3    0    0 -0.73205400469E+01  0.11260745956E+02  0.10888412353E+02  0.17290235102E+02  0.51100000000E-03 0.  1.
         12    1    3    3    0    0 -0.17391160244E+01 -0.11766806420E+01  0.42392294897E+01  0.47307682828E+01  0.00000000000E+00 0. -1.
</event>
<event>
 7    1  0.2497395E-009  0.4778728E+02  0.7816164E-02  0.1312668E+00
        -11   -1    0    0    0    0  0.00000000000E+00  0.00000000000E+00  0.45593999997E+02  0.45594000000E+02  0.51100000000E-03 0.  1.
         11   -1    0    0    0    0 -0.00000000000E+00 -0.00000000000E+00 -0.45593999997E+02  0.45594000000E+02  0.51100000000E-03 0. -1.
    9900012    2    1    2    0    0 -0.73514323653E+01 -0.32620686693E+02 -0.27667117936E+02  0.47787283727E+02  0.20000057824E+02 0.  0.
        -12    1    1    2    0    0  0.73514323653E+01  0.32620686693E+02  0.27667117936E+02  0.43400716273E+02  0.00000000000E+00 0.  1.
         11    1    3    3    0    0 -0.12949421777E+01 -0.11952088671E+02 -0.44108527377E+01  0.12805659724E+02  0.51100000000E-03 0. -1.
        -11    1    3    3    0    0 -0.13175508094E+01 -0.21191590390E+02 -0.20278088826E+02  0.29360182732E+02  0.51100000000E-03 0.  1.
        -12    1    3    3    0    0 -0.47389393782E+01  0.52299236798E+00 -0.29781763723E+01  0.56214412700E+01  0.00000000000E+00 0.  1.
</event>
<event>
 7    1  0.2497395E-009  0.4778727E+02  0.7816164E-02  0.1312668E+00
        -11   -1    0    0    0    0  0.00000000000E+00  0.00000000000E+00  0.45593999997E+02  0.45594000000E+02  0.51100000000E-03 0.  1.
         11   -1    0    0    0    0 -0.00000000000E+00 -0.00000000000E+00 -0.45593999997E+02  0.45594000000E+02  0.51100000000E-03 0. -1.
    9900012    2    1    2    0    0  0.75433053059E+01 -0.42419427122E+02 -0.52262578983E+01  0.47787273925E+02  0.20000013132E+02 0.  0.
        -12    1    1    2    0    0 -0.75433053059E+01  0.42419427122E+02  0.52262578983E+01  0.43400726075E+02  0.00000000000E+00 0.  1.
         11    1    3    3    0    0  0.10749195532E+02 -0.31221646398E+02 -0.59180982319E+01  0.33546390198E+02  0.51100000000E-03 0. -1.
        -11    1    3    3    0    0 -0.29829897644E+01 -0.80838502638E+01  0.41653255572E+01  0.95706217291E+01  0.51100000000E-03 0.  1.
         12    1    3    3    0    0 -0.22290046138E+00 -0.31139304593E+01 -0.34734852237E+01  0.46702619970E+01  0.00000000000E+00 0. -1.
</event>
<event>
 7    1  0.2497395E-009  0.4778727E+02  0.7816164E-02  0.1312668E+00
        -11   -1    0    0    0    0  0.00000000000E+00  0.00000000000E+00  0.45593999997E+02  0.45594000000E+02  0.51100000000E-03 0.  1.
         11   -1    0    0    0    0 -0.00000000000E+00 -0.00000000000E+00 -0.45593999997E+02  0.45594000000E+02  0.51100000000E-03 0. -1.
    9900012    2    1    2    0    0  0.27160831714E+00  0.43194371788E+02 -0.42184978212E+01  0.47787271330E+02  0.20000001302E+02 0.  0.
        -12    1    1    2    0    0 -0.27160831714E+00 -0.43194371788E+02  0.42184978212E+01  0.43400728670E+02  0.00000000000E+00 0.  1.
         11    1    3    3    0    0 -0.42193537106E+00  0.66053129274E+01  0.99053014881E-01  0.66195166053E+01  0.51100000000E-03 0. -1.
        -11    1    3    3    0    0  0.67911920254E+01  0.32251856381E+02 -0.59933091641E+01  0.33499586328E+02  0.51100000000E-03 0.  1.
        -12    1    3    3    0    0 -0.60976483372E+01  0.43372024796E+01  0.16757583280E+01  0.76681683971E+01  0.00000000000E+00 0.  1.
</event>
<event>
 7    1  0.2497395E-009  0.4778726E+02  0.7816164E-02  0.1312668E+00
        -11   -1    0    0    0    0  0.00000000000E+00  0.00000000000E+00  0.45593999997E+02  0.45594000000E+02  0.51100000000E-03 0.  1.
         11   -1    0    0    0    0 -0.00000000000E+00 -0.00000000000E+00 -0.45593999997E+02  0.45594000000E+02  0.51100000000E-03 0. -1.
    9900012    2    1    2    0    0 -0.20503493613E+02  0.32174057424E+02  0.20689633602E+02  0.47787260836E+02  0.19999953453E+02 0.  0.
        -12    1    1    2    0    0  0.20503493613E+02 -0.32174057424E+02 -0.20689633602E+02  0.43400739164E+02  0.00000000000E+00 0.  1.
         11    1    3    3    0    0 -0.35871080602E+01  0.43593170403E+01  0.68471281991E+00  0.56868111627E+01  0.51100000000E-03 0. -1.
        -11    1    3    3    0    0 -0.45041784367E+01  0.19754399715E+02  0.46779659651E+01  0.20794405433E+02  0.51100000000E-03 0.  1.
        -12    1    3    3    0    0 -0.12412207116E+02  0.80603406686E+01  0.15326954817E+02  0.21306044240E+02  0.00000000000E+00 0.  1.
</event>
<event>
 7    1  0.2497395E-009  0.4778727E+02  0.7816164E-02  0.1312668E+00
        -11   -1    0    0    0    0  0.00000000000E+00  0.00000000000E+00  0.45593999997E+02  0.45594000000E+02  0.51100000000E-03 0.  1.
         11   -1    0    0    0    0 -0.00000000000E+00 -0.00000000000E+00 -0.45593999997E+02  0.45594000000E+02  0.51100000000E-03 0. -1.
    9900012    2    1    2    0    0  0.29792463022E+02 -0.31295847422E+02  0.40746524696E+01  0.47787266002E+02  0.19999977010E+02 0.  0.
        -12    1    1    2    0    0 -0.29792463022E+02  0.31295847422E+02 -0.40746524696E+01  0.43400733998E+02  0.00000000000E+00 0.  1.
         11    1    3    3    0    0  0.62415674718E+01 -0.24356743258E+00 -0.38522997066E+01  0.73387126180E+01  0.51100000000E-03 0. -1.
        -11    1    3    3    0    0  0.11506486115E+02 -0.11320807988E+02  0.61123335300E+01  0.17260374783E+02  0.51100000000E-03 0.  1.
         12    1    3    3    0    0  0.12044409436E+02 -0.19731472001E+02  0.18146186463E+01  0.23188178601E+02  0.00000000000E+00 0. -1.
</event>
<event>
 7    1  0.2497395E-009  0.4778726E+02  0.7816164E-02  0.1312668E+00
        -11   -1    0    0    0    0  0.00000000000E+00  0.00000000000E+00  0.45593999997E+02  0.45594000000E+02  0.51100000000E-03 0.  1.
         11   -1    0    0    0    0 -0.00000000000E+00 -0.00000000000E+00 -0.45593999997E+02  0.45594000000E+02  0.51100000000E-03 0. -1.
    9900012    2    1    2    0    0  0.79975006000E+01  0.10358951266E+02 -0.41380623477E+02  0.47787263986E+02  0.19999967818E+02 0.  0.
        -12    1    1    2    0    0 -0.79975006000E+01 -0.10358951266E+02  0.41380623477E+02  0.43400736014E+02  0.00000000000E+00 0.  1.
         11    1    3    3    0    0  0.18442854543E-01  0.52787608371E+01 -0.26418290136E+01  0.59029583188E+01  0.51100000000E-03 0.  1.
        -11    1    3    3    0    0  0.11055120968E+02  0.30068664036E+01 -0.33923183079E+02  0.35805576321E+02  0.51100000000E-03 0. -1.
         12    1    3    3    0    0 -0.30760632224E+01  0.20733240251E+01 -0.48156113847E+01  0.60787293466E+01  0.00000000000E+00 0. -1.
</event>
<event>
 7    1  0.2497395E-009  0.4778727E+02  0.7816164E-02  0.1312668E+00
        -11   -1    0    0    0    0  0.00000000000E+00  0.00000000000E+00  0.45593999997E+02  0.45594000000E+02  0.51100000000E-03 0.  1.
         11   -1    0    0    0    0 -0.00000000000E+00 -0.00000000000E+00 -0.45593999997E+02  0.45594000000E+02  0.51100000000E-03 0. -1.
    9900012    2    1    2    0    0  0.38518405003E+02 -0.67969257801E+01  0.18808444543E+02  0.47787270626E+02  0.19999998092E+02 0.  0.
        -12    1    1    2    0    0 -0.38518405003E+02  0.67969257801E+01 -0.18808444543E+02  0.43400729374E+02  0.00000000000E+00 0.  1.
         11    1    3    3    0    0  0.30020771307E+02 -0.59728624194E+01  0.14329894153E+02  0.33797450526E+02  0.51100000000E-03 0. -1.
        -11    1    3    3    0    0  0.72714142001E+01 -0.49811180475E+01  0.38193008099E+01  0.96058347066E+01  0.51100000000E-03 0.  1.
         12    1    3    3    0    0  0.12262194962E+01  0.41570546867E+01  0.65924958063E+00  0.43839853935E+01  0.00000000000E+00 0. -1.
</event>
<event>
 7    1  0.2497395E-009  0.4778727E+02  0.7816164E-02  0.1312668E+00
        -11   -1    0    0    0    0  0.00000000000E+00  0.00000000000E+00  0.45593999997E+02  0.45594000000E+02  0.51100000000E-03 0.  1.
         11   -1    0    0    0    0 -0.00000000000E+00 -0.00000000000E+00 -0.45593999997E+02  0.45594000000E+02  0.51100000000E-03 0. -1.
    9900012    2    1    2    0    0 -0.30718613869E+02 -0.24385205946E+02  0.18583638733E+02  0.47787272637E+02  0.20000007261E+02 0.  0.
        -12    1    1    2    0    0  0.30718613869E+02  0.24385205946E+02 -0.18583638733E+02  0.43400727363E+02  0.00000000000E+00 0.  1.
         11    1    3    3    0    0 -0.69567435610E+01 -0.16753412614E+02  0.11867971734E+02  0.21677681346E+02  0.51100000000E-03 0.  1.
        -11    1    3    3    0    0 -0.17998168192E+02 -0.58801670987E+01  0.67022647867E+01  0.20085586298E+02  0.51100000000E-03 0. -1.
        -12    1    3    3    0    0 -0.57637021159E+01 -0.17516262337E+01  0.13402212179E-01  0.60240049936E+01  0.00000000000E+00 0.  1.
</event>
<event>
 7    1  0.2497395E-009  0.4778729E+02  0.7816164E-02  0.1312668E+00
        -11   -1    0    0    0    0  0.00000000000E+00  0.00000000000E+00  0.45593999997E+02  0.45594000000E+02  0.51100000000E-03 0.  1.
         11   -1    0    0    0    0 -0.00000000000E+00 -0.00000000000E+00 -0.45593999997E+02  0.45594000000E+02  0.51100000000E-03 0. -1.
    9900012    2    1    2    0    0  0.31464771167E+02  0.24734655175E+02 -0.16786506035E+02  0.47787288300E+02  0.20000078675E+02 0.  0.
        -12    1    1    2    0    0 -0.31464771167E+02 -0.24734655175E+02  0.16786506035E+02  0.43400711700E+02  0.00000000000E+00 0.  1.
         11    1    3    3    0    0  0.53428278919E+01  0.11033439903E+02 -0.20681878038E+01  0.12432216497E+02  0.51100000000E-03 0. -1.
        -11    1    3    3    0    0  0.17720771522E+02  0.32890176386E+01 -0.12138256189E+02  0.21729717990E+02  0.51100000000E-03 0.  1.
        -12    1    3    3    0    0  0.84011717527E+01  0.10412197634E+02 -0.25800620422E+01  0.13625353813E+02  0.00000000000E+00 0.  1.
</event>
<event>
 7    1  0.2497395E-009  0.4778727E+02  0.7816164E-02  0.1312668E+00
        -11   -1    0    0    0    0  0.00000000000E+00  0.00000000000E+00  0.45593999997E+02  0.45594000000E+02  0.51100000000E-03 0. -1.
         11   -1    0    0    0    0 -0.00000000000E+00 -0.00000000000E+00 -0.45593999997E+02  0.45594000000E+02  0.51100000000E-03 0.  1.
    9900012    2    1    2    0    0 -0.19586282422E+02 -0.38666015756E+02 -0.22226185564E+01  0.47787271126E+02  0.20000000370E+02 0.  0.
        -12    1    1    2    0    0  0.19586282422E+02  0.38666015756E+02  0.22226185564E+01  0.43400728874E+02  0.00000000000E+00 0.  1.
         11    1    3    3    0    0 -0.17066235928E+02 -0.27248853239E+02  0.43747013243E+01  0.32448334681E+02  0.51100000000E-03 0. -1.
        -11    1    3    3    0    0 -0.38198216117E-01 -0.10804860150E+02 -0.68130740005E+01  0.12773583662E+02  0.51100000000E-03 0.  1.
         12    1    3    3    0    0 -0.24818482779E+01 -0.61230236699E+00  0.21575411978E+00  0.25653527834E+01  0.00000000000E+00 0. -1.
</event>
<event>
 7    1  0.2497395E-009  0.4778727E+02  0.7816164E-02  0.1312668E+00
        -11   -1    0    0    0    0  0.00000000000E+00  0.00000000000E+00  0.45593999997E+02  0.45594000000E+02  0.51100000000E-03 0.  1.
         11   -1    0    0    0    0 -0.00000000000E+00 -0.00000000000E+00 -0.45593999997E+02  0.45594000000E+02  0.51100000000E-03 0. -1.
    9900012    2    1    2    0    0  0.15766733418E+02  0.35891229426E+02 -0.18623984669E+02  0.47787273769E+02  0.20000012424E+02 0.  0.
        -12    1    1    2    0    0 -0.15766733418E+02 -0.35891229426E+02  0.18623984669E+02  0.43400726231E+02  0.00000000000E+00 0.  1.
         11    1    3    3    0    0  0.87881993087E+01  0.16331253525E+02 -0.81131940652E+01  0.20242682801E+02  0.51100000000E-03 0. -1.
        -11    1    3    3    0    0  0.17353164896E+01  0.19019005312E+02 -0.11336534827E+02  0.22209252768E+02  0.51100000000E-03 0.  1.
        -12    1    3    3    0    0  0.52432176200E+01  0.54097058948E+00  0.82574422317E+00  0.53353382003E+01  0.00000000000E+00 0.  1.
</event>
<event>
 7    1  0.2497395E-009  0.4778727E+02  0.7816164E-02  0.1312668E+00
        -11   -1    0    0    0    0  0.00000000000E+00  0.00000000000E+00  0.45593999997E+02  0.45594000000E+02  0.51100000000E-03 0. -1.
         11   -1    0    0    0    0 -0.00000000000E+00 -0.00000000000E+00 -0.45593999997E+02  0.45594000000E+02  0.51100000000E-03 0.  1.
    9900012    2    1    2    0    0  0.21600160531E+02  0.19876414801E+02  0.31968487193E+02  0.47787274502E+02  0.20000015766E+02 0.  0.
        -12    1    1    2    0    0 -0.21600160531E+02 -0.19876414801E+02 -0.31968487193E+02  0.43400725498E+02  0.00000000000E+00 0.  1.
         11    1    3    3    0    0  0.14801185085E+02  0.17720060939E+01  0.17135295645E+02  0.22711966947E+02  0.51100000000E-03 0. -1.
        -11    1    3    3    0    0 -0.82827922094E+00  0.43399305426E+01  0.40956705582E+01  0.60245797500E+01  0.51100000000E-03 0.  1.
         12    1    3    3    0    0  0.76272546670E+01  0.13764478164E+02  0.10737520990E+02  0.19050727805E+02  0.00000000000E+00 0. -1.
</event>
<event>
 7    1  0.2497395E-009  0.4778727E+02  0.7816164E-02  0.1312668E+00
        -11   -1    0    0    0    0  0.00000000000E+00  0.00000000000E+00  0.45593999997E+02  0.45594000000E+02  0.51100000000E-03 0.  1.
         11   -1    0    0    0    0 -0.00000000000E+00 -0.00000000000E+00 -0.45593999997E+02  0.45594000000E+02  0.51100000000E-03 0. -1.
    9900012    2    1    2    0    0 -0.15157877029E+02 -0.27620736822E+02 -0.29848902749E+02  0.47787270353E+02  0.19999996845E+02 0.  0.
        -12    1    1    2    0    0  0.15157877029E+02  0.27620736822E+02  0.29848902749E+02  0.43400729647E+02  0.00000000000E+00 0.  1.
         11    1    3    3    0    0 -0.33403877387E+01 -0.20295499889E+02 -0.24976153719E+02  0.32355428615E+02  0.51100000000E-03 0. -1.
        -11    1    3    3    0    0 -0.85704038195E+01 -0.49644813680E+01 -0.11751413783E+01  0.99739086823E+01  0.51100000000E-03 0.  1.
         12    1    3    3    0    0 -0.32470854707E+01 -0.23607555647E+01 -0.36976076519E+01  0.54579330554E+01  0.00000000000E+00 0. -1.
</event>
<event>
 7    1  0.2497395E-009  0.4778727E+02  0.7816164E-02  0.1312668E+00
        -11   -1    0    0    0    0  0.00000000000E+00  0.00000000000E+00  0.45593999997E+02  0.45594000000E+02  0.51100000000E-03 0.  1.
         11   -1    0    0    0    0 -0.00000000000E+00 -0.00000000000E+00 -0.45593999997E+02  0.45594000000E+02  0.51100000000E-03 0. -1.
    9900012    2    1    2    0    0  0.26253248798E+02 -0.25678476618E+02 -0.23130197139E+02  0.47787271278E+02  0.20000001066E+02 0.  0.
        -12    1    1    2    0    0 -0.26253248798E+02  0.25678476618E+02  0.23130197139E+02  0.43400728722E+02  0.00000000000E+00 0.  1.
         11    1    3    3    0    0  0.22938794678E+02 -0.23497789918E+02 -0.18506671894E+02  0.37693916448E+02  0.51100000000E-03 0. -1.
        -11    1    3    3    0    0 -0.25962930721E+01 -0.60290976981E+00 -0.48983273383E+00  0.27100137038E+01  0.51100000000E-03 0.  1.
         12    1    3    3    0    0  0.59107471921E+01 -0.15777769300E+01 -0.41336925114E+01  0.73833411264E+01  0.00000000000E+00 0. -1.
</event>
<event>
 7    1  0.2497395E-009  0.4778727E+02  0.7816164E-02  0.1312668E+00
        -11   -1    0    0    0    0  0.00000000000E+00  0.00000000000E+00  0.45593999997E+02  0.45594000000E+02  0.51100000000E-03 0.  1.
         11   -1    0    0    0    0 -0.00000000000E+00 -0.00000000000E+00 -0.45593999997E+02  0.45594000000E+02  0.51100000000E-03 0. -1.
    9900012    2    1    2    0    0  0.81361263457E+01  0.35252204278E+02 -0.23973095112E+02  0.47787265586E+02  0.19999975115E+02 0.  0.
        -12    1    1    2    0    0 -0.81361263457E+01 -0.35252204278E+02  0.23973095112E+02  0.43400734414E+02  0.00000000000E+00 0.  1.
         11    1    3    3    0    0  0.36082292856E+01  0.25145808298E+02 -0.18278688512E+02  0.31296029262E+02  0.51100000000E-03 0. -1.
        -11    1    3    3    0    0  0.52269115671E+01  0.33544456401E+01  0.17143727491E+01  0.64429794557E+01  0.51100000000E-03 0.  1.
        -12    1    3    3    0    0 -0.69901450703E+00  0.67519503400E+01 -0.74087793486E+01  0.10048256869E+02  0.00000000000E+00 0.  1.
</event>
<event>
 7    1  0.2497395E-009  0.4778727E+02  0.7816164E-02  0.1312668E+00
        -11   -1    0    0    0    0  0.00000000000E+00  0.00000000000E+00  0.45593999997E+02  0.45594000000E+02  0.51100000000E-03 0.  1.
         11   -1    0    0    0    0 -0.00000000000E+00 -0.00000000000E+00 -0.45593999997E+02  0.45594000000E+02  0.51100000000E-03 0. -1.
    9900012    2    1    2    0    0 -0.62309234477E-01  0.12523823252E+02 -0.41554460449E+02  0.47787271729E+02  0.20000003120E+02 0.  0.
        -12    1    1    2    0    0  0.62309234477E-01 -0.12523823252E+02  0.41554460449E+02  0.43400728271E+02  0.00000000000E+00 0.  1.
         11    1    3    3    0    0  0.17576313126E+01  0.15262104824E+01 -0.28540105108E+02  0.28634877093E+02  0.51100000000E-03 0. -1.
        -11    1    3    3    0    0  0.34438903263E+00  0.10560171010E+02 -0.68186295900E+01  0.12574956275E+02  0.51100000000E-03 0.  1.
        -12    1    3    3    0    0 -0.21643295797E+01  0.43744175983E+00 -0.61957257505E+01  0.65774383614E+01  0.00000000000E+00 0.  1.
</event>
<event>
 7    1  0.2497395E-009  0.4778727E+02  0.7816164E-02  0.1312668E+00
        -11   -1    0    0    0    0  0.00000000000E+00  0.00000000000E+00  0.45593999997E+02  0.45594000000E+02  0.51100000000E-03 0.  1.
         11   -1    0    0    0    0 -0.00000000000E+00 -0.00000000000E+00 -0.45593999997E+02  0.45594000000E+02  0.51100000000E-03 0. -1.
    9900012    2    1    2    0    0 -0.31675190619E+02 -0.28428725410E+02 -0.84919555288E+01  0.47787269155E+02  0.19999991383E+02 0.  0.
        -12    1    1    2    0    0  0.31675190619E+02  0.28428725410E+02  0.84919555288E+01  0.43400730845E+02  0.00000000000E+00 0.  1.
         11    1    3    3    0    0 -0.20776455913E+02 -0.12322741846E+02 -0.13337023122E+01  0.24192764394E+02  0.51100000000E-03 0. -1.
        -11    1    3    3    0    0 -0.10867177775E+02 -0.12906678529E+02 -0.97412208723E+01  0.19482538022E+02  0.51100000000E-03 0.  1.
        -12    1    3    3    0    0 -0.31556931509E-01 -0.31993050351E+01  0.25829676557E+01  0.41119667384E+01  0.00000000000E+00 0.  1.
</event>
<event>
 7    1  0.2497395E-009  0.4778727E+02  0.7816164E-02  0.1312668E+00
        -11   -1    0    0    0    0  0.00000000000E+00  0.00000000000E+00  0.45593999997E+02  0.45594000000E+02  0.51100000000E-03 0.  1.
         11   -1    0    0    0    0 -0.00000000000E+00 -0.00000000000E+00 -0.45593999997E+02  0.45594000000E+02  0.51100000000E-03 0. -1.
    9900012    2    1    2    0    0  0.20651223086E+02  0.36561672520E+02 -0.10972444598E+02  0.47787268983E+02  0.19999990599E+02 0.  0.
        -12    1    1    2    0    0 -0.20651223086E+02 -0.36561672520E+02  0.10972444598E+02  0.43400731017E+02  0.00000000000E+00 0.  1.
         11    1    3    3    0    0  0.13908219260E+02  0.25767012973E+02  0.15588580159E+01  0.29322475323E+02  0.51100000000E-03 0. -1.
        -11    1    3    3    0    0  0.86784468032E+00  0.31142628182E+01 -0.59380371649E+01  0.67610703977E+01  0.51100000000E-03 0.  1.
         12    1    3    3    0    0  0.58751591466E+01  0.76803967286E+01 -0.65932654486E+01  0.11703723262E+02  0.00000000000E+00 0. -1.
</event>
<event>
 7    1  0.2497395E-009  0.4778727E+02  0.7816164E-02  0.1312668E+00
        -11   -1    0    0    0    0  0.00000000000E+00  0.00000000000E+00  0.45593999997E+02  0.45594000000E+02  0.51100000000E-03 0. -1.
         11   -1    0    0    0    0 -0.00000000000E+00 -0.00000000000E+00 -0.45593999997E+02  0.45594000000E+02  0.51100000000E-03 0.  1.
    9900012    2    1    2    0    0 -0.21440039182E+02  0.32392580990E+02 -0.19356357337E+02  0.47787272441E+02  0.20000006367E+02 0.  0.
        -12    1    1    2    0    0  0.21440039182E+02 -0.32392580990E+02  0.19356357337E+02  0.43400727559E+02  0.00000000000E+00 0.  1.
         11    1    3    3    0    0 -0.20850346536E+02  0.24111953557E+02 -0.21820898908E+02  0.38629973911E+02  0.51100000000E-03 0. -1.
        -11    1    3    3    0    0 -0.71300397395E+00  0.72490395295E+01  0.31251487279E+01  0.79261279071E+01  0.51100000000E-03 0.  1.
         12    1    3    3    0    0  0.12331132745E+00  0.10315879038E+01 -0.66060715664E+00  0.12311706227E+01  0.00000000000E+00 0. -1.
</event>
<event>
 7    1  0.2497395E-009  0.4778726E+02  0.7816164E-02  0.1312668E+00
        -11   -1    0    0    0    0  0.00000000000E+00  0.00000000000E+00  0.45593999997E+02  0.45594000000E+02  0.51100000000E-03 0.  1.
         11   -1    0    0    0    0 -0.00000000000E+00 -0.00000000000E+00 -0.45593999997E+02  0.45594000000E+02  0.51100000000E-03 0. -1.
    9900012    2    1    2    0    0  0.28333948457E+02 -0.14468034477E+02 -0.29520969680E+02  0.47787259135E+02  0.19999945700E+02 0.  0.
        -12    1    1    2    0    0 -0.28333948457E+02  0.14468034477E+02  0.29520969680E+02  0.43400740865E+02  0.00000000000E+00 0.  1.
         11    1    3    3    0    0  0.17269131397E+01  0.22831481883E+01 -0.78636685079E+01  0.83685289810E+01  0.51100000000E-03 0. -1.
        -11    1    3    3    0    0  0.10026560258E+02 -0.67901014871E+01 -0.28504604414E+01  0.12440358267E+02  0.51100000000E-03 0.  1.
        -12    1    3    3    0    0  0.16580475059E+02 -0.99610811785E+01 -0.18806840731E+02  0.26978371887E+02  0.00000000000E+00 0.  1.
</event>
<event>
 7    1  0.2497395E-009  0.4778727E+02  0.7816164E-02  0.1312668E+00
        -11   -1    0    0    0    0  0.00000000000E+00  0.00000000000E+00  0.45593999997E+02  0.45594000000E+02  0.51100000000E-03 0. -1.
         11   -1    0    0    0    0 -0.00000000000E+00 -0.00000000000E+00 -0.45593999997E+02  0.45594000000E+02  0.51100000000E-03 0.  1.
    9900012    2    1    2    0    0 -0.83484628918E+01 -0.65700703707E+00  0.42585147664E+02  0.47787270831E+02  0.19999999025E+02 0.  0.
        -12    1    1    2    0    0  0.83484628918E+01  0.65700703707E+00 -0.42585147664E+02  0.43400729169E+02  0.00000000000E+00 0.  1.
         11    1    3    3    0    0  0.37229874376E+01  0.78895816307E-01  0.19766162910E+02  0.20113877211E+02  0.51100000000E-03 0. -1.
        -11    1    3    3    0    0 -0.47318708221E+01  0.38012110340E+01  0.49575005086E+01  0.78368755481E+01  0.51100000000E-03 0.  1.
         12    1    3    3    0    0 -0.73395795073E+01 -0.45371138874E+01  0.17861484245E+02  0.19836518071E+02  0.00000000000E+00 0. -1.
</event>
<event>
 7    1  0.2497395E-009  0.4778727E+02  0.7816164E-02  0.1312668E+00
        -11   -1    0    0    0    0  0.00000000000E+00  0.00000000000E+00  0.45593999997E+02  0.45594000000E+02  0.51100000000E-03 0.  1.
         11   -1    0    0    0    0 -0.00000000000E+00 -0.00000000000E+00 -0.45593999997E+02  0.45594000000E+02  0.51100000000E-03 0. -1.
    9900012    2    1    2    0    0 -0.36500626001E+02  0.71614464324E+01 -0.22361607052E+02  0.47787268631E+02  0.19999988995E+02 0.  0.
        -12    1    1    2    0    0  0.36500626001E+02 -0.71614464324E+01  0.22361607052E+02  0.43400731369E+02  0.00000000000E+00 0.  1.
         11    1    3    3    0    0 -0.46385988678E+01 -0.48028343878E+01 -0.49439252990E+01  0.83082016848E+01  0.51100000000E-03 0.  1.
        -11    1    3    3    0    0 -0.22981008740E+02  0.11492836416E+02 -0.89766200339E+01  0.27217489949E+02  0.51100000000E-03 0. -1.
         12    1    3    3    0    0 -0.88810183928E+01  0.47144440416E+00 -0.84410617187E+01  0.12261576997E+02  0.00000000000E+00 0. -1.
</event>
<event>
 7    1  0.2497395E-009  0.4778727E+02  0.7816164E-02  0.1312668E+00
        -11   -1    0    0    0    0  0.00000000000E+00  0.00000000000E+00  0.45593999997E+02  0.45594000000E+02  0.51100000000E-03 0.  1.
         11   -1    0    0    0    0 -0.00000000000E+00 -0.00000000000E+00 -0.45593999997E+02  0.45594000000E+02  0.51100000000E-03 0. -1.
    9900012    2    1    2    0    0  0.34708960706E+02  0.25418051095E+02  0.57301028879E+01  0.47787270123E+02  0.19999995797E+02 0.  0.
        -12    1    1    2    0    0 -0.34708960706E+02 -0.25418051095E+02 -0.57301028879E+01  0.43400729877E+02  0.00000000000E+00 0.  1.
         11    1    3    3    0    0  0.30957126652E+02  0.18394023345E+02  0.51700011767E+01  0.36378739640E+02  0.51100000000E-03 0. -1.
        -11    1    3    3    0    0  0.81004261516E+00  0.31954075396E+01 -0.37099579604E+01  0.49629211874E+01  0.51100000000E-03 0.  1.
        -12    1    3    3    0    0  0.29417914391E+01  0.38286202106E+01  0.42700596715E+01  0.64456092952E+01  0.00000000000E+00 0.  1.
</event>
<event>
 7    1  0.2497395E-009  0.4778727E+02  0.7816164E-02  0.1312668E+00
        -11   -1    0    0    0    0  0.00000000000E+00  0.00000000000E+00  0.45593999997E+02  0.45594000000E+02  0.51100000000E-03 0.  1.
         11   -1    0    0    0    0 -0.00000000000E+00 -0.00000000000E+00 -0.45593999997E+02  0.45594000000E+02  0.51100000000E-03 0. -1.
    9900012    2    1    2    0    0  0.15615647040E+02  0.13589260037E+02 -0.38145860192E+02  0.47787273386E+02  0.20000010677E+02 0.  0.
        -12    1    1    2    0    0 -0.15615647040E+02 -0.13589260037E+02  0.38145860192E+02  0.43400726614E+02  0.00000000000E+00 0.  1.
         11    1    3    3    0    0  0.10049250039E+01  0.60011321780E+01 -0.85698203129E+01  0.10510246531E+02  0.51100000000E-03 0. -1.
        -11    1    3    3    0    0  0.12630681559E+02  0.12053305167E+02 -0.25559110972E+02  0.30952939054E+02  0.51100000000E-03 0.  1.
        -12    1    3    3    0    0  0.19800404766E+01 -0.44651773082E+01 -0.40169289067E+01  0.63240878017E+01  0.00000000000E+00 0.  1.
</event>
<event>
 7    1  0.2497395E-009  0.4778727E+02  0.7816164E-02  0.1312668E+00
        -11   -1    0    0    0    0  0.00000000000E+00  0.00000000000E+00  0.45593999997E+02  0.45594000000E+02  0.51100000000E-03 0.  1.
         11   -1    0    0    0    0 -0.00000000000E+00 -0.00000000000E+00 -0.45593999997E+02  0.45594000000E+02  0.51100000000E-03 0. -1.
    9900012    2    1    2    0    0 -0.20414176402E+02 -0.28802227015E+02 -0.25245123545E+02  0.47787272564E+02  0.20000006929E+02 0.  0.
        -12    1    1    2    0    0  0.20414176402E+02  0.28802227015E+02  0.25245123545E+02  0.43400727436E+02  0.00000000000E+00 0.  1.
         11    1    3    3    0    0 -0.66264268297E+01 -0.13425384321E+02 -0.39947493260E+01  0.15495434784E+02  0.51100000000E-03 0. -1.
        -11    1    3    3    0    0 -0.96976932336E+01 -0.29318718075E+01 -0.14115661612E+02  0.17375069190E+02  0.51100000000E-03 0.  1.
         12    1    3    3    0    0 -0.40900563383E+01 -0.12444970886E+02 -0.71347126070E+01  0.14916768590E+02  0.00000000000E+00 0. -1.
</event>
<event>
 7    1  0.2497395E-009  0.4778727E+02  0.7816164E-02  0.1312668E+00
        -11   -1    0    0    0    0  0.00000000000E+00  0.00000000000E+00  0.45593999997E+02  0.45594000000E+02  0.51100000000E-03 0.  1.
         11   -1    0    0    0    0 -0.00000000000E+00 -0.00000000000E+00 -0.45593999997E+02  0.45594000000E+02  0.51100000000E-03 0. -1.
    9900012    2    1    2    0    0  0.69086379063E+01  0.36000950053E+02 -0.23234147462E+02  0.47787270851E+02  0.19999999116E+02 0.  0.
        -12    1    1    2    0    0 -0.69086379063E+01 -0.36000950053E+02  0.23234147462E+02  0.43400729149E+02  0.00000000000E+00 0.  1.
         11    1    3    3    0    0  0.51364808616E+01  0.21449985818E+02 -0.25228977114E+01  0.22200232890E+02  0.51100000000E-03 0. -1.
        -11    1    3    3    0    0  0.11878275780E+01  0.72078077910E+01 -0.13072283582E+02  0.14974913216E+02  0.51100000000E-03 0.  1.
         12    1    3    3    0    0  0.58432946673E+00  0.73431564435E+01 -0.76389661683E+01  0.10612124745E+02  0.00000000000E+00 0. -1.
</event>
<event>
 7    1  0.2497395E-009  0.4778727E+02  0.7816164E-02  0.1312668E+00
        -11   -1    0    0    0    0  0.00000000000E+00  0.00000000000E+00  0.45593999997E+02  0.45594000000E+02  0.51100000000E-03 0. -1.
         11   -1    0    0    0    0 -0.00000000000E+00 -0.00000000000E+00 -0.45593999997E+02  0.45594000000E+02  0.51100000000E-03 0.  1.
    9900012    2    1    2    0    0  0.75601296543E+01 -0.37611437140E+02  0.20294026209E+02  0.47787271160E+02  0.20000000526E+02 0.  0.
        -12    1    1    2    0    0 -0.75601296543E+01  0.37611437140E+02 -0.20294026209E+02  0.43400728840E+02  0.00000000000E+00 0.  1.
         11    1    3    3    0    0  0.27979684743E-02 -0.72195190768E+00 -0.27273866891E+01  0.28213225265E+01  0.51100000000E-03 0. -1.
        -11    1    3    3    0    0  0.60153245857E+00 -0.20693376000E+00  0.20429275534E+01  0.21396766413E+01  0.51100000000E-03 0.  1.
         12    1    3    3    0    0  0.69557992273E+01 -0.36682551472E+02  0.20978485344E+02  0.42826271992E+02  0.00000000000E+00 0. -1.
</event>
<event>
 7    1  0.2497395E-009  0.4778727E+02  0.7816164E-02  0.1312668E+00
        -11   -1    0    0    0    0  0.00000000000E+00  0.00000000000E+00  0.45593999997E+02  0.45594000000E+02  0.51100000000E-03 0.  1.
         11   -1    0    0    0    0 -0.00000000000E+00 -0.00000000000E+00 -0.45593999997E+02  0.45594000000E+02  0.51100000000E-03 0. -1.
    9900012    2    1    2    0    0  0.71274858003E+01  0.39823098261E+02 -0.15714428383E+02  0.47787268804E+02  0.19999989785E+02 0.  0.
        -12    1    1    2    0    0 -0.71274858003E+01 -0.39823098261E+02  0.15714428383E+02  0.43400731196E+02  0.00000000000E+00 0.  1.
         11    1    3    3    0    0 -0.28706303422E+01  0.43833650972E+01  0.10857222581E+00  0.52408201960E+01  0.51100000000E-03 0. -1.
        -11    1    3    3    0    0  0.80797357362E+01  0.33203731786E+02 -0.18239851186E+02  0.38735798760E+02  0.51100000000E-03 0.  1.
        -12    1    3    3    0    0  0.19183804063E+01  0.22360013783E+01  0.24168505775E+01  0.38106498476E+01  0.00000000000E+00 0.  1.
</event>
<event>
 7    1  0.2497395E-009  0.4778727E+02  0.7816164E-02  0.1312668E+00
        -11   -1    0    0    0    0  0.00000000000E+00  0.00000000000E+00  0.45593999997E+02  0.45594000000E+02  0.51100000000E-03 0.  1.
         11   -1    0    0    0    0 -0.00000000000E+00 -0.00000000000E+00 -0.45593999997E+02  0.45594000000E+02  0.51100000000E-03 0. -1.
    9900012    2    1    2    0    0 -0.67478435500E+01 -0.23181364238E+02 -0.36065414799E+02  0.47787272067E+02  0.20000004661E+02 0.  0.
        -12    1    1    2    0    0  0.67478435500E+01  0.23181364238E+02  0.36065414799E+02  0.43400727933E+02  0.00000000000E+00 0.  1.
         11    1    3    3    0    0  0.22459489059E+01 -0.92753335977E+00 -0.90528349823E+01  0.93732825679E+01  0.51100000000E-03 0. -1.
        -11    1    3    3    0    0 -0.89355162792E+01 -0.19003086012E+02 -0.28015235738E+02  0.35011628966E+02  0.51100000000E-03 0.  1.
        -12    1    3    3    0    0 -0.58276176619E-01 -0.32507448661E+01  0.10026559209E+01  0.34023605325E+01  0.00000000000E+00 0.  1.
</event>
<event>
 7    1  0.2497395E-009  0.4778727E+02  0.7816164E-02  0.1312668E+00
        -11   -1    0    0    0    0  0.00000000000E+00  0.00000000000E+00  0.45593999997E+02  0.45594000000E+02  0.51100000000E-03 0.  1.
         11   -1    0    0    0    0 -0.00000000000E+00 -0.00000000000E+00 -0.45593999997E+02  0.45594000000E+02  0.51100000000E-03 0. -1.
    9900012    2    1    2    0    0 -0.41048181942E+02  0.16612689402E+01 -0.13996798788E+02  0.47787269228E+02  0.19999991717E+02 0.  0.
        -12    1    1    2    0    0  0.41048181942E+02 -0.16612689402E+01  0.13996798788E+02  0.43400730772E+02  0.00000000000E+00 0.  1.
         11    1    3    3    0    0 -0.10769702117E+02  0.25763967455E+01 -0.48389477488E+01  0.12084689464E+02  0.51100000000E-03 0. -1.
        -11    1    3    3    0    0 -0.24118405888E+02 -0.40327900276E+01 -0.13111523980E+02  0.27746584642E+02  0.51100000000E-03 0.  1.
        -12    1    3    3    0    0 -0.61600739377E+01  0.31176622223E+01  0.39536729405E+01  0.79559951214E+01  0.00000000000E+00 0.  1.
</event>
<event>
 7    1  0.2497395E-009  0.4778727E+02  0.7816164E-02  0.1312668E+00
        -11   -1    0    0    0    0  0.00000000000E+00  0.00000000000E+00  0.45593999997E+02  0.45594000000E+02  0.51100000000E-03 0.  1.
         11   -1    0    0    0    0 -0.00000000000E+00 -0.00000000000E+00 -0.45593999997E+02  0.45594000000E+02  0.51100000000E-03 0. -1.
    9900012    2    1    2    0    0  0.25207574904E+02 -0.16821873384E+02 -0.31068087099E+02  0.47787270828E+02  0.19999999012E+02 0.  0.
        -12    1    1    2    0    0 -0.25207574904E+02  0.16821873384E+02  0.31068087099E+02  0.43400729172E+02  0.00000000000E+00 0.  1.
         11    1    3    3    0    0  0.13826760088E+02 -0.58391736579E+01 -0.22047793479E+02  0.26671716126E+02  0.51100000000E-03 0. -1.
        -11    1    3    3    0    0 -0.19763497968E+01 -0.25715753954E+01 -0.90716855464E+00  0.33677757617E+01  0.51100000000E-03 0.  1.
        -12    1    3    3    0    0  0.13357164612E+02 -0.84111243308E+01 -0.81131250658E+01  0.17747778940E+02  0.00000000000E+00 0.  1.
</event>
<event>
 7    1  0.2497395E-009  0.4778728E+02  0.7816164E-02  0.1312668E+00
        -11   -1    0    0    0    0  0.00000000000E+00  0.00000000000E+00  0.45593999997E+02  0.45594000000E+02  0.51100000000E-03 0.  1.
         11   -1    0    0    0    0 -0.00000000000E+00 -0.00000000000E+00 -0.45593999997E+02  0.45594000000E+02  0.51100000000E-03 0. -1.
    9900012    2    1    2    0    0  0.10385365787E+02  0.34142509496E+02 -0.24699308314E+02  0.47787278711E+02  0.20000034955E+02 0.  0.
        -12    1    1    2    0    0 -0.10385365787E+02 -0.34142509496E+02  0.24699308314E+02  0.43400721289E+02  0.00000000000E+00 0.  1.
         11    1    3    3    0    0 -0.31690440669E+00  0.33845468906E+01  0.27235668895E+01  0.43558469808E+01  0.51100000000E-03 0. -1.
        -11    1    3    3    0    0  0.58393611374E-01 -0.55023761993E+00 -0.82765849984E+00  0.99558530810E+00  0.51100000000E-03 0.  1.
         12    1    3    3    0    0  0.10643876583E+02  0.31308200225E+02 -0.26595216704E+02  0.42435846422E+02  0.00000000000E+00 0. -1.
</event>
<event>
 7    1  0.2497395E-009  0.4778728E+02  0.7816164E-02  0.1312668E+00
        -11   -1    0    0    0    0  0.00000000000E+00  0.00000000000E+00  0.45593999997E+02  0.45594000000E+02  0.51100000000E-03 0. -1.
         11   -1    0    0    0    0 -0.00000000000E+00 -0.00000000000E+00 -0.45593999997E+02  0.45594000000E+02  0.51100000000E-03 0.  1.
    9900012    2    1    2    0    0 -0.17848203167E+02  0.53074203091E+01  0.39203255901E+02  0.47787281804E+02  0.20000049058E+02 0.  0.
        -12    1    1    2    0    0  0.17848203167E+02 -0.53074203091E+01 -0.39203255901E+02  0.43400718196E+02  0.00000000000E+00 0.  1.
         11    1    3    3    0    0 -0.11083857170E+02 -0.44756233314E+01  0.14044078638E+02  0.18442321953E+02  0.51100000000E-03 0. -1.
        -11    1    3    3    0    0 -0.69034706296E+01  0.10305848943E+02  0.25726624607E+02  0.28560946117E+02  0.51100000000E-03 0.  1.
         12    1    3    3    0    0  0.13912463282E+00 -0.52280530233E+00 -0.56744734342E+00  0.78401373404E+00  0.00000000000E+00 0. -1.
</event>
<event>
 7    1  0.2497395E-009  0.4778727E+02  0.7816164E-02  0.1312668E+00
        -11   -1    0    0    0    0  0.00000000000E+00  0.00000000000E+00  0.45593999997E+02  0.45594000000E+02  0.51100000000E-03 0. -1.
         11   -1    0    0    0    0 -0.00000000000E+00 -0.00000000000E+00 -0.45593999997E+02  0.45594000000E+02  0.51100000000E-03 0.  1.
    9900012    2    1    2    0    0  0.28923106128E+02  0.13181358098E+02  0.29552143146E+02  0.47787269201E+02  0.19999991594E+02 0.  0.
        -12    1    1    2    0    0 -0.28923106128E+02 -0.13181358098E+02 -0.29552143146E+02  0.43400730799E+02  0.00000000000E+00 0.  1.
         11    1    3    3    0    0  0.94434845854E+01  0.10263737541E+02  0.20714629676E+02  0.24972376585E+02  0.51100000000E-03 0. -1.
        -11    1    3    3    0    0  0.12097901128E+02 -0.18208048349E+01  0.45659786472E+01  0.13058434180E+02  0.51100000000E-03 0.  1.
         12    1    3    3    0    0  0.73817204146E+01  0.47384253917E+01  0.42715348222E+01  0.97564584358E+01  0.00000000000E+00 0. -1.
</event>
<event>
 7    1  0.2497395E-009  0.4778726E+02  0.7816164E-02  0.1312668E+00
        -11   -1    0    0    0    0  0.00000000000E+00  0.00000000000E+00  0.45593999997E+02  0.45594000000E+02  0.51100000000E-03 0. -1.
         11   -1    0    0    0    0 -0.00000000000E+00 -0.00000000000E+00 -0.45593999997E+02  0.45594000000E+02  0.51100000000E-03 0.  1.
    9900012    2    1    2    0    0 -0.42558981973E+02  0.57378727760E+00 -0.84869417750E+01  0.47787258542E+02  0.19999942997E+02 0.  0.
        -12    1    1    2    0    0  0.42558981973E+02 -0.57378727760E+00  0.84869417750E+01  0.43400741458E+02  0.00000000000E+00 0.  1.
         11    1    3    3    0    0 -0.30737843102E+02 -0.40402289197E+01 -0.10544481352E+02  0.32746366754E+02  0.51100000000E-03 0. -1.
        -11    1    3    3    0    0 -0.50997133268E+01  0.56840053928E+01 -0.76111357888E+00  0.76742613626E+01  0.51100000000E-03 0.  1.
         12    1    3    3    0    0 -0.67214255437E+01 -0.10699891954E+01  0.28186531562E+01  0.73666304260E+01  0.00000000000E+00 0. -1.
</event>
<event>
 7    1  0.2497395E-009  0.4778727E+02  0.7816164E-02  0.1312668E+00
        -11   -1    0    0    0    0  0.00000000000E+00  0.00000000000E+00  0.45593999997E+02  0.45594000000E+02  0.51100000000E-03 0.  1.
         11   -1    0    0    0    0 -0.00000000000E+00 -0.00000000000E+00 -0.45593999997E+02  0.45594000000E+02  0.51100000000E-03 0. -1.
    9900012    2    1    2    0    0 -0.13857114831E+02 -0.40756923527E+02 -0.55205541342E+01  0.47787274605E+02  0.20000016234E+02 0.  0.
        -12    1    1    2    0    0  0.13857114831E+02  0.40756923527E+02  0.55205541342E+01  0.43400725395E+02  0.00000000000E+00 0.  1.
         11    1    3    3    0    0 -0.93673178145E+01 -0.36022400891E+02 -0.53254834146E+00  0.37224234270E+02  0.51100000000E-03 0.  1.
        -11    1    3    3    0    0 -0.29431686810E+01 -0.42665362398E+01  0.14140483684E+00  0.51851295991E+01  0.51100000000E-03 0. -1.
         12    1    3    3    0    0 -0.15466283354E+01 -0.46798639634E+00 -0.51294106295E+01  0.53779107357E+01  0.00000000000E+00 0. -1.
</event>
<event>
 7    1  0.2497395E-009  0.4778727E+02  0.7816164E-02  0.1312668E+00
        -11   -1    0    0    0    0  0.00000000000E+00  0.00000000000E+00  0.45593999997E+02  0.45594000000E+02  0.51100000000E-03 0.  1.
         11   -1    0    0    0    0 -0.00000000000E+00 -0.00000000000E+00 -0.45593999997E+02  0.45594000000E+02  0.51100000000E-03 0. -1.
    9900012    2    1    2    0    0 -0.32684487355E+02 -0.58720104091E+01 -0.27943998289E+02  0.47787271201E+02  0.20000000715E+02 0.  0.
        -12    1    1    2    0    0  0.32684487355E+02  0.58720104091E+01  0.27943998289E+02  0.43400728799E+02  0.00000000000E+00 0.  1.
         11    1    3    3    0    0 -0.33072875869E+02 -0.57116990441E+01 -0.29822204862E+02  0.44897689554E+02  0.51100000000E-03 0. -1.
        -11    1    3    3    0    0  0.10612168064E+01 -0.59386775669E+00  0.54070924192E+00  0.13308744373E+01  0.51100000000E-03 0.  1.
         12    1    3    3    0    0 -0.67282829197E+00  0.43355639162E+00  0.13374973310E+01  0.15587072097E+01  0.00000000000E+00 0. -1.
</event>
<event>
 7    1  0.2497395E-009  0.4778727E+02  0.7816164E-02  0.1312668E+00
        -11   -1    0    0    0    0  0.00000000000E+00  0.00000000000E+00  0.45593999997E+02  0.45594000000E+02  0.51100000000E-03 0.  1.
         11   -1    0    0    0    0 -0.00000000000E+00 -0.00000000000E+00 -0.45593999997E+02  0.45594000000E+02  0.51100000000E-03 0. -1.
    9900012    2    1    2    0    0 -0.42492397642E+02 -0.18238597718E-01 -0.88328332146E+01  0.47787272672E+02  0.20000007419E+02 0.  0.
        -12    1    1    2    0    0  0.42492397642E+02  0.18238597718E-01  0.88328332146E+01  0.43400727328E+02  0.00000000000E+00 0.  1.
         11    1    3    3    0    0 -0.72026155521E+01  0.53511103979E+01 -0.35501867922E+01  0.96496569785E+01  0.51100000000E-03 0. -1.
        -11    1    3    3    0    0 -0.18203626802E+02 -0.70374467896E+01  0.17300945343E+01  0.19593134344E+02  0.51100000000E-03 0.  1.
        -12    1    3    3    0    0 -0.17086155288E+02  0.16680977941E+01 -0.70127409566E+01  0.18544481349E+02  0.00000000000E+00 0.  1.
</event>
<event>
 7    1  0.2497395E-009  0.4778727E+02  0.7816164E-02  0.1312668E+00
        -11   -1    0    0    0    0  0.00000000000E+00  0.00000000000E+00  0.45593999997E+02  0.45594000000E+02  0.51100000000E-03 0.  1.
         11   -1    0    0    0    0 -0.00000000000E+00 -0.00000000000E+00 -0.45593999997E+02  0.45594000000E+02  0.51100000000E-03 0. -1.
    9900012    2    1    2    0    0 -0.24397955602E+02  0.24684167098E+02  0.26058683121E+02  0.47787270641E+02  0.19999998160E+02 0.  0.
        -12    1    1    2    0    0  0.24397955602E+02 -0.24684167098E+02 -0.26058683121E+02  0.43400729359E+02  0.00000000000E+00 0.  1.
         11    1    3    3    0    0 -0.93238033195E+00  0.21921960344E+01 -0.65347277361E-01  0.23831338747E+01  0.51100000000E-03 0. -1.
        -11    1    3    3    0    0 -0.18887104335E+02  0.24012443521E+02  0.16699431875E+02  0.34816536003E+02  0.51100000000E-03 0.  1.
        -12    1    3    3    0    0 -0.45784709357E+01 -0.15204724578E+01  0.94245985235E+01  0.10587600764E+02  0.00000000000E+00 0.  1.
</event>
<event>
 7    1  0.2497395E-009  0.4778727E+02  0.7816164E-02  0.1312668E+00
        -11   -1    0    0    0    0  0.00000000000E+00  0.00000000000E+00  0.45593999997E+02  0.45594000000E+02  0.51100000000E-03 0. -1.
         11   -1    0    0    0    0 -0.00000000000E+00 -0.00000000000E+00 -0.45593999997E+02  0.45594000000E+02  0.51100000000E-03 0.  1.
    9900012    2    1    2    0    0 -0.30022144589E+02  0.24739566107E+02  0.19241834375E+02  0.47787268589E+02  0.19999988804E+02 0.  0.
        -12    1    1    2    0    0  0.30022144589E+02 -0.24739566107E+02 -0.19241834375E+02  0.43400731411E+02  0.00000000000E+00 0.  1.
         11    1    3    3    0    0 -0.17645639085E+02  0.48287733929E+01  0.11431999201E+02  0.21572580680E+02  0.51100000000E-03 0. -1.
        -11    1    3    3    0    0 -0.28717573161E+01  0.12857555222E+02  0.36749365134E+01  0.13677312419E+02  0.51100000000E-03 0.  1.
        -12    1    3    3    0    0 -0.95047481879E+01  0.70532374918E+01  0.41348986611E+01  0.12537375490E+02  0.00000000000E+00 0.  1.
</event>
<event>
 7    1  0.2497395E-009  0.4778727E+02  0.7816164E-02  0.1312668E+00
        -11   -1    0    0    0    0  0.00000000000E+00  0.00000000000E+00  0.45593999997E+02  0.45594000000E+02  0.51100000000E-03 0.  1.
         11   -1    0    0    0    0 -0.00000000000E+00 -0.00000000000E+00 -0.45593999997E+02  0.45594000000E+02  0.51100000000E-03 0. -1.
    9900012    2    1    2    0    0 -0.26245033476E+02  0.88952262196E+01 -0.33402040456E+02  0.47787272607E+02  0.20000007124E+02 0.  0.
        -12    1    1    2    0    0  0.26245033476E+02 -0.88952262196E+01  0.33402040456E+02  0.43400727393E+02  0.00000000000E+00 0.  1.
         11    1    3    3    0    0 -0.13188390521E+01  0.35569147193E+01 -0.10618261441E+02  0.11275568946E+02  0.51100000000E-03 0. -1.
        -11    1    3    3    0    0 -0.11352107299E+02 -0.34279220073E+01 -0.62964606359E+01  0.13426332568E+02  0.51100000000E-03 0.  1.
        -12    1    3    3    0    0 -0.13574087125E+02  0.87662335075E+01 -0.16487318379E+02  0.23085371093E+02  0.00000000000E+00 0.  1.
</event>
<event>
 7    1  0.2497395E-009  0.4778727E+02  0.7816164E-02  0.1312668E+00
        -11   -1    0    0    0    0  0.00000000000E+00  0.00000000000E+00  0.45593999997E+02  0.45594000000E+02  0.51100000000E-03 0. -1.
         11   -1    0    0    0    0 -0.00000000000E+00 -0.00000000000E+00 -0.45593999997E+02  0.45594000000E+02  0.51100000000E-03 0.  1.
    9900012    2    1    2    0    0  0.23662180911E+02 -0.80923925499E-01  0.36382936884E+02  0.47787269010E+02  0.19999990724E+02 0.  0.
        -12    1    1    2    0    0 -0.23662180911E+02  0.80923925499E-01 -0.36382936884E+02  0.43400730990E+02  0.00000000000E+00 0.  1.
         11    1    3    3    0    0  0.23375618367E+02  0.29089735979E+01  0.25934951383E+02  0.35035744104E+02  0.51100000000E-03 0. -1.
        -11    1    3    3    0    0 -0.10995895324E+01 -0.28635085107E+01  0.10366405689E+01  0.32378082187E+01  0.51100000000E-03 0.  1.
         12    1    3    3    0    0  0.13861520761E+01 -0.12638901268E+00  0.94113449328E+01  0.95137166872E+01  0.00000000000E+00 0. -1.
</event>
<event>
 7    1  0.2497395E-009  0.4778728E+02  0.7816164E-02  0.1312668E+00
        -11   -1    0    0    0    0  0.00000000000E+00  0.00000000000E+00  0.45593999997E+02  0.45594000000E+02  0.51100000000E-03 0.  1.
         11   -1    0    0    0    0 -0.00000000000E+00 -0.00000000000E+00 -0.45593999997E+02  0.45594000000E+02  0.51100000000E-03 0. -1.
    9900012    2    1    2    0    0  0.20124397064E+02  0.77063104187E+01 -0.37672856300E+02  0.47787277895E+02  0.20000031234E+02 0.  0.
        -12    1    1    2    0    0 -0.20124397064E+02 -0.77063104187E+01  0.37672856300E+02  0.43400722105E+02  0.00000000000E+00 0.  1.
         11    1    3    3    0    0  0.13767697035E+02  0.20396823976E+00 -0.20633452712E+02  0.24805855271E+02  0.51100000000E-03 0. -1.
        -11    1    3    3    0    0 -0.30601425283E+00  0.84521201687E+01 -0.11437900120E+02  0.14225243038E+02  0.51100000000E-03 0.  1.
         12    1    3    3    0    0  0.66627142821E+01 -0.94977798971E+00 -0.56015034681E+01  0.87561795857E+01  0.00000000000E+00 0. -1.
</event>
<event>
 7    1  0.2497395E-009  0.4778727E+02  0.7816164E-02  0.1312668E+00
        -11   -1    0    0    0    0  0.00000000000E+00  0.00000000000E+00  0.45593999997E+02  0.45594000000E+02  0.51100000000E-03 0.  1.
         11   -1    0    0    0    0 -0.00000000000E+00 -0.00000000000E+00 -0.45593999997E+02  0.45594000000E+02  0.51100000000E-03 0. -1.
    9900012    2    1    2    0    0 -0.15612848098E+02 -0.82728723571E+01 -0.39641161430E+02  0.47787272790E+02  0.20000007961E+02 0.  0.
        -12    1    1    2    0    0  0.15612848098E+02  0.82728723571E+01  0.39641161430E+02  0.43400727210E+02  0.00000000000E+00 0.  1.
         11    1    3    3    0    0 -0.42929517581E+01  0.24934511786E+00  0.19995790118E+00  0.43048334705E+01  0.51100000000E-03 0.  1.
        -11    1    3    3    0    0 -0.29864958790E+01 -0.84111234649E+01 -0.23518808938E+02  0.25155526822E+02  0.51100000000E-03 0. -1.
         12    1    3    3    0    0 -0.83334004610E+01 -0.11109401013E+00 -0.16322310394E+02  0.18326912498E+02  0.00000000000E+00 0. -1.
</event>
<event>
 7    1  0.2497395E-009  0.4778727E+02  0.7816164E-02  0.1312668E+00
        -11   -1    0    0    0    0  0.00000000000E+00  0.00000000000E+00  0.45593999997E+02  0.45594000000E+02  0.51100000000E-03 0.  1.
         11   -1    0    0    0    0 -0.00000000000E+00 -0.00000000000E+00 -0.45593999997E+02  0.45594000000E+02  0.51100000000E-03 0. -1.
    9900012    2    1    2    0    0 -0.30783506086E+02  0.20522503484E+02 -0.22689773605E+02  0.47787271637E+02  0.20000002701E+02 0.  0.
        -12    1    1    2    0    0  0.30783506086E+02 -0.20522503484E+02  0.22689773605E+02  0.43400728363E+02  0.00000000000E+00 0.  1.
         11    1    3    3    0    0 -0.24066032278E+01 -0.32487517176E+00 -0.88493300326E+01  0.91764876320E+01  0.51100000000E-03 0.  1.
        -11    1    3    3    0    0 -0.17455247249E+02  0.15325835490E+02 -0.57162566837E+01  0.23921590263E+02  0.51100000000E-03 0. -1.
        -12    1    3    3    0    0 -0.10921655609E+02  0.55215431660E+01 -0.81241868891E+01  0.14689193742E+02  0.00000000000E+00 0.  1.
</event>
<event>
 7    1  0.2497395E-009  0.4778727E+02  0.7816164E-02  0.1312668E+00
        -11   -1    0    0    0    0  0.00000000000E+00  0.00000000000E+00  0.45593999997E+02  0.45594000000E+02  0.51100000000E-03 0.  1.
         11   -1    0    0    0    0 -0.00000000000E+00 -0.00000000000E+00 -0.45593999997E+02  0.45594000000E+02  0.51100000000E-03 0. -1.
    9900012    2    1    2    0    0 -0.37308624379E+01  0.29597142285E+02 -0.31523217931E+02  0.47787269192E+02  0.19999991553E+02 0.  0.
        -12    1    1    2    0    0  0.37308624379E+01 -0.29597142285E+02  0.31523217931E+02  0.43400730808E+02  0.00000000000E+00 0.  1.
         11    1    3    3    0    0 -0.56884798661E+01  0.13675412875E+02 -0.20667925113E+02  0.25427128214E+02  0.51100000000E-03 0. -1.
        -11    1    3    3    0    0  0.24632058419E+01  0.12166809736E+01  0.15149480416E+01  0.31373178737E+01  0.51100000000E-03 0.  1.
         12    1    3    3    0    0 -0.50558841375E+00  0.14705048437E+02 -0.12370240860E+02  0.19222823104E+02  0.00000000000E+00 0. -1.
</event>
<event>
 7    1  0.2497395E-009  0.4778727E+02  0.7816164E-02  0.1312668E+00
        -11   -1    0    0    0    0  0.00000000000E+00  0.00000000000E+00  0.45593999997E+02  0.45594000000E+02  0.51100000000E-03 0.  1.
         11   -1    0    0    0    0 -0.00000000000E+00 -0.00000000000E+00 -0.45593999997E+02  0.45594000000E+02  0.51100000000E-03 0. -1.
    9900012    2    1    2    0    0  0.32409854879E+02  0.14232151084E+02 -0.25113152997E+02  0.47787271076E+02  0.20000000142E+02 0.  0.
        -12    1    1    2    0    0 -0.32409854879E+02 -0.14232151084E+02  0.25113152997E+02  0.43400728924E+02  0.00000000000E+00 0.  1.
         11    1    3    3    0    0  0.51098399715E+01  0.15717954876E+01 -0.45071454155E+01  0.69925221234E+01  0.51100000000E-03 0. -1.
        -11    1    3    3    0    0  0.49071732997E+01 -0.22154784003E+00 -0.12950111205E+02  0.13850444531E+02  0.51100000000E-03 0.  1.
        -12    1    3    3    0    0  0.22392841608E+02  0.12881903436E+02 -0.76558963766E+01  0.26944304421E+02  0.00000000000E+00 0.  1.
</event>
<event>
 7    1  0.2497395E-009  0.4778727E+02  0.7816164E-02  0.1312668E+00
        -11   -1    0    0    0    0  0.00000000000E+00  0.00000000000E+00  0.45593999997E+02  0.45594000000E+02  0.51100000000E-03 0.  1.
         11   -1    0    0    0    0 -0.00000000000E+00 -0.00000000000E+00 -0.45593999997E+02  0.45594000000E+02  0.51100000000E-03 0. -1.
    9900012    2    1    2    0    0  0.98754646678E+01  0.12155832705E+02 -0.40476342067E+02  0.47787270302E+02  0.19999996615E+02 0.  0.
        -12    1    1    2    0    0 -0.98754646678E+01 -0.12155832705E+02  0.40476342067E+02  0.43400729698E+02  0.00000000000E+00 0.  1.
         11    1    3    3    0    0 -0.82612909616E+00  0.95349558356E+01 -0.16345529234E+02  0.18941335704E+02  0.51100000000E-03 0. -1.
        -11    1    3    3    0    0  0.71346192331E+01 -0.31889906494E+01 -0.18210966904E+02  0.19816956598E+02  0.51100000000E-03 0.  1.
         12    1    3    3    0    0  0.35669745309E+01  0.58098675192E+01 -0.59198459295E+01  0.90289779999E+01  0.00000000000E+00 0. -1.
</event>
<event>
 7    1  0.2497395E-009  0.4778727E+02  0.7816164E-02  0.1312668E+00
        -11   -1    0    0    0    0  0.00000000000E+00  0.00000000000E+00  0.45593999997E+02  0.45594000000E+02  0.51100000000E-03 0.  1.
         11   -1    0    0    0    0 -0.00000000000E+00 -0.00000000000E+00 -0.45593999997E+02  0.45594000000E+02  0.51100000000E-03 0. -1.
    9900012    2    1    2    0    0  0.33591600744E+02 -0.11470761491E+02 -0.24972967669E+02  0.47787272772E+02  0.20000007876E+02 0.  0.
        -12    1    1    2    0    0 -0.33591600744E+02  0.11470761491E+02  0.24972967669E+02  0.43400727228E+02  0.00000000000E+00 0.  1.
         11    1    3    3    0    0 -0.60123008188E+00  0.28525110925E+01 -0.17695658926E+01  0.34102288565E+01  0.51100000000E-03 0. -1.
        -11    1    3    3    0    0  0.28031149811E+02 -0.90586557090E+01 -0.20267493218E+02  0.35757179483E+02  0.51100000000E-03 0.  1.
        -12    1    3    3    0    0  0.61616810145E+01 -0.52646168745E+01 -0.29359085586E+01  0.86198644319E+01  0.00000000000E+00 0.  1.
</event>
<event>
 7    1  0.2497395E-009  0.4778727E+02  0.7816164E-02  0.1312668E+00
        -11   -1    0    0    0    0  0.00000000000E+00  0.00000000000E+00  0.45593999997E+02  0.45594000000E+02  0.51100000000E-03 0.  1.
         11   -1    0    0    0    0 -0.00000000000E+00 -0.00000000000E+00 -0.45593999997E+02  0.45594000000E+02  0.51100000000E-03 0. -1.
    9900012    2    1    2    0    0 -0.22052668054E+02 -0.73248213551E+01 -0.36655831675E+02  0.47787272219E+02  0.20000005354E+02 0.  0.
        -12    1    1    2    0    0  0.22052668054E+02  0.73248213551E+01  0.36655831675E+02  0.43400727781E+02  0.00000000000E+00 0.  1.
         11    1    3    3    0    0 -0.14561708018E+02  0.54506441823E+01 -0.16960691689E+02  0.23009083538E+02  0.51100000000E-03 0.  1.
        -11    1    3    3    0    0 -0.50866159767E+01 -0.98744501223E+01 -0.16176210969E+02  0.19622645818E+02  0.51100000000E-03 0. -1.
        -12    1    3    3    0    0 -0.24043440590E+01 -0.29010154151E+01 -0.35189290162E+01  0.51555428632E+01  0.00000000000E+00 0.  1.
</event>
<event>
 7    1  0.2497395E-009  0.4778728E+02  0.7816164E-02  0.1312668E+00
        -11   -1    0    0    0    0  0.00000000000E+00  0.00000000000E+00  0.45593999997E+02  0.45594000000E+02  0.51100000000E-03 0.  1.
         11   -1    0    0    0    0 -0.00000000000E+00 -0.00000000000E+00 -0.45593999997E+02  0.45594000000E+02  0.51100000000E-03 0. -1.
    9900012    2    1    2    0    0  0.30130740596E+02 -0.20860294190E+02 -0.23251008409E+02  0.47787276566E+02  0.20000025176E+02 0.  0.
        -12    1    1    2    0    0 -0.30130740596E+02  0.20860294190E+02  0.23251008409E+02  0.43400723434E+02  0.00000000000E+00 0.  1.
         11    1    3    3    0    0  0.81643852775E-01 -0.64519430809E+01  0.63511152970E+00  0.64836411186E+01  0.51100000000E-03 0. -1.
        -11    1    3    3    0    0  0.12050511639E+02 -0.35100417947E+01 -0.10512908676E+02  0.16372430280E+02  0.51100000000E-03 0.  1.
         12    1    3    3    0    0  0.17998585104E+02 -0.10898309315E+02 -0.13373211262E+02  0.24931205168E+02  0.00000000000E+00 0. -1.
</event>
<event>
 7    1  0.2497395E-009  0.4778726E+02  0.7816164E-02  0.1312668E+00
        -11   -1    0    0    0    0  0.00000000000E+00  0.00000000000E+00  0.45593999997E+02  0.45594000000E+02  0.51100000000E-03 0.  1.
         11   -1    0    0    0    0 -0.00000000000E+00 -0.00000000000E+00 -0.45593999997E+02  0.45594000000E+02  0.51100000000E-03 0. -1.
    9900012    2    1    2    0    0 -0.11525894721E+02  0.37649550387E+02 -0.18256210055E+02  0.47787261538E+02  0.19999956657E+02 0.  0.
        -12    1    1    2    0    0  0.11525894721E+02 -0.37649550387E+02  0.18256210055E+02  0.43400738462E+02  0.00000000000E+00 0.  1.
         11    1    3    3    0    0 -0.12444082998E+02  0.31199095957E+02 -0.14170589807E+02  0.36456061305E+02  0.51100000000E-03 0. -1.
        -11    1    3    3    0    0  0.25646772726E+01  0.20912270886E+01 -0.55370688412E+01  0.64505760876E+01  0.51100000000E-03 0.  1.
         12    1    3    3    0    0 -0.16464889960E+01  0.43592273414E+01  0.14514485929E+01  0.48806241451E+01  0.00000000000E+00 0. -1.
</event>
<event>
 7    1  0.2497395E-009  0.4778726E+02  0.7816164E-02  0.1312668E+00
        -11   -1    0    0    0    0  0.00000000000E+00  0.00000000000E+00  0.45593999997E+02  0.45594000000E+02  0.51100000000E-03 0. -1.
         11   -1    0    0    0    0 -0.00000000000E+00 -0.00000000000E+00 -0.45593999997E+02  0.45594000000E+02  0.51100000000E-03 0.  1.
    9900012    2    1    2    0    0  0.26078731675E+02 -0.31638208305E+02  0.14231930895E+02  0.47787258905E+02  0.19999944653E+02 0.  0.
        -12    1    1    2    0    0 -0.26078731675E+02  0.31638208305E+02 -0.14231930895E+02  0.43400741095E+02  0.00000000000E+00 0.  1.
         11    1    3    3    0    0  0.24088854179E+02 -0.29113506779E+02  0.53697969722E+01  0.38166790439E+02  0.51100000000E-03 0. -1.
        -11    1    3    3    0    0  0.23745610825E+01 -0.21468992845E+01  0.74346271384E+01  0.80945288819E+01  0.51100000000E-03 0.  1.
         12    1    3    3    0    0 -0.38468358627E+00 -0.37780224189E+00  0.14275067846E+01  0.15259395845E+01  0.00000000000E+00 0. -1.
</event>
<event>
 7    1  0.2497395E-009  0.4778727E+02  0.7816164E-02  0.1312668E+00
        -11   -1    0    0    0    0  0.00000000000E+00  0.00000000000E+00  0.45593999997E+02  0.45594000000E+02  0.51100000000E-03 0.  1.
         11   -1    0    0    0    0 -0.00000000000E+00 -0.00000000000E+00 -0.45593999997E+02  0.45594000000E+02  0.51100000000E-03 0. -1.
    9900012    2    1    2    0    0 -0.20075668399E+02 -0.14751481994E+02 -0.35538493160E+02  0.47787272140E+02  0.20000004997E+02 0.  0.
        -12    1    1    2    0    0  0.20075668399E+02  0.14751481994E+02  0.35538493160E+02  0.43400727860E+02  0.00000000000E+00 0.  1.
         11    1    3    3    0    0 -0.25567961586E+01 -0.10791705343E+02 -0.98161509342E+01  0.14810635713E+02  0.51100000000E-03 0.  1.
        -11    1    3    3    0    0 -0.18877376223E+02 -0.34853869322E+01 -0.23936536845E+02  0.30683237305E+02  0.51100000000E-03 0. -1.
         12    1    3    3    0    0  0.13585039827E+01 -0.47438971864E+00 -0.17858053803E+01  0.22933991219E+01  0.00000000000E+00 0. -1.
</event>
<event>
 7    1  0.2497395E-009  0.4778727E+02  0.7816164E-02  0.1312668E+00
        -11   -1    0    0    0    0  0.00000000000E+00  0.00000000000E+00  0.45593999997E+02  0.45594000000E+02  0.51100000000E-03 0.  1.
         11   -1    0    0    0    0 -0.00000000000E+00 -0.00000000000E+00 -0.45593999997E+02  0.45594000000E+02  0.51100000000E-03 0. -1.
    9900012    2    1    2    0    0 -0.13789033160E+02  0.38837095839E+02 -0.13607571692E+02  0.47787268945E+02  0.19999990430E+02 0.  0.
        -12    1    1    2    0    0  0.13789033160E+02 -0.38837095839E+02  0.13607571692E+02  0.43400731055E+02  0.00000000000E+00 0.  1.
         11    1    3    3    0    0 -0.10724254404E+02  0.29162105635E+02 -0.92513637109E+01  0.32419527578E+02  0.51100000000E-03 0. -1.
        -11    1    3    3    0    0  0.18608044060E+01  0.67042051411E+01  0.15447712751E+01  0.71270806201E+01  0.51100000000E-03 0.  1.
        -12    1    3    3    0    0 -0.49255831624E+01  0.29707850631E+01 -0.59009792558E+01  0.82406607477E+01  0.00000000000E+00 0.  1.
</event>
<event>
 7    1  0.2497395E-009  0.4778727E+02  0.7816164E-02  0.1312668E+00
        -11   -1    0    0    0    0  0.00000000000E+00  0.00000000000E+00  0.45593999997E+02  0.45594000000E+02  0.51100000000E-03 0.  1.
         11   -1    0    0    0    0 -0.00000000000E+00 -0.00000000000E+00 -0.45593999997E+02  0.45594000000E+02  0.51100000000E-03 0. -1.
    9900012    2    1    2    0    0  0.34294293871E+02  0.67186175857E+01 -0.25736837834E+02  0.47787271480E+02  0.20000001985E+02 0.  0.
        -12    1    1    2    0    0 -0.34294293871E+02 -0.67186175857E+01  0.25736837834E+02  0.43400728520E+02  0.00000000000E+00 0.  1.
         11    1    3    3    0    0  0.26923580835E+02  0.94600254501E+01 -0.16462801124E+02  0.32945335142E+02  0.51100000000E-03 0. -1.
        -11    1    3    3    0    0  0.73062503387E+01 -0.52625199353E+01 -0.65838052142E+01  0.11154456573E+02  0.51100000000E-03 0.  1.
        -12    1    3    3    0    0  0.64462697362E-01  0.25211120709E+01 -0.26902314965E+01  0.36874797651E+01  0.00000000000E+00 0.  1.
</event>
<event>
 7    1  0.2497395E-009  0.4778727E+02  0.7816164E-02  0.1312668E+00
        -11   -1    0    0    0    0  0.00000000000E+00  0.00000000000E+00  0.45593999997E+02  0.45594000000E+02  0.51100000000E-03 0. -1.
         11   -1    0    0    0    0 -0.00000000000E+00 -0.00000000000E+00 -0.45593999997E+02  0.45594000000E+02  0.51100000000E-03 0.  1.
    9900012    2    1    2    0    0 -0.28143977716E+02 -0.26884059594E+02 -0.19203834209E+02  0.47787269703E+02  0.19999993886E+02 0.  0.
        -12    1    1    2    0    0  0.28143977716E+02  0.26884059594E+02  0.19203834209E+02  0.43400730297E+02  0.00000000000E+00 0.  1.
         11    1    3    3    0    0 -0.11576046192E+02 -0.90345141646E+01 -0.10596040763E+01  0.14722433654E+02  0.51100000000E-03 0. -1.
        -11    1    3    3    0    0 -0.96981751497E+01 -0.15661245418E+02 -0.18142494477E+02  0.25854966939E+02  0.51100000000E-03 0.  1.
        -12    1    3    3    0    0 -0.68697563746E+01 -0.21883000119E+01 -0.17356549496E-02  0.72098691112E+01  0.00000000000E+00 0.  1.
</event>
<event>
 7    1  0.2497395E-009  0.4778727E+02  0.7816164E-02  0.1312668E+00
        -11   -1    0    0    0    0  0.00000000000E+00  0.00000000000E+00  0.45593999997E+02  0.45594000000E+02  0.51100000000E-03 0. -1.
         11   -1    0    0    0    0 -0.00000000000E+00 -0.00000000000E+00 -0.45593999997E+02  0.45594000000E+02  0.51100000000E-03 0.  1.
    9900012    2    1    2    0    0  0.22698772670E+02  0.37719623049E+01  0.36798930178E+02  0.47787271405E+02  0.20000001645E+02 0.  0.
        -12    1    1    2    0    0 -0.22698772670E+02 -0.37719623049E+01 -0.36798930178E+02  0.43400728595E+02  0.00000000000E+00 0.  1.
         11    1    3    3    0    0  0.85376572357E+01  0.37802031069E+01  0.27891809114E+02  0.29413169542E+02  0.51100000000E-03 0. -1.
        -11    1    3    3    0    0  0.11171825027E+02  0.31978323656E+01  0.57033390978E+01  0.12944646902E+02  0.51100000000E-03 0.  1.
        -12    1    3    3    0    0  0.29892904067E+01 -0.32060731677E+01  0.32037819657E+01  0.54294549612E+01  0.00000000000E+00 0.  1.
</event>
<event>
 7    1  0.2497395E-009  0.4778727E+02  0.7816164E-02  0.1312668E+00
        -11   -1    0    0    0    0  0.00000000000E+00  0.00000000000E+00  0.45593999997E+02  0.45594000000E+02  0.51100000000E-03 0. -1.
         11   -1    0    0    0    0 -0.00000000000E+00 -0.00000000000E+00 -0.45593999997E+02  0.45594000000E+02  0.51100000000E-03 0.  1.
    9900012    2    1    2    0    0  0.12049003464E+02  0.49074794878E+01  0.41404847641E+02  0.47787271348E+02  0.20000001383E+02 0.  0.
        -12    1    1    2    0    0 -0.12049003464E+02 -0.49074794878E+01 -0.41404847641E+02  0.43400728652E+02  0.00000000000E+00 0.  1.
         11    1    3    3    0    0  0.13366819473E+02  0.75345083147E+01  0.22854747005E+02  0.27527806656E+02  0.51100000000E-03 0. -1.
        -11    1    3    3    0    0 -0.25869871521E+01  0.16853184911E+01  0.11425057364E+02  0.11834894886E+02  0.51100000000E-03 0.  1.
         12    1    3    3    0    0  0.12691711437E+01 -0.43123473180E+01  0.71250432723E+01  0.84245698060E+01  0.00000000000E+00 0. -1.
</event>
<event>
 7    1  0.2497395E-009  0.4778727E+02  0.7816164E-02  0.1312668E+00
        -11   -1    0    0    0    0  0.00000000000E+00  0.00000000000E+00  0.45593999997E+02  0.45594000000E+02  0.51100000000E-03 0.  1.
         11   -1    0    0    0    0 -0.00000000000E+00 -0.00000000000E+00 -0.45593999997E+02  0.45594000000E+02  0.51100000000E-03 0. -1.
    9900012    2    1    2    0    0  0.12287417769E+02  0.99989904588E+01 -0.40406222505E+02  0.47787271173E+02  0.20000000584E+02 0.  0.
        -12    1    1    2    0    0 -0.12287417769E+02 -0.99989904588E+01  0.40406222505E+02  0.43400728827E+02  0.00000000000E+00 0.  1.
         11    1    3    3    0    0  0.56790846670E+01  0.11920728437E+02 -0.26958033162E+02  0.30018183178E+02  0.51100000000E-03 0. -1.
        -11    1    3    3    0    0  0.87345377017E+01 -0.27916540193E+01 -0.95168471568E+01  0.13215742926E+02  0.51100000000E-03 0.  1.
        -12    1    3    3    0    0 -0.21262046000E+01  0.86991604137E+00 -0.39313421867E+01  0.45533450681E+01  0.00000000000E+00 0.  1.
</event>
<event>
 7    1  0.2497395E-009  0.4778727E+02  0.7816164E-02  0.1312668E+00
        -11   -1    0    0    0    0  0.00000000000E+00  0.00000000000E+00  0.45593999997E+02  0.45594000000E+02  0.51100000000E-03 0. -1.
         11   -1    0    0    0    0 -0.00000000000E+00 -0.00000000000E+00 -0.45593999997E+02  0.45594000000E+02  0.51100000000E-03 0.  1.
    9900012    2    1    2    0    0  0.93265170118E+01 -0.19196428131E+02  0.37790693441E+02  0.47787270936E+02  0.19999999504E+02 0.  0.
        -12    1    1    2    0    0 -0.93265170118E+01  0.19196428131E+02 -0.37790693441E+02  0.43400729064E+02  0.00000000000E+00 0.  1.
         11    1    3    3    0    0  0.76282830078E+01 -0.10142586710E+02  0.21098362233E+02  0.24621203382E+02  0.51100000000E-03 0. -1.
        -11    1    3    3    0    0 -0.34779823415E+01 -0.89302422187E+01  0.60567010104E+01  0.11337072578E+02  0.51100000000E-03 0.  1.
        -12    1    3    3    0    0  0.51762163454E+01 -0.12359920161E+00  0.10635630198E+02  0.11828994975E+02  0.00000000000E+00 0.  1.
</event>
<event>
 7    1  0.2497395E-009  0.4778727E+02  0.7816164E-02  0.1312668E+00
        -11   -1    0    0    0    0  0.00000000000E+00  0.00000000000E+00  0.45593999997E+02  0.45594000000E+02  0.51100000000E-03 0.  1.
         11   -1    0    0    0    0 -0.00000000000E+00 -0.00000000000E+00 -0.45593999997E+02  0.45594000000E+02  0.51100000000E-03 0. -1.
    9900012    2    1    2    0    0  0.29205388294E+02 -0.44061215276E+01 -0.31800231497E+02  0.47787270334E+02  0.19999996760E+02 0.  0.
        -12    1    1    2    0    0 -0.29205388294E+02  0.44061215276E+01  0.31800231497E+02  0.43400729666E+02  0.00000000000E+00 0.  1.
         11    1    3    3    0    0  0.10892036307E+02  0.15336031745E+01 -0.23737546966E+02  0.26162177467E+02  0.51100000000E-03 0. -1.
        -11    1    3    3    0    0  0.83209507550E+01 -0.14181976588E+01 -0.81775189801E+00  0.84804613373E+01  0.51100000000E-03 0.  1.
        -12    1    3    3    0    0  0.99924012321E+01 -0.45215270433E+01 -0.72449326331E+01  0.13144631529E+02  0.00000000000E+00 0.  1.
</event>
<event>
 7    1  0.2497395E-009  0.4778726E+02  0.7816164E-02  0.1312668E+00
        -11   -1    0    0    0    0  0.00000000000E+00  0.00000000000E+00  0.45593999997E+02  0.45594000000E+02  0.51100000000E-03 0.  1.
         11   -1    0    0    0    0 -0.00000000000E+00 -0.00000000000E+00 -0.45593999997E+02  0.45594000000E+02  0.51100000000E-03 0. -1.
    9900012    2    1    2    0    0 -0.27639232680E+02  0.31004110988E+02  0.12587397252E+02  0.47787255181E+02  0.19999927672E+02 0.  0.
        -12    1    1    2    0    0  0.27639232680E+02 -0.31004110988E+02 -0.12587397252E+02  0.43400744819E+02  0.00000000000E+00 0.  1.
         11    1    3    3    0    0 -0.81255835247E+01  0.22040692372E+02  0.98239599964E+01  0.25462274410E+02  0.51100000000E-03 0. -1.
        -11    1    3    3    0    0 -0.10607846838E+02  0.18951928806E+01  0.16377084717E+01  0.10899553197E+02  0.51100000000E-03 0.  1.
         12    1    3    3    0    0 -0.89058023168E+01  0.70682257352E+01  0.11257287841E+01  0.11425427574E+02  0.00000000000E+00 0. -1.
</event>
<event>
 7    1  0.2497395E-009  0.4778728E+02  0.7816164E-02  0.1312668E+00
        -11   -1    0    0    0    0  0.00000000000E+00  0.00000000000E+00  0.45593999997E+02  0.45594000000E+02  0.51100000000E-03 0.  1.
         11   -1    0    0    0    0 -0.00000000000E+00 -0.00000000000E+00 -0.45593999997E+02  0.45594000000E+02  0.51100000000E-03 0. -1.
    9900012    2    1    2    0    0 -0.26857786636E+02  0.27241327730E+02 -0.20498590196E+02  0.47787276049E+02  0.20000022817E+02 0.  0.
        -12    1    1    2    0    0  0.26857786636E+02 -0.27241327730E+02  0.20498590196E+02  0.43400723951E+02  0.00000000000E+00 0.  1.
         11    1    3    3    0    0  0.25754884338E+00  0.25070598688E+01 -0.74389498522E+01  0.78542762720E+01  0.51100000000E-03 0. -1.
        -11    1    3    3    0    0 -0.94621643039E+00  0.40597617435E+01 -0.28683525092E+01  0.50600827390E+01  0.51100000000E-03 0.  1.
         12    1    3    3    0    0 -0.26169119049E+02  0.20674506117E+02 -0.10191287835E+02  0.34872917038E+02  0.00000000000E+00 0. -1.
</event>
<event>
 7    1  0.2497395E-009  0.4778727E+02  0.7816164E-02  0.1312668E+00
        -11   -1    0    0    0    0  0.00000000000E+00  0.00000000000E+00  0.45593999997E+02  0.45594000000E+02  0.51100000000E-03 0.  1.
         11   -1    0    0    0    0 -0.00000000000E+00 -0.00000000000E+00 -0.45593999997E+02  0.45594000000E+02  0.51100000000E-03 0. -1.
    9900012    2    1    2    0    0  0.34958533896E+02 -0.24718969525E+02  0.71061197825E+01  0.47787268613E+02  0.19999988914E+02 0.  0.
        -12    1    1    2    0    0 -0.34958533896E+02  0.24718969525E+02 -0.71061197825E+01  0.43400731387E+02  0.00000000000E+00 0.  1.
         11    1    3    3    0    0  0.48182553243E+01 -0.10066562563E+02 -0.42540507192E+01  0.11943542773E+02  0.51100000000E-03 0. -1.
        -11    1    3    3    0    0  0.13095624725E+01  0.66077608693E-01  0.15270507670E+01  0.20127603995E+01  0.51100000000E-03 0.  1.
         12    1    3    3    0    0  0.28830716100E+02 -0.14718484571E+02  0.98331197347E+01  0.33830965440E+02  0.00000000000E+00 0. -1.
</event>
<event>
 7    1  0.2497395E-009  0.4778727E+02  0.7816164E-02  0.1312668E+00
        -11   -1    0    0    0    0  0.00000000000E+00  0.00000000000E+00  0.45593999997E+02  0.45594000000E+02  0.51100000000E-03 0. -1.
         11   -1    0    0    0    0 -0.00000000000E+00 -0.00000000000E+00 -0.45593999997E+02  0.45594000000E+02  0.51100000000E-03 0.  1.
    9900012    2    1    2    0    0  0.23887155488E+02  0.15612025541E+02  0.32700026170E+02  0.47787271316E+02  0.20000001236E+02 0.  0.
        -12    1    1    2    0    0 -0.23887155488E+02 -0.15612025541E+02 -0.32700026170E+02  0.43400728684E+02  0.00000000000E+00 0.  1.
         11    1    3    3    0    0  0.20166866052E+02  0.10680557179E+02  0.26256514049E+02  0.34787660431E+02  0.51100000000E-03 0. -1.
        -11    1    3    3    0    0  0.30526458428E+01  0.42179730388E+01 -0.11593333038E+01  0.53342288259E+01  0.51100000000E-03 0.  1.
        -12    1    3    3    0    0  0.66764359388E+00  0.71349532271E+00  0.76028454255E+01  0.76653820588E+01  0.00000000000E+00 0.  1.
</event>
<event>
 7    1  0.2497395E-009  0.4778727E+02  0.7816164E-02  0.1312668E+00
        -11   -1    0    0    0    0  0.00000000000E+00  0.00000000000E+00  0.45593999997E+02  0.45594000000E+02  0.51100000000E-03 0.  1.
         11   -1    0    0    0    0 -0.00000000000E+00 -0.00000000000E+00 -0.45593999997E+02  0.45594000000E+02  0.51100000000E-03 0. -1.
    9900012    2    1    2    0    0  0.27917668686E+02 -0.26619380785E+02 -0.19890602347E+02  0.47787265905E+02  0.19999976569E+02 0.  0.
        -12    1    1    2    0    0 -0.27917668686E+02  0.26619380785E+02  0.19890602347E+02  0.43400734095E+02  0.00000000000E+00 0.  1.
         11    1    3    3    0    0  0.12191732967E+02 -0.16249624885E+02 -0.19903152832E+02  0.28439833940E+02  0.51100000000E-03 0. -1.
        -11    1    3    3    0    0  0.84670012491E+01 -0.73944644860E+01  0.15664860015E+01  0.11349982107E+02  0.51100000000E-03 0.  1.
         12    1    3    3    0    0  0.72589344699E+01 -0.29752914133E+01 -0.15539355174E+01  0.79974498576E+01  0.00000000000E+00 0. -1.
</event>
<event>
 7    1  0.2497395E-009  0.4778727E+02  0.7816164E-02  0.1312668E+00
        -11   -1    0    0    0    0  0.00000000000E+00  0.00000000000E+00  0.45593999997E+02  0.45594000000E+02  0.51100000000E-03 0.  1.
         11   -1    0    0    0    0 -0.00000000000E+00 -0.00000000000E+00 -0.45593999997E+02  0.45594000000E+02  0.51100000000E-03 0. -1.
    9900012    2    1    2    0    0  0.11688496469E+02  0.28613890391E+02 -0.30467159293E+02  0.47787268804E+02  0.19999989784E+02 0.  0.
        -12    1    1    2    0    0 -0.11688496469E+02 -0.28613890391E+02  0.30467159293E+02  0.43400731196E+02  0.00000000000E+00 0.  1.
         11    1    3    3    0    0  0.25107681062E+01  0.29106290631E+01  0.14993562019E+01  0.41259892520E+01  0.51100000000E-03 0.  1.
        -11    1    3    3    0    0  0.11714900650E+02  0.23155218008E+02 -0.29560370540E+02  0.39334698740E+02  0.51100000000E-03 0. -1.
        -12    1    3    3    0    0 -0.25371722879E+01  0.25480433200E+01 -0.24061449544E+01  0.43265808117E+01  0.00000000000E+00 0.  1.
</event>
<event>
 7    1  0.2497395E-009  0.4778727E+02  0.7816164E-02  0.1312668E+00
        -11   -1    0    0    0    0  0.00000000000E+00  0.00000000000E+00  0.45593999997E+02  0.45594000000E+02  0.51100000000E-03 0. -1.
         11   -1    0    0    0    0 -0.00000000000E+00 -0.00000000000E+00 -0.45593999997E+02  0.45594000000E+02  0.51100000000E-03 0.  1.
    9900012    2    1    2    0    0 -0.19156718305E+02  0.37971841120E+02  0.86476962363E+01  0.47787271614E+02  0.20000002595E+02 0.  0.
        -12    1    1    2    0    0  0.19156718305E+02 -0.37971841120E+02 -0.86476962363E+01  0.43400728386E+02  0.00000000000E+00 0.  1.
         11    1    3    3    0    0 -0.29753037908E+01  0.90631151106E+01  0.10228045582E+02  0.13985900216E+02  0.51100000000E-03 0. -1.
        -11    1    3    3    0    0 -0.73279349990E+01  0.14497964009E+02 -0.39633665703E+01  0.16721180180E+02  0.51100000000E-03 0.  1.
        -12    1    3    3    0    0 -0.88534795153E+01  0.14410762000E+02  0.23830172242E+01  0.17080191218E+02  0.00000000000E+00 0.  1.
</event>
<event>
 7    1  0.2497395E-009  0.4778727E+02  0.7816164E-02  0.1312668E+00
        -11   -1    0    0    0    0  0.00000000000E+00  0.00000000000E+00  0.45593999997E+02  0.45594000000E+02  0.51100000000E-03 0. -1.
         11   -1    0    0    0    0 -0.00000000000E+00 -0.00000000000E+00 -0.45593999997E+02  0.45594000000E+02  0.51100000000E-03 0.  1.
    9900012    2    1    2    0    0 -0.21153181620E+02  0.34267800772E+02  0.16182831868E+02  0.47787270632E+02  0.19999998121E+02 0.  0.
        -12    1    1    2    0    0  0.21153181620E+02 -0.34267800772E+02 -0.16182831868E+02  0.43400729368E+02  0.00000000000E+00 0.  1.
         11    1    3    3    0    0 -0.41278227511E+01  0.17238670912E+02  0.25963282335E+01  0.17915122552E+02  0.51100000000E-03 0. -1.
        -11    1    3    3    0    0 -0.54500408210E+01  0.80402676073E+01  0.11524882865E+02  0.15072218598E+02  0.51100000000E-03 0.  1.
        -12    1    3    3    0    0 -0.11575318048E+02  0.89888622522E+01  0.20616207691E+01  0.14799929483E+02  0.00000000000E+00 0.  1.
</event>
<event>
 7    1  0.2497395E-009  0.4778727E+02  0.7816164E-02  0.1312668E+00
        -11   -1    0    0    0    0  0.00000000000E+00  0.00000000000E+00  0.45593999997E+02  0.45594000000E+02  0.51100000000E-03 0.  1.
         11   -1    0    0    0    0 -0.00000000000E+00 -0.00000000000E+00 -0.45593999997E+02  0.45594000000E+02  0.51100000000E-03 0. -1.
    9900012    2    1    2    0    0  0.38419336882E+02 -0.20124029489E+02  0.16128621653E+01  0.47787270356E+02  0.19999996860E+02 0.  0.
        -12    1    1    2    0    0 -0.38419336882E+02  0.20124029489E+02 -0.16128621653E+01  0.43400729644E+02  0.00000000000E+00 0.  1.
         11    1    3    3    0    0  0.14924646557E+02 -0.56156001810E+01  0.54395596199E+01  0.16848407918E+02  0.51100000000E-03 0.  1.
        -11    1    3    3    0    0  0.12077548613E+02 -0.14682819974E+02 -0.43692573961E+01  0.19507506077E+02  0.51100000000E-03 0. -1.
        -12    1    3    3    0    0  0.11417141711E+02  0.17439066626E+00  0.54255994148E+00  0.11431356361E+02  0.00000000000E+00 0.  1.
</event>
<event>
 7    1  0.2497395E-009  0.4778722E+02  0.7816164E-02  0.1312668E+00
        -11   -1    0    0    0    0  0.00000000000E+00  0.00000000000E+00  0.45593999997E+02  0.45594000000E+02  0.51100000000E-03 0.  1.
         11   -1    0    0    0    0 -0.00000000000E+00 -0.00000000000E+00 -0.45593999997E+02  0.45594000000E+02  0.51100000000E-03 0. -1.
    9900012    2    1    2    0    0  0.22141381528E+02 -0.28393124384E+02 -0.24232567683E+02  0.47787220919E+02  0.19999771459E+02 0.  0.
        -12    1    1    2    0    0 -0.22141381528E+02  0.28393124384E+02  0.24232567683E+02  0.43400779081E+02  0.00000000000E+00 0.  1.
         11    1    3    3    0    0  0.19375653410E+02 -0.29208159992E+02 -0.21682071054E+02  0.41214618288E+02  0.51100000000E-03 0. -1.
        -11    1    3    3    0    0  0.40436098691E+01  0.32121723801E+00 -0.30910292219E+01  0.50998454094E+01  0.51100000000E-03 0.  1.
         12    1    3    3    0    0 -0.12778817508E+01  0.49381836963E+00  0.54053259269E+00  0.14727572220E+01  0.00000000000E+00 0. -1.
</event>
<event>
 7    1  0.2497395E-009  0.4778727E+02  0.7816164E-02  0.1312668E+00
        -11   -1    0    0    0    0  0.00000000000E+00  0.00000000000E+00  0.45593999997E+02  0.45594000000E+02  0.51100000000E-03 0.  1.
         11   -1    0    0    0    0 -0.00000000000E+00 -0.00000000000E+00 -0.45593999997E+02  0.45594000000E+02  0.51100000000E-03 0. -1.
    9900012    2    1    2    0    0  0.10199981944E+02  0.34067164958E+02 -0.24879953067E+02  0.47787269308E+02  0.19999992084E+02 0.  0.
        -12    1    1    2    0    0 -0.10199981944E+02 -0.34067164958E+02  0.24879953067E+02  0.43400730692E+02  0.00000000000E+00 0.  1.
         11    1    3    3    0    0  0.24724135043E+01  0.91321683497E+01  0.13513245144E+01  0.95569558704E+01  0.51100000000E-03 0.  1.
        -11    1    3    3    0    0  0.98978675350E+01  0.18132090426E+02 -0.19998770939E+02  0.28752240335E+02  0.51100000000E-03 0. -1.
         12    1    3    3    0    0 -0.21702990950E+01  0.68029061826E+01 -0.62325066428E+01  0.94780731029E+01  0.00000000000E+00 0. -1.
</event>
<event>
 7    1  0.2497395E-009  0.4778727E+02  0.7816164E-02  0.1312668E+00
        -11   -1    0    0    0    0  0.00000000000E+00  0.00000000000E+00  0.45593999997E+02  0.45594000000E+02  0.51100000000E-03 0.  1.
         11   -1    0    0    0    0 -0.00000000000E+00 -0.00000000000E+00 -0.45593999997E+02  0.45594000000E+02  0.51100000000E-03 0. -1.
    9900012    2    1    2    0    0  0.70519391756E+01 -0.39845836326E+02 -0.15690856542E+02  0.47787268466E+02  0.19999988246E+02 0.  0.
        -12    1    1    2    0    0 -0.70519391756E+01  0.39845836326E+02  0.15690856542E+02  0.43400731534E+02  0.00000000000E+00 0.  1.
         11    1    3    3    0    0  0.25106081199E+01 -0.22026001041E+02 -0.69278288822E+01  0.23225905543E+02  0.51100000000E-03 0. -1.
        -11    1    3    3    0    0  0.45700187093E+00 -0.98195463916E+01 -0.11540056062E+02  0.15159328356E+02  0.51100000000E-03 0.  1.
        -12    1    3    3    0    0  0.40843291848E+01 -0.80002888928E+01  0.27770284022E+01  0.94020345673E+01  0.00000000000E+00 0.  1.
</event>
<event>
 7    1  0.2497395E-009  0.4778729E+02  0.7816164E-02  0.1312668E+00
        -11   -1    0    0    0    0  0.00000000000E+00  0.00000000000E+00  0.45593999997E+02  0.45594000000E+02  0.51100000000E-03 0.  1.
         11   -1    0    0    0    0 -0.00000000000E+00 -0.00000000000E+00 -0.45593999997E+02  0.45594000000E+02  0.51100000000E-03 0. -1.
    9900012    2    1    2    0    0  0.13633675182E+02  0.26428494781E+02 -0.31611383503E+02  0.47787285693E+02  0.20000066789E+02 0.  0.
        -12    1    1    2    0    0 -0.13633675182E+02 -0.26428494781E+02  0.31611383503E+02  0.43400714307E+02  0.00000000000E+00 0.  1.
         11    1    3    3    0    0  0.64358407709E+01  0.13820179304E+02 -0.23117975326E+02  0.27692204424E+02  0.51100000000E-03 0. -1.
        -11    1    3    3    0    0 -0.81301067845E+00  0.33305221980E+01  0.19915648075E+01  0.39648070721E+01  0.51100000000E-03 0.  1.
        -12    1    3    3    0    0  0.80108450898E+01  0.92777932796E+01 -0.10484972984E+02  0.16130274197E+02  0.00000000000E+00 0.  1.
</event>
<event>
 7    1  0.2497395E-009  0.4778727E+02  0.7816164E-02  0.1312668E+00
        -11   -1    0    0    0    0  0.00000000000E+00  0.00000000000E+00  0.45593999997E+02  0.45594000000E+02  0.51100000000E-03 0. -1.
         11   -1    0    0    0    0 -0.00000000000E+00 -0.00000000000E+00 -0.45593999997E+02  0.45594000000E+02  0.51100000000E-03 0.  1.
    9900012    2    1    2    0    0 -0.28473426088E+02  0.22701987183E+02  0.23611581915E+02  0.47787274018E+02  0.20000013559E+02 0.  0.
        -12    1    1    2    0    0  0.28473426088E+02 -0.22701987183E+02 -0.23611581915E+02  0.43400725982E+02  0.00000000000E+00 0.  1.
         11    1    3    3    0    0 -0.20408951120E+02  0.57115604130E+01  0.68681143614E+01  0.22278200181E+02  0.51100000000E-03 0. -1.
        -11    1    3    3    0    0 -0.26371863002E+01  0.10288415642E+02  0.92321309510E+01  0.14072614902E+02  0.51100000000E-03 0.  1.
         12    1    3    3    0    0 -0.54272886678E+01  0.67020111276E+01  0.75113366023E+01  0.11436458936E+02  0.00000000000E+00 0. -1.
</event>
<event>
 7    1  0.2497395E-009  0.4778727E+02  0.7816164E-02  0.1312668E+00
        -11   -1    0    0    0    0  0.00000000000E+00  0.00000000000E+00  0.45593999997E+02  0.45594000000E+02  0.51100000000E-03 0.  1.
         11   -1    0    0    0    0 -0.00000000000E+00 -0.00000000000E+00 -0.45593999997E+02  0.45594000000E+02  0.51100000000E-03 0. -1.
    9900012    2    1    2    0    0  0.29529821109E+02 -0.30784714192E+02 -0.79946527831E+01  0.47787269180E+02  0.19999991500E+02 0.  0.
        -12    1    1    2    0    0 -0.29529821109E+02  0.30784714192E+02  0.79946527831E+01  0.43400730820E+02  0.00000000000E+00 0.  1.
         11    1    3    3    0    0 -0.14040182103E+01 -0.32259859086E+01  0.29388465633E+01  0.45842198465E+01  0.51100000000E-03 0. -1.
        -11    1    3    3    0    0  0.10181079124E+02 -0.84214993753E+01 -0.89984016442E+00  0.13243327997E+02  0.51100000000E-03 0.  1.
         12    1    3    3    0    0  0.20752760195E+02 -0.19137228908E+02 -0.10033659182E+02  0.29959721337E+02  0.00000000000E+00 0. -1.
</event>
<event>
 7    1  0.2497395E-009  0.4778726E+02  0.7816164E-02  0.1312668E+00
        -11   -1    0    0    0    0  0.00000000000E+00  0.00000000000E+00  0.45593999997E+02  0.45594000000E+02  0.51100000000E-03 0.  1.
         11   -1    0    0    0    0 -0.00000000000E+00 -0.00000000000E+00 -0.45593999997E+02  0.45594000000E+02  0.51100000000E-03 0. -1.
    9900012    2    1    2    0    0  0.21419807423E+02  0.33594098005E+01 -0.37596941720E+02  0.47787264857E+02  0.19999971790E+02 0.  0.
        -12    1    1    2    0    0 -0.21419807423E+02 -0.33594098005E+01  0.37596941720E+02  0.43400735143E+02  0.00000000000E+00 0.  1.
         11    1    3    3    0    0  0.94805600160E+01 -0.57990055233E+01 -0.80550948405E+01  0.13725670709E+02  0.51100000000E-03 0. -1.
        -11    1    3    3    0    0  0.33850703085E+01  0.69015928103E+01 -0.17548666727E+02  0.19158454752E+02  0.51100000000E-03 0.  1.
        -12    1    3    3    0    0  0.85541770987E+01  0.22568225134E+01 -0.11993180152E+02  0.14903139396E+02  0.00000000000E+00 0.  1.
</event>
<event>
 7    1  0.2497395E-009  0.4778727E+02  0.7816164E-02  0.1312668E+00
        -11   -1    0    0    0    0  0.00000000000E+00  0.00000000000E+00  0.45593999997E+02  0.45594000000E+02  0.51100000000E-03 0.  1.
         11   -1    0    0    0    0 -0.00000000000E+00 -0.00000000000E+00 -0.45593999997E+02  0.45594000000E+02  0.51100000000E-03 0. -1.
    9900012    2    1    2    0    0 -0.25626647502E+02 -0.21278051446E+01 -0.34962416636E+02  0.47787271966E+02  0.20000004200E+02 0.  0.
        -12    1    1    2    0    0  0.25626647502E+02  0.21278051446E+01  0.34962416636E+02  0.43400728034E+02  0.00000000000E+00 0.  1.
         11    1    3    3    0    0 -0.90582517783E+01 -0.24073752094E+01 -0.17086283468E+02  0.19488162142E+02  0.51100000000E-03 0. -1.
        -11    1    3    3    0    0 -0.39211499940E+01  0.49750723742E+01 -0.57604787976E+00  0.63607070224E+01  0.51100000000E-03 0.  1.
         12    1    3    3    0    0 -0.12647245730E+02 -0.46955023094E+01 -0.17300085288E+02  0.21938402801E+02  0.00000000000E+00 0. -1.
</event>
<event>
 7    1  0.2497395E-009  0.4778726E+02  0.7816164E-02  0.1312668E+00
        -11   -1    0    0    0    0  0.00000000000E+00  0.00000000000E+00  0.45593999997E+02  0.45594000000E+02  0.51100000000E-03 0. -1.
         11   -1    0    0    0    0 -0.00000000000E+00 -0.00000000000E+00 -0.45593999997E+02  0.45594000000E+02  0.51100000000E-03 0.  1.
    9900012    2    1    2    0    0 -0.27106214816E+02 -0.33762233419E+02  0.29980924111E+01  0.47787264462E+02  0.19999969988E+02 0.  0.
        -12    1    1    2    0    0  0.27106214816E+02  0.33762233419E+02 -0.29980924111E+01  0.43400735538E+02  0.00000000000E+00 0.  1.
         11    1    3    3    0    0 -0.24167885348E+02 -0.20340413609E+02 -0.18889661540E+01  0.31644704160E+02  0.51100000000E-03 0. -1.
        -11    1    3    3    0    0 -0.28716404812E+01 -0.97976124392E+01  0.65752827633E+01  0.12143882091E+02  0.51100000000E-03 0.  1.
         12    1    3    3    0    0 -0.66688986873E-01 -0.36242073715E+01 -0.16882241983E+01  0.39986782111E+01  0.00000000000E+00 0. -1.
</event>
<event>
 7    1  0.2497395E-009  0.4778727E+02  0.7816164E-02  0.1312668E+00
        -11   -1    0    0    0    0  0.00000000000E+00  0.00000000000E+00  0.45593999997E+02  0.45594000000E+02  0.51100000000E-03 0.  1.
         11   -1    0    0    0    0 -0.00000000000E+00 -0.00000000000E+00 -0.45593999997E+02  0.45594000000E+02  0.51100000000E-03 0. -1.
    9900012    2    1    2    0    0  0.94149969007E+01 -0.84838339969E+01 -0.41509106198E+02  0.47787268401E+02  0.19999987949E+02 0.  0.
        -12    1    1    2    0    0 -0.94149969007E+01  0.84838339969E+01  0.41509106198E+02  0.43400731599E+02  0.00000000000E+00 0.  1.
         11    1    3    3    0    0  0.10306561643E+02  0.37832548751E+01 -0.23225329284E+02  0.25689572806E+02  0.51100000000E-03 0. -1.
        -11    1    3    3    0    0 -0.11894024387E+01 -0.51615278433E+01 -0.76324787871E+01  0.92903595482E+01  0.51100000000E-03 0.  1.
         12    1    3    3    0    0  0.29783769647E+00 -0.71055610287E+01 -0.10651298127E+02  0.12807336047E+02  0.00000000000E+00 0. -1.
</event>
<event>
 7    1  0.2497395E-009  0.4778727E+02  0.7816164E-02  0.1312668E+00
        -11   -1    0    0    0    0  0.00000000000E+00  0.00000000000E+00  0.45593999997E+02  0.45594000000E+02  0.51100000000E-03 0.  1.
         11   -1    0    0    0    0 -0.00000000000E+00 -0.00000000000E+00 -0.45593999997E+02  0.45594000000E+02  0.51100000000E-03 0. -1.
    9900012    2    1    2    0    0  0.60045021452E+01  0.33042880587E+01 -0.42856165951E+02  0.47787270448E+02  0.19999997283E+02 0.  0.
        -12    1    1    2    0    0 -0.60045021452E+01 -0.33042880587E+01  0.42856165951E+02  0.43400729552E+02  0.00000000000E+00 0.  1.
         11    1    3    3    0    0  0.73429383298E+01  0.70826235916E+01 -0.24621739653E+02  0.26651685951E+02  0.51100000000E-03 0. -1.
        -11    1    3    3    0    0 -0.21156203156E+01 -0.23158210333E+01 -0.19038051292E+02  0.19294721393E+02  0.51100000000E-03 0.  1.
         12    1    3    3    0    0  0.77718413100E+00 -0.14625144996E+01  0.80362499430E+00  0.18408631036E+01  0.00000000000E+00 0. -1.
</event>
<event>
 7    1  0.2497395E-009  0.4778727E+02  0.7816164E-02  0.1312668E+00
        -11   -1    0    0    0    0  0.00000000000E+00  0.00000000000E+00  0.45593999997E+02  0.45594000000E+02  0.51100000000E-03 0.  1.
         11   -1    0    0    0    0 -0.00000000000E+00 -0.00000000000E+00 -0.45593999997E+02  0.45594000000E+02  0.51100000000E-03 0. -1.
    9900012    2    1    2    0    0  0.40181280279E+02 -0.44166486364E+01 -0.15798140172E+02  0.47787270710E+02  0.19999998475E+02 0.  0.
        -12    1    1    2    0    0 -0.40181280279E+02  0.44166486364E+01  0.15798140172E+02  0.43400729290E+02  0.00000000000E+00 0.  1.
         11    1    3    3    0    0  0.20000607501E+02 -0.96908164544E+00  0.12751206963E+01  0.20064629394E+02  0.51100000000E-03 0. -1.
        -11    1    3    3    0    0  0.20375891476E+02 -0.37146618652E+01 -0.14875503281E+02  0.25500122830E+02  0.51100000000E-03 0.  1.
        -12    1    3    3    0    0 -0.19521869839E+00  0.26709487423E+00 -0.21977575870E+01  0.22225184866E+01  0.00000000000E+00 0.  1.
</event>
<event>
 7    1  0.2497395E-009  0.4778727E+02  0.7816164E-02  0.1312668E+00
        -11   -1    0    0    0    0  0.00000000000E+00  0.00000000000E+00  0.45593999997E+02  0.45594000000E+02  0.51100000000E-03 0.  1.
         11   -1    0    0    0    0 -0.00000000000E+00 -0.00000000000E+00 -0.45593999997E+02  0.45594000000E+02  0.51100000000E-03 0. -1.
    9900012    2    1    2    0    0 -0.25140315129E+00  0.22881406764E+02 -0.36878193856E+02  0.47787272344E+02  0.20000005924E+02 0.  0.
        -12    1    1    2    0    0  0.25140315129E+00 -0.22881406764E+02  0.36878193856E+02  0.43400727656E+02  0.00000000000E+00 0.  1.
         11    1    3    3    0    0 -0.35064410569E+01  0.23882363827E+02 -0.32128525160E+02  0.40185875131E+02  0.51100000000E-03 0. -1.
        -11    1    3    3    0    0  0.16815933704E+01  0.60562094819E+00  0.52877830415E+00  0.18639044376E+01  0.51100000000E-03 0.  1.
         12    1    3    3    0    0  0.15734445352E+01 -0.16065780113E+01 -0.52784470000E+01  0.57374927751E+01  0.00000000000E+00 0. -1.
</event>
<event>
 7    1  0.2497395E-009  0.4778727E+02  0.7816164E-02  0.1312668E+00
        -11   -1    0    0    0    0  0.00000000000E+00  0.00000000000E+00  0.45593999997E+02  0.45594000000E+02  0.51100000000E-03 0.  1.
         11   -1    0    0    0    0 -0.00000000000E+00 -0.00000000000E+00 -0.45593999997E+02  0.45594000000E+02  0.51100000000E-03 0. -1.
    9900012    2    1    2    0    0 -0.39593121328E+02  0.10506636050E+02 -0.14339405404E+02  0.47787271839E+02  0.20000003623E+02 0.  0.
        -12    1    1    2    0    0  0.39593121328E+02 -0.10506636050E+02  0.14339405404E+02  0.43400728161E+02  0.00000000000E+00 0.  1.
         11    1    3    3    0    0 -0.59107636749E+01  0.81085878294E+01 -0.68603888357E+01  0.12155297571E+02  0.51100000000E-03 0. -1.
        -11    1    3    3    0    0 -0.26318535598E+02 -0.11465599975E+00 -0.25973290858E+01  0.26446636471E+02  0.51100000000E-03 0.  1.
        -12    1    3    3    0    0 -0.73638220552E+01  0.25127042202E+01 -0.48816874827E+01  0.91853377966E+01  0.00000000000E+00 0.  1.
</event>
<event>
 7    1  0.2497395E-009  0.4778727E+02  0.7816164E-02  0.1312668E+00
        -11   -1    0    0    0    0  0.00000000000E+00  0.00000000000E+00  0.45593999997E+02  0.45594000000E+02  0.51100000000E-03 0. -1.
         11   -1    0    0    0    0 -0.00000000000E+00 -0.00000000000E+00 -0.45593999997E+02  0.45594000000E+02  0.51100000000E-03 0.  1.
    9900012    2    1    2    0    0  0.37126467582E+02 -0.20305084879E+02  0.96411722123E+01  0.47787271104E+02  0.20000000273E+02 0.  0.
        -12    1    1    2    0    0 -0.37126467582E+02  0.20305084879E+02 -0.96411722123E+01  0.43400728896E+02  0.00000000000E+00 0.  1.
         11    1    3    3    0    0  0.28671676050E+02 -0.10359323116E+02  0.28805746283E+01  0.30621533165E+02  0.51100000000E-03 0. -1.
        -11    1    3    3    0    0  0.82109695652E+01 -0.83466417607E+01  0.16731757935E+01  0.11827339827E+02  0.51100000000E-03 0.  1.
         12    1    3    3    0    0  0.24382196683E+00 -0.15991200025E+01  0.50874217905E+01  0.53383981126E+01  0.00000000000E+00 0. -1.
</event>
<event>
 7    1  0.2497395E-009  0.4778728E+02  0.7816164E-02  0.1312668E+00
        -11   -1    0    0    0    0  0.00000000000E+00  0.00000000000E+00  0.45593999997E+02  0.45594000000E+02  0.51100000000E-03 0.  1.
         11   -1    0    0    0    0 -0.00000000000E+00 -0.00000000000E+00 -0.45593999997E+02  0.45594000000E+02  0.51100000000E-03 0. -1.
    9900012    2    1    2    0    0  0.31439220241E+02  0.24588773072E+02 -0.17046713493E+02  0.47787276832E+02  0.20000026390E+02 0.  0.
        -12    1    1    2    0    0 -0.31439220241E+02 -0.24588773072E+02  0.17046713493E+02  0.43400723168E+02  0.00000000000E+00 0.  1.
         11    1    3    3    0    0  0.21087138114E+02  0.24175046092E+02 -0.12863983409E+02  0.34562730170E+02  0.51100000000E-03 0. -1.
        -11    1    3    3    0    0  0.10288931559E+02 -0.14191724872E+01 -0.45746239167E+01  0.11349156243E+02  0.51100000000E-03 0.  1.
        -12    1    3    3    0    0  0.63150567712E-01  0.18328994671E+01  0.39189383236E+00  0.18753904198E+01  0.00000000000E+00 0.  1.
</event>
<event>
 7    1  0.2497395E-009  0.4778724E+02  0.7816164E-02  0.1312668E+00
        -11   -1    0    0    0    0  0.00000000000E+00  0.00000000000E+00  0.45593999997E+02  0.45594000000E+02  0.51100000000E-03 0. -1.
         11   -1    0    0    0    0 -0.00000000000E+00 -0.00000000000E+00 -0.45593999997E+02  0.45594000000E+02  0.51100000000E-03 0.  1.
    9900012    2    1    2    0    0 -0.33594732617E+02  0.26783526416E+02  0.61370154771E+01  0.47787236114E+02  0.19999840739E+02 0.  0.
        -12    1    1    2    0    0  0.33594732617E+02 -0.26783526416E+02 -0.61370154771E+01  0.43400763886E+02  0.00000000000E+00 0.  1.
         11    1    3    3    0    0 -0.22931054707E+02  0.21521498758E+02  0.22558108975E+01  0.31529301639E+02  0.51100000000E-03 0. -1.
        -11    1    3    3    0    0 -0.37616693015E+01  0.38557692017E+01 -0.32036515371E+01  0.62674153766E+01  0.51100000000E-03 0.  1.
         12    1    3    3    0    0 -0.69020086080E+01  0.14062584571E+01  0.70848561167E+01  0.99905190990E+01  0.00000000000E+00 0. -1.
</event>
<event>
 7    1  0.2497395E-009  0.4778727E+02  0.7816164E-02  0.1312668E+00
        -11   -1    0    0    0    0  0.00000000000E+00  0.00000000000E+00  0.45593999997E+02  0.45594000000E+02  0.51100000000E-03 0.  1.
         11   -1    0    0    0    0 -0.00000000000E+00 -0.00000000000E+00 -0.45593999997E+02  0.45594000000E+02  0.51100000000E-03 0. -1.
    9900012    2    1    2    0    0  0.36603700321E+02 -0.16106641076E+01 -0.23263665361E+02  0.47787271411E+02  0.20000001670E+02 0.  0.
        -12    1    1    2    0    0 -0.36603700321E+02  0.16106641076E+01  0.23263665361E+02  0.43400728589E+02  0.00000000000E+00 0.  1.
         11    1    3    3    0    0  0.18051232210E+02 -0.91410031390E+01 -0.12455801443E+02  0.23760301188E+02  0.51100000000E-03 0. -1.
        -11    1    3    3    0    0  0.14466448398E+02  0.59910910698E+01 -0.11729959588E+02  0.19564336269E+02  0.51100000000E-03 0.  1.
        -12    1    3    3    0    0  0.40860197130E+01  0.15392479615E+01  0.92209566978E+00  0.44626339539E+01  0.00000000000E+00 0.  1.
</event>
<event>
 7    1  0.2497395E-009  0.4778727E+02  0.7816164E-02  0.1312668E+00
        -11   -1    0    0    0    0  0.00000000000E+00  0.00000000000E+00  0.45593999997E+02  0.45594000000E+02  0.51100000000E-03 0.  1.
         11   -1    0    0    0    0 -0.00000000000E+00 -0.00000000000E+00 -0.45593999997E+02  0.45594000000E+02  0.51100000000E-03 0. -1.
    9900012    2    1    2    0    0  0.80084413732E+01 -0.31049556787E+02 -0.29247454624E+02  0.47787265998E+02  0.19999976991E+02 0.  0.
        -12    1    1    2    0    0 -0.80084413732E+01  0.31049556787E+02  0.29247454624E+02  0.43400734002E+02  0.00000000000E+00 0.  1.
         11    1    3    3    0    0  0.46744557364E+01 -0.22998181151E+02 -0.29990722502E+02  0.38081626924E+02  0.51100000000E-03 0. -1.
        -11    1    3    3    0    0  0.15750272129E+01 -0.77110211250E+01  0.81709053248E+00  0.79125340259E+01  0.51100000000E-03 0.  1.
         12    1    3    3    0    0  0.17589584239E+01 -0.34035451164E+00 -0.73822654178E-01  0.17931050485E+01  0.00000000000E+00 0. -1.
</event>
<event>
 7    1  0.2497395E-009  0.4778726E+02  0.7816164E-02  0.1312668E+00
        -11   -1    0    0    0    0  0.00000000000E+00  0.00000000000E+00  0.45593999997E+02  0.45594000000E+02  0.51100000000E-03 0.  1.
         11   -1    0    0    0    0 -0.00000000000E+00 -0.00000000000E+00 -0.45593999997E+02  0.45594000000E+02  0.51100000000E-03 0. -1.
    9900012    2    1    2    0    0  0.25597665152E+01  0.31459577356E+02 -0.29788704442E+02  0.47787258942E+02  0.19999944820E+02 0.  0.
        -12    1    1    2    0    0 -0.25597665152E+01 -0.31459577356E+02  0.29788704442E+02  0.43400741058E+02  0.00000000000E+00 0.  1.
         11    1    3    3    0    0  0.31298661942E+01  0.22977813886E+02 -0.15479788852E+02  0.27881891194E+02  0.51100000000E-03 0. -1.
        -11    1    3    3    0    0 -0.34659664369E+01  0.14807505657E+01 -0.62347374532E-01  0.37695401624E+01  0.51100000000E-03 0.  1.
        -12    1    3    3    0    0  0.28958667579E+01  0.70010129045E+01 -0.14246568215E+02  0.16135827586E+02  0.00000000000E+00 0.  1.
</event>
<event>
 7    1  0.2497395E-009  0.4778727E+02  0.7816164E-02  0.1312668E+00
        -11   -1    0    0    0    0  0.00000000000E+00  0.00000000000E+00  0.45593999997E+02  0.45594000000E+02  0.51100000000E-03 0. -1.
         11   -1    0    0    0    0 -0.00000000000E+00 -0.00000000000E+00 -0.45593999997E+02  0.45594000000E+02  0.51100000000E-03 0.  1.
    9900012    2    1    2    0    0 -0.24405145346E+02  0.28587610441E+02  0.21697017846E+02  0.47787272201E+02  0.20000005273E+02 0.  0.
        -12    1    1    2    0    0  0.24405145346E+02 -0.28587610441E+02 -0.21697017846E+02  0.43400727799E+02  0.00000000000E+00 0.  1.
         11    1    3    3    0    0 -0.94890435244E+01  0.15873769703E+02  0.48796418258E+01  0.19126667671E+02  0.51100000000E-03 0. -1.
        -11    1    3    3    0    0 -0.11788696642E+01  0.56716973464E+01  0.10477636458E+02  0.11972416234E+02  0.51100000000E-03 0.  1.
         12    1    3    3    0    0 -0.13737232157E+02  0.70421433922E+01  0.63397395621E+01  0.16688188296E+02  0.00000000000E+00 0. -1.
</event>
<event>
 7    1  0.2497395E-009  0.4778727E+02  0.7816164E-02  0.1312668E+00
        -11   -1    0    0    0    0  0.00000000000E+00  0.00000000000E+00  0.45593999997E+02  0.45594000000E+02  0.51100000000E-03 0.  1.
         11   -1    0    0    0    0 -0.00000000000E+00 -0.00000000000E+00 -0.45593999997E+02  0.45594000000E+02  0.51100000000E-03 0. -1.
    9900012    2    1    2    0    0 -0.84933652161E+01  0.29601633380E+02 -0.30581519715E+02  0.47787270749E+02  0.19999998653E+02 0.  0.
        -12    1    1    2    0    0  0.84933652161E+01 -0.29601633380E+02  0.30581519715E+02  0.43400729251E+02  0.00000000000E+00 0.  1.
         11    1    3    3    0    0 -0.15315480624E+01  0.88161788247E+01 -0.18974880469E+02  0.20978959402E+02  0.51100000000E-03 0. -1.
        -11    1    3    3    0    0 -0.66340154790E+01  0.21730210125E+02 -0.12045920629E+02  0.25716072747E+02  0.51100000000E-03 0.  1.
        -12    1    3    3    0    0 -0.32780167481E+00 -0.94475556998E+00  0.43928138316E+00  0.10922385997E+01  0.00000000000E+00 0.  1.
</event>
<event>
 7    1  0.2497395E-009  0.4778727E+02  0.7816164E-02  0.1312668E+00
        -11   -1    0    0    0    0  0.00000000000E+00  0.00000000000E+00  0.45593999997E+02  0.45594000000E+02  0.51100000000E-03 0.  1.
         11   -1    0    0    0    0 -0.00000000000E+00 -0.00000000000E+00 -0.45593999997E+02  0.45594000000E+02  0.51100000000E-03 0. -1.
    9900012    2    1    2    0    0 -0.39660868778E+01  0.20860364752E+01 -0.43168760278E+02  0.47787271236E+02  0.20000000872E+02 0.  0.
        -12    1    1    2    0    0  0.39660868778E+01 -0.20860364752E+01  0.43168760278E+02  0.43400728764E+02  0.00000000000E+00 0.  1.
         11    1    3    3    0    0 -0.54690759209E+01  0.42568397222E+01 -0.11963396374E+02  0.13825857257E+02  0.51100000000E-03 0. -1.
        -11    1    3    3    0    0 -0.47864129397E+01 -0.28316010007E+01 -0.69819806724E+01  0.89261283560E+01  0.51100000000E-03 0.  1.
         12    1    3    3    0    0  0.62894019828E+01  0.66079775378E+00 -0.24223383232E+02  0.25035285622E+02  0.00000000000E+00 0. -1.
</event>
<event>
 7    1  0.2497395E-009  0.4778728E+02  0.7816164E-02  0.1312668E+00
        -11   -1    0    0    0    0  0.00000000000E+00  0.00000000000E+00  0.45593999997E+02  0.45594000000E+02  0.51100000000E-03 0.  1.
         11   -1    0    0    0    0 -0.00000000000E+00 -0.00000000000E+00 -0.45593999997E+02  0.45594000000E+02  0.51100000000E-03 0. -1.
    9900012    2    1    2    0    0  0.10876634914E+02 -0.21246913032E+02 -0.36247622412E+02  0.47787278451E+02  0.20000033770E+02 0.  0.
        -12    1    1    2    0    0 -0.10876634914E+02  0.21246913032E+02  0.36247622412E+02  0.43400721549E+02  0.00000000000E+00 0.  1.
         11    1    3    3    0    0  0.83647669559E+01 -0.15455076343E+02 -0.30155486210E+02  0.34902464953E+02  0.51100000000E-03 0. -1.
        -11    1    3    3    0    0  0.13362018619E+01  0.20147880013E+01  0.64949892216E+00  0.25033288272E+01  0.51100000000E-03 0.  1.
         12    1    3    3    0    0  0.11756660963E+01 -0.78066246897E+01 -0.67416351244E+01  0.10381484671E+02  0.00000000000E+00 0. -1.
</event>
<event>
 7    1  0.2497395E-009  0.4778727E+02  0.7816164E-02  0.1312668E+00
        -11   -1    0    0    0    0  0.00000000000E+00  0.00000000000E+00  0.45593999997E+02  0.45594000000E+02  0.51100000000E-03 0.  1.
         11   -1    0    0    0    0 -0.00000000000E+00 -0.00000000000E+00 -0.45593999997E+02  0.45594000000E+02  0.51100000000E-03 0. -1.
    9900012    2    1    2    0    0  0.71846244495E+01 -0.41697774509E+02 -0.96591978648E+01  0.47787270388E+02  0.19999997006E+02 0.  0.
        -12    1    1    2    0    0 -0.71846244495E+01  0.41697774509E+02  0.96591978648E+01  0.43400729612E+02  0.00000000000E+00 0.  1.
         11    1    3    3    0    0  0.54693309356E+01 -0.34469578538E+02 -0.13957705168E+02  0.37588335416E+02  0.51100000000E-03 0. -1.
        -11    1    3    3    0    0  0.28200848518E+01 -0.74469958754E+01  0.30755049276E+01  0.85363550160E+01  0.51100000000E-03 0.  1.
         12    1    3    3    0    0 -0.11047913378E+01  0.21879990471E+00  0.12230023761E+01  0.16625799561E+01  0.00000000000E+00 0. -1.
</event>
<event>
 7    1  0.2497395E-009  0.4778727E+02  0.7816164E-02  0.1312668E+00
        -11   -1    0    0    0    0  0.00000000000E+00  0.00000000000E+00  0.45593999997E+02  0.45594000000E+02  0.51100000000E-03 0. -1.
         11   -1    0    0    0    0 -0.00000000000E+00 -0.00000000000E+00 -0.45593999997E+02  0.45594000000E+02  0.51100000000E-03 0.  1.
    9900012    2    1    2    0    0  0.39627526763E+02 -0.14612528176E+02  0.99878246421E+01  0.47787268461E+02  0.19999988222E+02 0.  0.
        -12    1    1    2    0    0 -0.39627526763E+02  0.14612528176E+02 -0.99878246421E+01  0.43400731539E+02  0.00000000000E+00 0.  1.
         11    1    3    3    0    0  0.86442004101E+01 -0.92293915098E+01  0.10162239691E+02  0.16222668836E+02  0.51100000000E-03 0. -1.
        -11    1    3    3    0    0  0.21927293919E+02 -0.50258881787E+01 -0.38194186972E+00  0.22499147772E+02  0.51100000000E-03 0.  1.
         12    1    3    3    0    0  0.90560324335E+01 -0.35724848740E+00  0.20752682050E+00  0.90654518530E+01  0.00000000000E+00 0. -1.
</event>
<event>
 7    1  0.2497395E-009  0.4778727E+02  0.7816164E-02  0.1312668E+00
        -11   -1    0    0    0    0  0.00000000000E+00  0.00000000000E+00  0.45593999997E+02  0.45594000000E+02  0.51100000000E-03 0.  1.
         11   -1    0    0    0    0 -0.00000000000E+00 -0.00000000000E+00 -0.45593999997E+02  0.45594000000E+02  0.51100000000E-03 0. -1.
    9900012    2    1    2    0    0  0.42546330918E+02 -0.57402474908E+00 -0.85500677867E+01  0.47787269152E+02  0.19999991370E+02 0.  0.
        -12    1    1    2    0    0 -0.42546330918E+02  0.57402474908E+00  0.85500677867E+01  0.43400730848E+02  0.00000000000E+00 0.  1.
         11    1    3    3    0    0  0.26350677762E+02 -0.57214542684E+01 -0.12184924760E+02  0.29589958586E+02  0.51100000000E-03 0. -1.
        -11    1    3    3    0    0  0.74443526334E+01  0.20551767810E+01  0.43929836187E+01  0.88848434464E+01  0.51100000000E-03 0.  1.
         12    1    3    3    0    0  0.87513005229E+01  0.30922527383E+01 -0.75812664554E+00  0.93124671194E+01  0.00000000000E+00 0. -1.
</event>
<event>
 7    1  0.2497395E-009  0.4778727E+02  0.7816164E-02  0.1312668E+00
        -11   -1    0    0    0    0  0.00000000000E+00  0.00000000000E+00  0.45593999997E+02  0.45594000000E+02  0.51100000000E-03 0.  1.
         11   -1    0    0    0    0 -0.00000000000E+00 -0.00000000000E+00 -0.45593999997E+02  0.45594000000E+02  0.51100000000E-03 0. -1.
    9900012    2    1    2    0    0 -0.12004342577E+02  0.59632515583E+01  0.41279030205E+02  0.47787274839E+02  0.20000017299E+02 0.  0.
        -12    1    1    2    0    0  0.12004342577E+02 -0.59632515583E+01 -0.41279030205E+02  0.43400725161E+02  0.00000000000E+00 0.  1.
         11    1    3    3    0    0 -0.31938403189E+01 -0.58335366871E+01  0.93138836594E+01  0.11444614251E+02  0.51100000000E-03 0. -1.
        -11    1    3    3    0    0 -0.88154104602E+01  0.12908531141E+02  0.26509693171E+02  0.30775078718E+02  0.51100000000E-03 0.  1.
        -12    1    3    3    0    0  0.49082019456E-02 -0.11117428958E+01  0.54554533750E+01  0.55675818705E+01  0.00000000000E+00 0.  1.
</event>
<event>
 7    1  0.2497395E-009  0.4778727E+02  0.7816164E-02  0.1312668E+00
        -11   -1    0    0    0    0  0.00000000000E+00  0.00000000000E+00  0.45593999997E+02  0.45594000000E+02  0.51100000000E-03 0.  1.
         11   -1    0    0    0    0 -0.00000000000E+00 -0.00000000000E+00 -0.45593999997E+02  0.45594000000E+02  0.51100000000E-03 0. -1.
    9900012    2    1    2    0    0 -0.10010289061E+02  0.43606220880E+01 -0.42004789479E+02  0.47787271305E+02  0.20000001189E+02 0.  0.
        -12    1    1    2    0    0  0.10010289061E+02 -0.43606220880E+01  0.42004789479E+02  0.43400728695E+02  0.00000000000E+00 0.  1.
         11    1    3    3    0    0 -0.47074049182E+01 -0.27766221787E+01 -0.14682641688E+02  0.15666820321E+02  0.51100000000E-03 0. -1.
        -11    1    3    3    0    0  0.26846840997E+00  0.89701158782E+01 -0.23407788285E+02  0.25069096649E+02  0.51100000000E-03 0.  1.
        -12    1    3    3    0    0 -0.55713525528E+01 -0.18328716116E+01 -0.39143595063E+01  0.70513543349E+01  0.00000000000E+00 0.  1.
</event>
<event>
 7    1  0.2497395E-009  0.4778728E+02  0.7816164E-02  0.1312668E+00
        -11   -1    0    0    0    0  0.00000000000E+00  0.00000000000E+00  0.45593999997E+02  0.45594000000E+02  0.51100000000E-03 0.  1.
         11   -1    0    0    0    0 -0.00000000000E+00 -0.00000000000E+00 -0.45593999997E+02  0.45594000000E+02  0.51100000000E-03 0. -1.
    9900012    2    1    2    0    0  0.15457047477E+02 -0.18045351903E+02 -0.36318966670E+02  0.47787281320E+02  0.20000046849E+02 0.  0.
        -12    1    1    2    0    0 -0.15457047477E+02  0.18045351903E+02  0.36318966670E+02  0.43400718680E+02  0.00000000000E+00 0.  1.
         11    1    3    3    0    0  0.36588610095E+01 -0.65831017999E+01 -0.49046390039E+01  0.89877681999E+01  0.51100000000E-03 0. -1.
        -11    1    3    3    0    0  0.29743414563E+01 -0.17432055320E+01 -0.22888593829E+02  0.23146775161E+02  0.51100000000E-03 0.  1.
        -12    1    3    3    0    0  0.88238450113E+01 -0.97190445706E+01 -0.85257338375E+01  0.15652737959E+02  0.00000000000E+00 0.  1.
</event>
<event>
 7    1  0.2497395E-009  0.4778727E+02  0.7816164E-02  0.1312668E+00
        -11   -1    0    0    0    0  0.00000000000E+00  0.00000000000E+00  0.45593999997E+02  0.45594000000E+02  0.51100000000E-03 0.  1.
         11   -1    0    0    0    0 -0.00000000000E+00 -0.00000000000E+00 -0.45593999997E+02  0.45594000000E+02  0.51100000000E-03 0. -1.
    9900012    2    1    2    0    0  0.22388614811E+02  0.28548686230E+02 -0.23819020525E+02  0.47787270774E+02  0.19999998765E+02 0.  0.
        -12    1    1    2    0    0 -0.22388614811E+02 -0.28548686230E+02  0.23819020525E+02  0.43400729226E+02  0.00000000000E+00 0.  1.
         11    1    3    3    0    0  0.69199282489E+01  0.82597346898E+01 -0.12804832301E+02  0.16735362400E+02  0.51100000000E-03 0. -1.
        -11    1    3    3    0    0  0.14743353449E+02  0.21159283711E+02 -0.67754453358E+01  0.26664366069E+02  0.51100000000E-03 0.  1.
        -12    1    3    3    0    0  0.72533311304E+00 -0.87033217110E+00 -0.42387428874E+01  0.43875423050E+01  0.00000000000E+00 0.  1.
</event>
<event>
 7    1  0.2497395E-009  0.4778728E+02  0.7816164E-02  0.1312668E+00
        -11   -1    0    0    0    0  0.00000000000E+00  0.00000000000E+00  0.45593999997E+02  0.45594000000E+02  0.51100000000E-03 0.  1.
         11   -1    0    0    0    0 -0.00000000000E+00 -0.00000000000E+00 -0.45593999997E+02  0.45594000000E+02  0.51100000000E-03 0. -1.
    9900012    2    1    2    0    0 -0.10038936420E+02 -0.18652234844E+01 -0.42182501242E+02  0.47787277493E+02  0.20000029403E+02 0.  0.
        -12    1    1    2    0    0  0.10038936420E+02  0.18652234844E+01  0.42182501242E+02  0.43400722507E+02  0.00000000000E+00 0.  1.
         11    1    3    3    0    0 -0.35870319070E+01  0.81660785678E+01 -0.11308997243E+02  0.14402953030E+02  0.51100000000E-03 0. -1.
        -11    1    3    3    0    0 -0.55573620377E+01 -0.78016860404E+01 -0.19089059151E+02  0.21357498857E+02  0.51100000000E-03 0.  1.
         12    1    3    3    0    0 -0.89454247552E+00 -0.22296160118E+01 -0.11784444847E+02  0.12026825606E+02  0.00000000000E+00 0. -1.
</event>
<event>
 7    1  0.2497395E-009  0.4778730E+02  0.7816164E-02  0.1312668E+00
        -11   -1    0    0    0    0  0.00000000000E+00  0.00000000000E+00  0.45593999997E+02  0.45594000000E+02  0.51100000000E-03 0.  1.
         11   -1    0    0    0    0 -0.00000000000E+00 -0.00000000000E+00 -0.45593999997E+02  0.45594000000E+02  0.51100000000E-03 0. -1.
    9900012    2    1    2    0    0 -0.28278116476E+02 -0.23646904844E+02 -0.22908353933E+02  0.47787301157E+02  0.20000137295E+02 0.  0.
        -12    1    1    2    0    0  0.28278116476E+02  0.23646904844E+02  0.22908353933E+02  0.43400698843E+02  0.00000000000E+00 0.  1.
         11    1    3    3    0    0 -0.23073221971E+02 -0.20653311502E+02 -0.22384815207E+02  0.38210113847E+02  0.51100000000E-03 0. -1.
        -11    1    3    3    0    0  0.17814410574E+01 -0.16754567341E+01 -0.30220422852E+00  0.24641459303E+01  0.51100000000E-03 0.  1.
         12    1    3    3    0    0 -0.69863355623E+01 -0.13181366086E+01 -0.22133449780E+00  0.71130413796E+01  0.00000000000E+00 0. -1.
</event>
<event>
 7    1  0.2497395E-009  0.4778727E+02  0.7816164E-02  0.1312668E+00
        -11   -1    0    0    0    0  0.00000000000E+00  0.00000000000E+00  0.45593999997E+02  0.45594000000E+02  0.51100000000E-03 0.  1.
         11   -1    0    0    0    0 -0.00000000000E+00 -0.00000000000E+00 -0.45593999997E+02  0.45594000000E+02  0.51100000000E-03 0. -1.
    9900012    2    1    2    0    0 -0.19995023351E+02 -0.13371388634E+02 -0.36125173259E+02  0.47787272635E+02  0.20000007251E+02 0.  0.
        -12    1    1    2    0    0  0.19995023351E+02  0.13371388634E+02  0.36125173259E+02  0.43400727365E+02  0.00000000000E+00 0.  1.
         11    1    3    3    0    0 -0.91094991956E+01 -0.87640622894E+01 -0.12685175124E+02  0.17908250378E+02  0.51100000000E-03 0. -1.
        -11    1    3    3    0    0 -0.67114747151E+01  0.10958295023E+01 -0.21500477689E+02  0.22550283285E+02  0.51100000000E-03 0.  1.
        -12    1    3    3    0    0 -0.41740494407E+01 -0.57031558468E+01 -0.19395204461E+01  0.73287389711E+01  0.00000000000E+00 0.  1.
</event>
<event>
 7    1  0.2497395E-009  0.4778727E+02  0.7816164E-02  0.1312668E+00
        -11   -1    0    0    0    0  0.00000000000E+00  0.00000000000E+00  0.45593999997E+02  0.45594000000E+02  0.51100000000E-03 0. -1.
         11   -1    0    0    0    0 -0.00000000000E+00 -0.00000000000E+00 -0.45593999997E+02  0.45594000000E+02  0.51100000000E-03 0.  1.
    9900012    2    1    2    0    0 -0.39320920814E+02  0.13662379857E+02  0.12281199530E+02  0.47787270756E+02  0.19999998685E+02 0.  0.
        -12    1    1    2    0    0  0.39320920814E+02 -0.13662379857E+02 -0.12281199530E+02  0.43400729244E+02  0.00000000000E+00 0.  1.
         11    1    3    3    0    0 -0.19879075214E+02  0.39141178441E+01 -0.76794443329E+00  0.20275297501E+02  0.51100000000E-03 0.  1.
        -11    1    3    3    0    0 -0.46743817991E+01  0.79590116581E+01  0.37101347262E+01  0.99479048913E+01  0.51100000000E-03 0. -1.
        -12    1    3    3    0    0 -0.14767463801E+02  0.17892503547E+01  0.93390092366E+01  0.17564068363E+02  0.00000000000E+00 0.  1.
</event>
<event>
 7    1  0.2497395E-009  0.4778727E+02  0.7816164E-02  0.1312668E+00
        -11   -1    0    0    0    0  0.00000000000E+00  0.00000000000E+00  0.45593999997E+02  0.45594000000E+02  0.51100000000E-03 0. -1.
         11   -1    0    0    0    0 -0.00000000000E+00 -0.00000000000E+00 -0.45593999997E+02  0.45594000000E+02  0.51100000000E-03 0.  1.
    9900012    2    1    2    0    0  0.92385532405E+01 -0.39106303243E+02  0.16400292072E+02  0.47787269598E+02  0.19999993407E+02 0.  0.
        -12    1    1    2    0    0 -0.92385532405E+01  0.39106303243E+02 -0.16400292072E+02  0.43400730402E+02  0.00000000000E+00 0.  1.
         11    1    3    3    0    0  0.43918958598E+01 -0.73502276524E+01  0.44170376503E+01  0.96345636980E+01  0.51100000000E-03 0. -1.
        -11    1    3    3    0    0  0.18890077075E+01 -0.16408340938E+02  0.14909835947E+02  0.22250959770E+02  0.51100000000E-03 0.  1.
        -12    1    3    3    0    0  0.29576496732E+01 -0.15347734653E+02 -0.29265815257E+01  0.15901746130E+02  0.00000000000E+00 0.  1.
</event>
<event>
 7    1  0.2497395E-009  0.4778727E+02  0.7816164E-02  0.1312668E+00
        -11   -1    0    0    0    0  0.00000000000E+00  0.00000000000E+00  0.45593999997E+02  0.45594000000E+02  0.51100000000E-03 0.  1.
         11   -1    0    0    0    0 -0.00000000000E+00 -0.00000000000E+00 -0.45593999997E+02  0.45594000000E+02  0.51100000000E-03 0. -1.
    9900012    2    1    2    0    0 -0.25130785964E+02 -0.24432475501E+02 -0.25595327185E+02  0.47787273785E+02  0.20000012495E+02 0.  0.
        -12    1    1    2    0    0  0.25130785964E+02  0.24432475501E+02  0.25595327185E+02  0.43400726215E+02  0.00000000000E+00 0.  1.
         11    1    3    3    0    0 -0.10795331339E+02 -0.98931822423E+01 -0.78416418701E+01  0.16610405807E+02  0.51100000000E-03 0. -1.
        -11    1    3    3    0    0 -0.69961803984E+01 -0.14187290295E+02 -0.52370450921E+01  0.16662904538E+02  0.51100000000E-03 0.  1.
        -12    1    3    3    0    0 -0.73392742262E+01 -0.35200296395E+00 -0.12516640223E+02  0.14513963440E+02  0.00000000000E+00 0.  1.
</event>
<event>
 7    1  0.2497395E-009  0.4778727E+02  0.7816164E-02  0.1312668E+00
        -11   -1    0    0    0    0  0.00000000000E+00  0.00000000000E+00  0.45593999997E+02  0.45594000000E+02  0.51100000000E-03 0. -1.
         11   -1    0    0    0    0 -0.00000000000E+00 -0.00000000000E+00 -0.45593999997E+02  0.45594000000E+02  0.51100000000E-03 0.  1.
    9900012    2    1    2    0    0 -0.88597183321E+01  0.20928059929E+02  0.36974927252E+02  0.47787267903E+02  0.19999985675E+02 0.  0.
        -12    1    1    2    0    0  0.88597183321E+01 -0.20928059929E+02 -0.36974927252E+02  0.43400732097E+02  0.00000000000E+00 0.  1.
         11    1    3    3    0    0 -0.92675016789E+00  0.74626223212E+01  0.26794443977E+02  0.27829693245E+02  0.51100000000E-03 0.  1.
        -11    1    3    3    0    0 -0.69395549318E+01  0.11595123271E+02  0.50826792436E+01  0.14437379779E+02  0.51100000000E-03 0. -1.
         12    1    3    3    0    0 -0.99341323236E+00  0.18703143371E+01  0.50978040307E+01  0.55201948793E+01  0.00000000000E+00 0. -1.
</event>
<event>
 7    1  0.2497395E-009  0.4778727E+02  0.7816164E-02  0.1312668E+00
        -11   -1    0    0    0    0  0.00000000000E+00  0.00000000000E+00  0.45593999997E+02  0.45594000000E+02  0.51100000000E-03 0. -1.
         11   -1    0    0    0    0 -0.00000000000E+00 -0.00000000000E+00 -0.45593999997E+02  0.45594000000E+02  0.51100000000E-03 0.  1.
    9900012    2    1    2    0    0 -0.45515548805E+01 -0.41993986681E+02 -0.99705437040E+01  0.47787270617E+02  0.19999998052E+02 0.  0.
        -12    1    1    2    0    0  0.45515548805E+01  0.41993986681E+02  0.99705437040E+01  0.43400729383E+02  0.00000000000E+00 0.  1.
         11    1    3    3    0    0 -0.56391504774E+01 -0.72390175410E+01 -0.30528647282E+01  0.96707484910E+01  0.51100000000E-03 0. -1.
        -11    1    3    3    0    0 -0.33235655066E+01 -0.11509217125E+01  0.39835609027E-01  0.35174274124E+01  0.51100000000E-03 0.  1.
        -12    1    3    3    0    0  0.44111611035E+01 -0.33604047428E+02 -0.69575145849E+01  0.34599094714E+02  0.00000000000E+00 0.  1.
</event>
<event>
 7    1  0.2497395E-009  0.4778727E+02  0.7816164E-02  0.1312668E+00
        -11   -1    0    0    0    0  0.00000000000E+00  0.00000000000E+00  0.45593999997E+02  0.45594000000E+02  0.51100000000E-03 0.  1.
         11   -1    0    0    0    0 -0.00000000000E+00 -0.00000000000E+00 -0.45593999997E+02  0.45594000000E+02  0.51100000000E-03 0. -1.
    9900012    2    1    2    0    0 -0.88954944168E+01  0.42078490350E+02 -0.58218537640E+01  0.47787272445E+02  0.20000006387E+02 0.  0.
        -12    1    1    2    0    0  0.88954944168E+01 -0.42078490350E+02  0.58218537640E+01  0.43400727555E+02  0.00000000000E+00 0.  1.
         11    1    3    3    0    0 -0.12137197430E+02  0.24376611700E+02 -0.82438579026E+01  0.28451572062E+02  0.51100000000E-03 0. -1.
        -11    1    3    3    0    0  0.50311256385E+01  0.11101053711E+02  0.36273468055E+00  0.12193325855E+02  0.51100000000E-03 0.  1.
         12    1    3    3    0    0 -0.17894226251E+01  0.66008249385E+01  0.20592694580E+01  0.71423745282E+01  0.00000000000E+00 0. -1.
</event>
