<event>
 7    1  0.2312612E-008  0.4614232E+02  0.7816164E-02  0.1320468E+00
        -11   -1    0    0    0    0  0.00000000000E+00  0.00000000000E+00  0.45593999997E+02  0.45594000000E+02  0.51100000000E-03 0. -1.
         11   -1    0    0    0    0 -0.00000000000E+00 -0.00000000000E+00 -0.45593999997E+02  0.45594000000E+02  0.51100000000E-03 0.  1.
    9900012    2    1    2    0    0  0.18347039587E+01  0.44919856119E+02 -0.28202608265E+01  0.46142317816E+02  0.10000000497E+02 0.  0.
         12    1    1    2    0    0 -0.18347039587E+01 -0.44919856119E+02  0.28202608265E+01  0.45045682184E+02  0.00000000000E+00 0. -1.
         11    1    3    3    0    0 -0.18370537334E+01  0.46589219556E+01  0.16417845323E+01  0.52702729454E+01  0.51100000000E-03 0. -1.
        -11    1    3    3    0    0  0.18754548006E+01  0.80279251802E+01  0.24469284544E+00  0.82477141231E+01  0.51100000000E-03 0.  1.
        -12    1    3    3    0    0  0.17963028915E+01  0.32233008983E+02 -0.47067382042E+01  0.32624330747E+02  0.00000000000E+00 0.  1.
</event>
<event>
 7    1  0.2312612E-008  0.4614232E+02  0.7816164E-02  0.1320468E+00
        -11   -1    0    0    0    0  0.00000000000E+00  0.00000000000E+00  0.45593999997E+02  0.45594000000E+02  0.51100000000E-03 0.  1.
         11   -1    0    0    0    0 -0.00000000000E+00 -0.00000000000E+00 -0.45593999997E+02  0.45594000000E+02  0.51100000000E-03 0. -1.
    9900012    2    1    2    0    0 -0.13569746297E+02  0.66389869713E+01  0.42437002095E+02  0.46142319748E+02  0.10000018119E+02 0.  0.
         12    1    1    2    0    0  0.13569746297E+02 -0.66389869713E+01 -0.42437002095E+02  0.45045680252E+02  0.00000000000E+00 0. -1.
         11    1    3    3    0    0 -0.44713427251E+00  0.32944064223E+01  0.45463625861E+01  0.56322691483E+01  0.51100000000E-03 0. -1.
        -11    1    3    3    0    0 -0.32189865158E+01 -0.10154695108E+01  0.11557774102E+02  0.12040564562E+02  0.51100000000E-03 0.  1.
        -12    1    3    3    0    0 -0.99036255089E+01  0.43600500597E+01  0.26332865407E+02  0.28469486038E+02  0.00000000000E+00 0.  1.
</event>
<event>
 7    1  0.2312612E-008  0.4614232E+02  0.7816164E-02  0.1320468E+00
        -11   -1    0    0    0    0  0.00000000000E+00  0.00000000000E+00  0.45593999997E+02  0.45594000000E+02  0.51100000000E-03 0.  1.
         11   -1    0    0    0    0 -0.00000000000E+00 -0.00000000000E+00 -0.45593999997E+02  0.45594000000E+02  0.51100000000E-03 0. -1.
    9900012    2    1    2    0    0  0.59617061295E+01 -0.77695477434E+01  0.43968235341E+02  0.46142317287E+02  0.99999956749E+01 0.  0.
         12    1    1    2    0    0 -0.59617061295E+01  0.77695477434E+01 -0.43968235341E+02  0.45045682713E+02  0.00000000000E+00 0. -1.
         11    1    3    3    0    0 -0.92629452414E+00 -0.65150759352E+01  0.23078105174E+02  0.23997982721E+02  0.51100000000E-03 0. -1.
        -11    1    3    3    0    0  0.11258838459E+01 -0.51381861588E+00  0.17602758442E+01  0.21517888635E+01  0.51100000000E-03 0.  1.
         12    1    3    3    0    0  0.57621168078E+01 -0.74065319235E+00  0.19129854322E+02  0.19992545702E+02  0.00000000000E+00 0. -1.
</event>
<event>
 7    1  0.2312612E-008  0.4614232E+02  0.7816164E-02  0.1320468E+00
        -11   -1    0    0    0    0  0.00000000000E+00  0.00000000000E+00  0.45593999997E+02  0.45594000000E+02  0.51100000000E-03 0.  1.
         11   -1    0    0    0    0 -0.00000000000E+00 -0.00000000000E+00 -0.45593999997E+02  0.45594000000E+02  0.51100000000E-03 0. -1.
    9900012    2    1    2    0    0 -0.43307176806E+02  0.12208408130E+02 -0.21346368625E+01  0.46142318004E+02  0.10000002211E+02 0.  0.
         12    1    1    2    0    0  0.43307176806E+02 -0.12208408130E+02  0.21346368625E+01  0.45045681996E+02  0.00000000000E+00 0. -1.
         11    1    3    3    0    0 -0.14152298517E+02  0.62558685418E+01 -0.20299377615E+01  0.15605899272E+02  0.51100000000E-03 0. -1.
        -11    1    3    3    0    0 -0.55051501942E+01  0.55230651114E+00  0.26267760427E+01  0.61246774432E+01  0.51100000000E-03 0.  1.
        -12    1    3    3    0    0 -0.23649728095E+02  0.54002330766E+01 -0.27314751437E+01  0.24411741288E+02  0.00000000000E+00 0.  1.
</event>
<event>
 7    1  0.2312612E-008  0.4614231E+02  0.7816164E-02  0.1320468E+00
        -11   -1    0    0    0    0  0.00000000000E+00  0.00000000000E+00  0.45593999997E+02  0.45594000000E+02  0.51100000000E-03 0. -1.
         11   -1    0    0    0    0 -0.00000000000E+00 -0.00000000000E+00 -0.45593999997E+02  0.45594000000E+02  0.51100000000E-03 0.  1.
    9900012    2    1    2    0    0  0.11908396026E+01  0.24985933269E+01 -0.44960571099E+02  0.46142311848E+02  0.99999460763E+01 0.  0.
         12    1    1    2    0    0 -0.11908396026E+01 -0.24985933269E+01  0.44960571099E+02  0.45045688152E+02  0.00000000000E+00 0. -1.
         11    1    3    3    0    0  0.23831924441E+01  0.19304671172E+01 -0.56479036867E+01  0.64269063966E+01  0.51100000000E-03 0. -1.
        -11    1    3    3    0    0 -0.33062608397E+01 -0.49104921990E-01 -0.19213592851E+02  0.19496048896E+02  0.51100000000E-03 0.  1.
        -12    1    3    3    0    0  0.21139079983E+01  0.61723113163E+00 -0.20099074561E+02  0.20219356555E+02  0.00000000000E+00 0.  1.
</event>
<event>
 7    1  0.2312612E-008  0.4614232E+02  0.7816164E-02  0.1320468E+00
        -11   -1    0    0    0    0  0.00000000000E+00  0.00000000000E+00  0.45593999997E+02  0.45594000000E+02  0.51100000000E-03 0.  1.
         11   -1    0    0    0    0 -0.00000000000E+00 -0.00000000000E+00 -0.45593999997E+02  0.45594000000E+02  0.51100000000E-03 0. -1.
    9900012    2    1    2    0    0 -0.88046552161E+01 -0.24019599980E+02  0.37076278472E+02  0.46142316944E+02  0.99999925495E+01 0.  0.
         12    1    1    2    0    0  0.88046552161E+01  0.24019599980E+02 -0.37076278472E+02  0.45045683056E+02  0.00000000000E+00 0. -1.
         11    1    3    3    0    0  0.80643387299E+00 -0.24539002363E+01  0.56008065426E+01  0.61677383335E+01  0.51100000000E-03 0. -1.
        -11    1    3    3    0    0 -0.92298660423E+01 -0.18829516789E+02  0.30562710880E+02  0.37065083654E+02  0.51100000000E-03 0.  1.
         12    1    3    3    0    0 -0.38122304678E+00 -0.27361829545E+01  0.91276104939E+00  0.29094949570E+01  0.00000000000E+00 0. -1.
</event>
<event>
 7    1  0.2312612E-008  0.4614232E+02  0.7816164E-02  0.1320468E+00
        -11   -1    0    0    0    0  0.00000000000E+00  0.00000000000E+00  0.45593999997E+02  0.45594000000E+02  0.51100000000E-03 0.  1.
         11   -1    0    0    0    0 -0.00000000000E+00 -0.00000000000E+00 -0.45593999997E+02  0.45594000000E+02  0.51100000000E-03 0. -1.
    9900012    2    1    2    0    0  0.26547784217E+02  0.25375755413E+02  0.26084472113E+02  0.46142317687E+02  0.99999993280E+01 0.  0.
         12    1    1    2    0    0 -0.26547784217E+02 -0.25375755413E+02 -0.26084472113E+02  0.45045682313E+02  0.00000000000E+00 0. -1.
         11    1    3    3    0    0  0.16948518500E+02  0.18100506213E+02  0.22473232182E+02  0.33465306953E+02  0.51100000000E-03 0.  1.
        -11    1    3    3    0    0  0.11971703445E+01  0.85617535816E+00 -0.89522142103E-01  0.14745397766E+01  0.51100000000E-03 0. -1.
        -12    1    3    3    0    0  0.84020953730E+01  0.64190738422E+01  0.37007620731E+01  0.11202470958E+02  0.00000000000E+00 0.  1.
</event>
<event>
 7    1  0.2312612E-008  0.4614232E+02  0.7816164E-02  0.1320468E+00
        -11   -1    0    0    0    0  0.00000000000E+00  0.00000000000E+00  0.45593999997E+02  0.45594000000E+02  0.51100000000E-03 0. -1.
         11   -1    0    0    0    0 -0.00000000000E+00 -0.00000000000E+00 -0.45593999997E+02  0.45594000000E+02  0.51100000000E-03 0.  1.
    9900012    2    1    2    0    0  0.12690015288E+02 -0.43066025989E+02 -0.36598416481E+01  0.46142317372E+02  0.99999964515E+01 0.  0.
         12    1    1    2    0    0 -0.12690015288E+02  0.43066025989E+02  0.36598416481E+01  0.45045682628E+02  0.00000000000E+00 0. -1.
         11    1    3    3    0    0  0.24327616786E+00 -0.84020388019E+01 -0.23947767021E+01  0.87400454825E+01  0.51100000000E-03 0. -1.
        -11    1    3    3    0    0  0.51088125499E+00 -0.16407749717E+01 -0.15095936531E+01  0.22873599242E+01  0.51100000000E-03 0.  1.
        -12    1    3    3    0    0  0.11935857865E+02 -0.33023212216E+02  0.24452870713E+00  0.35114911965E+02  0.00000000000E+00 0.  1.
</event>
<event>
 7    1  0.2312612E-008  0.4614232E+02  0.7816164E-02  0.1320468E+00
        -11   -1    0    0    0    0  0.00000000000E+00  0.00000000000E+00  0.45593999997E+02  0.45594000000E+02  0.51100000000E-03 0.  1.
         11   -1    0    0    0    0 -0.00000000000E+00 -0.00000000000E+00 -0.45593999997E+02  0.45594000000E+02  0.51100000000E-03 0. -1.
    9900012    2    1    2    0    0  0.17854968590E+02 -0.20855738827E+02  0.35712066074E+02  0.46142318646E+02  0.10000008067E+02 0.  0.
         12    1    1    2    0    0 -0.17854968590E+02  0.20855738827E+02 -0.35712066074E+02  0.45045681354E+02  0.00000000000E+00 0. -1.
         11    1    3    3    0    0  0.81716408817E+01 -0.38593285245E+01  0.13503105625E+02  0.16248199689E+02  0.51100000000E-03 0. -1.
        -11    1    3    3    0    0  0.20918128215E+01 -0.60539489667E+01  0.49547428630E+01  0.80978673779E+01  0.51100000000E-03 0.  1.
        -12    1    3    3    0    0  0.75915148864E+01 -0.10942461336E+02  0.17254217587E+02  0.21796251579E+02  0.00000000000E+00 0.  1.
</event>
<event>
 7    1  0.2312612E-008  0.4614232E+02  0.7816164E-02  0.1320468E+00
        -11   -1    0    0    0    0  0.00000000000E+00  0.00000000000E+00  0.45593999997E+02  0.45594000000E+02  0.51100000000E-03 0.  1.
         11   -1    0    0    0    0 -0.00000000000E+00 -0.00000000000E+00 -0.45593999997E+02  0.45594000000E+02  0.51100000000E-03 0. -1.
    9900012    2    1    2    0    0 -0.22912633583E+02  0.28323802487E+02  0.26493148318E+02  0.46142317934E+02  0.10000001572E+02 0.  0.
         12    1    1    2    0    0  0.22912633583E+02 -0.28323802487E+02 -0.26493148318E+02  0.45045682066E+02  0.00000000000E+00 0. -1.
         11    1    3    3    0    0 -0.37105879214E+01  0.12301570742E+01  0.16408433166E+01  0.42395891546E+01  0.51100000000E-03 0. -1.
        -11    1    3    3    0    0 -0.97849942644E+01  0.16570851913E+02  0.11226396871E+02  0.22279390316E+02  0.51100000000E-03 0.  1.
         12    1    3    3    0    0 -0.94170513972E+01  0.10522793500E+02  0.13625908131E+02  0.19623338463E+02  0.00000000000E+00 0. -1.
</event>
<event>
 7    1  0.2312612E-008  0.4614232E+02  0.7816164E-02  0.1320468E+00
        -11   -1    0    0    0    0  0.00000000000E+00  0.00000000000E+00  0.45593999997E+02  0.45594000000E+02  0.51100000000E-03 0.  1.
         11   -1    0    0    0    0 -0.00000000000E+00 -0.00000000000E+00 -0.45593999997E+02  0.45594000000E+02  0.51100000000E-03 0. -1.
    9900012    2    1    2    0    0  0.90316137569E+01 -0.24384253048E+02  0.36782491994E+02  0.46142316955E+02  0.99999926449E+01 0.  0.
         12    1    1    2    0    0 -0.90316137569E+01  0.24384253048E+02 -0.36782491994E+02  0.45045683045E+02  0.00000000000E+00 0. -1.
         11    1    3    3    0    0  0.15801702046E+01 -0.81753018804E+01  0.53531298432E+01  0.98989139854E+01  0.51100000000E-03 0. -1.
        -11    1    3    3    0    0  0.28261774215E+01 -0.59237393200E+01  0.90059190901E+01  0.11143811972E+02  0.51100000000E-03 0.  1.
         12    1    3    3    0    0  0.46252661308E+01 -0.10285211847E+02  0.22423443061E+02  0.25099590997E+02  0.00000000000E+00 0. -1.
</event>
<event>
 7    1  0.2312612E-008  0.4614232E+02  0.7816164E-02  0.1320468E+00
        -11   -1    0    0    0    0  0.00000000000E+00  0.00000000000E+00  0.45593999997E+02  0.45594000000E+02  0.51100000000E-03 0. -1.
         11   -1    0    0    0    0 -0.00000000000E+00 -0.00000000000E+00 -0.45593999997E+02  0.45594000000E+02  0.51100000000E-03 0.  1.
    9900012    2    1    2    0    0  0.31324177380E+02 -0.81997349266E+01 -0.31315711838E+02  0.46142317085E+02  0.99999938330E+01 0.  0.
         12    1    1    2    0    0 -0.31324177380E+02  0.81997349266E+01  0.31315711838E+02  0.45045682915E+02  0.00000000000E+00 0. -1.
         11    1    3    3    0    0  0.70122017485E+01 -0.18330199482E+01 -0.11577391688E+02  0.13658950694E+02  0.51100000000E-03 0. -1.
        -11    1    3    3    0    0  0.12103049912E+02 -0.47703456366E+01 -0.70245252291E+01  0.14784585541E+02  0.51100000000E-03 0.  1.
        -12    1    3    3    0    0  0.12208925720E+02 -0.15963693418E+01 -0.12713794920E+02  0.17698780850E+02  0.00000000000E+00 0.  1.
</event>
<event>
 7    1  0.2312612E-008  0.4614232E+02  0.7816164E-02  0.1320468E+00
        -11   -1    0    0    0    0  0.00000000000E+00  0.00000000000E+00  0.45593999997E+02  0.45594000000E+02  0.51100000000E-03 0.  1.
         11   -1    0    0    0    0 -0.00000000000E+00 -0.00000000000E+00 -0.45593999997E+02  0.45594000000E+02  0.51100000000E-03 0. -1.
    9900012    2    1    2    0    0  0.20385026780E+02  0.27720635605E+01  0.40073427320E+02  0.46142320625E+02  0.10000026113E+02 0.  0.
         12    1    1    2    0    0 -0.20385026780E+02 -0.27720635605E+01 -0.40073427320E+02  0.45045679375E+02  0.00000000000E+00 0. -1.
         11    1    3    3    0    0  0.63184888692E-02  0.64064802006E+00  0.22475741236E+01  0.23371049422E+01  0.51100000000E-03 0. -1.
        -11    1    3    3    0    0  0.19464613748E+02  0.41223150996E+01  0.33761684945E+02  0.39188213033E+02  0.51100000000E-03 0.  1.
        -12    1    3    3    0    0  0.91409454327E+00 -0.19908995592E+01  0.40641682517E+01  0.46170026497E+01  0.00000000000E+00 0.  1.
</event>
<event>
 7    1  0.2312612E-008  0.4614232E+02  0.7816164E-02  0.1320468E+00
        -11   -1    0    0    0    0  0.00000000000E+00  0.00000000000E+00  0.45593999997E+02  0.45594000000E+02  0.51100000000E-03 0.  1.
         11   -1    0    0    0    0 -0.00000000000E+00 -0.00000000000E+00 -0.45593999997E+02  0.45594000000E+02  0.51100000000E-03 0. -1.
    9900012    2    1    2    0    0  0.22934573135E+01 -0.43510019916E+02  0.11433800178E+02  0.46142316898E+02  0.99999921339E+01 0.  0.
         12    1    1    2    0    0 -0.22934573135E+01  0.43510019916E+02 -0.11433800178E+02  0.45045683102E+02  0.00000000000E+00 0. -1.
         11    1    3    3    0    0 -0.18519295759E+01 -0.67523461554E+01 -0.22645628815E+00  0.70053625508E+01  0.51100000000E-03 0. -1.
        -11    1    3    3    0    0  0.11502194334E+01 -0.28929080597E+02  0.84325934972E+01  0.30154988680E+02  0.51100000000E-03 0.  1.
        -12    1    3    3    0    0  0.29951674560E+01 -0.78285931636E+01  0.32276629687E+01  0.89819656674E+01  0.00000000000E+00 0.  1.
</event>
<event>
 7    1  0.2312612E-008  0.4614232E+02  0.7816164E-02  0.1320468E+00
        -11   -1    0    0    0    0  0.00000000000E+00  0.00000000000E+00  0.45593999997E+02  0.45594000000E+02  0.51100000000E-03 0. -1.
         11   -1    0    0    0    0 -0.00000000000E+00 -0.00000000000E+00 -0.45593999997E+02  0.45594000000E+02  0.51100000000E-03 0.  1.
    9900012    2    1    2    0    0  0.42891312325E+02  0.60155619627E+01 -0.12379897011E+02  0.46142317536E+02  0.99999979473E+01 0.  0.
         12    1    1    2    0    0 -0.42891312325E+02 -0.60155619627E+01  0.12379897011E+02  0.45045682464E+02  0.00000000000E+00 0. -1.
         11    1    3    3    0    0  0.62283802565E+01  0.27179181411E+01 -0.93547732046E+00  0.68596587174E+01  0.51100000000E-03 0. -1.
        -11    1    3    3    0    0  0.49845900926E+01  0.88969229151E+00 -0.44749973926E+01  0.67574620006E+01  0.51100000000E-03 0.  1.
         12    1    3    3    0    0  0.31678341975E+02  0.24079515301E+01 -0.69694222976E+01  0.32525196818E+02  0.00000000000E+00 0. -1.
</event>
<event>
 7    1  0.2312612E-008  0.4614232E+02  0.7816164E-02  0.1320468E+00
        -11   -1    0    0    0    0  0.00000000000E+00  0.00000000000E+00  0.45593999997E+02  0.45594000000E+02  0.51100000000E-03 0.  1.
         11   -1    0    0    0    0 -0.00000000000E+00 -0.00000000000E+00 -0.45593999997E+02  0.45594000000E+02  0.51100000000E-03 0. -1.
    9900012    2    1    2    0    0 -0.11861122213E+02  0.21617986389E+02  0.37697346260E+02  0.46142317957E+02  0.10000001783E+02 0.  0.
         12    1    1    2    0    0  0.11861122213E+02 -0.21617986389E+02 -0.37697346260E+02  0.45045682043E+02  0.00000000000E+00 0. -1.
         11    1    3    3    0    0 -0.22211186233E+01  0.17742323500E+01  0.65128531046E+00  0.29164089540E+01  0.51100000000E-03 0. -1.
        -11    1    3    3    0    0 -0.32898208537E+01  0.89624099740E+01  0.13719101351E+02  0.16714109486E+02  0.51100000000E-03 0.  1.
        -12    1    3    3    0    0 -0.63501827363E+01  0.10881344065E+02  0.23326959599E+02  0.26511799516E+02  0.00000000000E+00 0.  1.
</event>
<event>
 7    1  0.2312612E-008  0.4614232E+02  0.7816164E-02  0.1320468E+00
        -11   -1    0    0    0    0  0.00000000000E+00  0.00000000000E+00  0.45593999997E+02  0.45594000000E+02  0.51100000000E-03 0. -1.
         11   -1    0    0    0    0 -0.00000000000E+00 -0.00000000000E+00 -0.45593999997E+02  0.45594000000E+02  0.51100000000E-03 0.  1.
    9900012    2    1    2    0    0  0.44483671444E+02 -0.64020374077E+01  0.30545721188E+01  0.46142317422E+02  0.99999969043E+01 0.  0.
         12    1    1    2    0    0 -0.44483671444E+02  0.64020374077E+01 -0.30545721188E+01  0.45045682578E+02  0.00000000000E+00 0. -1.
         11    1    3    3    0    0  0.15770304636E+02 -0.53226983885E+01  0.34660402566E+01  0.17001384113E+02  0.51100000000E-03 0. -1.
        -11    1    3    3    0    0  0.67737979035E+01 -0.82297681630E+00  0.18872376371E+01  0.70797807196E+01  0.51100000000E-03 0.  1.
         12    1    3    3    0    0  0.21939568905E+02 -0.25636220287E+00 -0.22987057749E+01  0.22061152589E+02  0.00000000000E+00 0. -1.
</event>
<event>
 7    1  0.2312612E-008  0.4614232E+02  0.7816164E-02  0.1320468E+00
        -11   -1    0    0    0    0  0.00000000000E+00  0.00000000000E+00  0.45593999997E+02  0.45594000000E+02  0.51100000000E-03 0.  1.
         11   -1    0    0    0    0 -0.00000000000E+00 -0.00000000000E+00 -0.45593999997E+02  0.45594000000E+02  0.51100000000E-03 0. -1.
    9900012    2    1    2    0    0  0.33800396290E+02 -0.17071639672E+02  0.24396842552E+02  0.46142316556E+02  0.99999890075E+01 0.  0.
         12    1    1    2    0    0 -0.33800396290E+02  0.17071639672E+02 -0.24396842552E+02  0.45045683444E+02  0.00000000000E+00 0. -1.
         11    1    3    3    0    0  0.16931343974E+02 -0.41698423859E+01  0.14267683142E+02  0.22530529883E+02  0.51100000000E-03 0. -1.
        -11    1    3    3    0    0  0.41737352223E+01 -0.37841528818E+01  0.35103149632E+01  0.66379356837E+01  0.51100000000E-03 0.  1.
         12    1    3    3    0    0  0.12695317094E+02 -0.91176444040E+01  0.66188444468E+01  0.16973850989E+02  0.00000000000E+00 0. -1.
</event>
<event>
 7    1  0.2312612E-008  0.4614232E+02  0.7816164E-02  0.1320468E+00
        -11   -1    0    0    0    0  0.00000000000E+00  0.00000000000E+00  0.45593999997E+02  0.45594000000E+02  0.51100000000E-03 0. -1.
         11   -1    0    0    0    0 -0.00000000000E+00 -0.00000000000E+00 -0.45593999997E+02  0.45594000000E+02  0.51100000000E-03 0.  1.
    9900012    2    1    2    0    0 -0.40546699258E+01  0.41535393110E+02  0.16955365730E+02  0.46142315900E+02  0.99999830247E+01 0.  0.
         12    1    1    2    0    0  0.40546699258E+01 -0.41535393110E+02 -0.16955365730E+02  0.45045684100E+02  0.00000000000E+00 0. -1.
         11    1    3    3    0    0  0.11566346113E+01  0.15682503445E+02  0.10170234148E+02  0.18727316434E+02  0.51100000000E-03 0. -1.
        -11    1    3    3    0    0 -0.13378796128E+00 -0.66811698530E-01  0.30471900163E-01  0.15261657664E+00  0.51100000000E-03 0.  1.
        -12    1    3    3    0    0 -0.50775165759E+01  0.25919701364E+02  0.67546596819E+01  0.27262382889E+02  0.00000000000E+00 0.  1.
</event>
<event>
 7    1  0.2312612E-008  0.4614232E+02  0.7816164E-02  0.1320468E+00
        -11   -1    0    0    0    0  0.00000000000E+00  0.00000000000E+00  0.45593999997E+02  0.45594000000E+02  0.51100000000E-03 0. -1.
         11   -1    0    0    0    0 -0.00000000000E+00 -0.00000000000E+00 -0.45593999997E+02  0.45594000000E+02  0.51100000000E-03 0.  1.
    9900012    2    1    2    0    0 -0.31813428565E+02 -0.24407782140E+02  0.20525091321E+02  0.46142318301E+02  0.10000004921E+02 0.  0.
         12    1    1    2    0    0  0.31813428565E+02  0.24407782140E+02 -0.20525091321E+02  0.45045681699E+02  0.00000000000E+00 0. -1.
         11    1    3    3    0    0 -0.70236237860E+01 -0.88438183225E+01  0.78061596928E+01  0.13728821618E+02  0.51100000000E-03 0. -1.
        -11    1    3    3    0    0 -0.44104072461E+01 -0.42200149390E+01  0.48553627980E+01  0.77996645006E+01  0.51100000000E-03 0.  1.
         12    1    3    3    0    0 -0.20379397533E+02 -0.11343948878E+02  0.78635688300E+01  0.24613832182E+02  0.00000000000E+00 0. -1.
</event>
<event>
 7    1  0.2312612E-008  0.4614232E+02  0.7816164E-02  0.1320468E+00
        -11   -1    0    0    0    0  0.00000000000E+00  0.00000000000E+00  0.45593999997E+02  0.45594000000E+02  0.51100000000E-03 0.  1.
         11   -1    0    0    0    0 -0.00000000000E+00 -0.00000000000E+00 -0.45593999997E+02  0.45594000000E+02  0.51100000000E-03 0. -1.
    9900012    2    1    2    0    0  0.30093895018E+02  0.33239393746E+02  0.43143576297E+01  0.46142317680E+02  0.99999992558E+01 0.  0.
         12    1    1    2    0    0 -0.30093895018E+02 -0.33239393746E+02 -0.43143576297E+01  0.45045682320E+02  0.00000000000E+00 0. -1.
         11    1    3    3    0    0  0.16507095458E+01  0.10027116662E+01 -0.26111889244E+00  0.19489628080E+01  0.51100000000E-03 0. -1.
        -11    1    3    3    0    0  0.44041515028E+01  0.54897671386E+01 -0.26356952642E+01  0.75153831228E+01  0.51100000000E-03 0.  1.
        -12    1    3    3    0    0  0.24039033969E+02  0.26746914941E+02  0.72111717864E+01  0.36677971749E+02  0.00000000000E+00 0.  1.
</event>
<event>
 7    1  0.2312612E-008  0.4614232E+02  0.7816164E-02  0.1320468E+00
        -11   -1    0    0    0    0  0.00000000000E+00  0.00000000000E+00  0.45593999997E+02  0.45594000000E+02  0.51100000000E-03 0.  1.
         11   -1    0    0    0    0 -0.00000000000E+00 -0.00000000000E+00 -0.45593999997E+02  0.45594000000E+02  0.51100000000E-03 0. -1.
    9900012    2    1    2    0    0 -0.16745011489E+02 -0.27686274195E+01  0.41725927510E+02  0.46142315033E+02  0.99999751224E+01 0.  0.
         12    1    1    2    0    0  0.16745011489E+02  0.27686274195E+01 -0.41725927510E+02  0.45045684967E+02  0.00000000000E+00 0. -1.
         11    1    3    3    0    0 -0.65550956180E+01  0.28710414565E+01  0.10326122577E+02  0.12563477438E+02  0.51100000000E-03 0. -1.
        -11    1    3    3    0    0 -0.46349459469E+01 -0.16185052610E+01  0.10696588578E+02  0.11769421850E+02  0.51100000000E-03 0.  1.
         12    1    3    3    0    0 -0.55549699240E+01 -0.40211636151E+01  0.20703216355E+02  0.21809415745E+02  0.00000000000E+00 0. -1.
</event>
<event>
 7    1  0.2312612E-008  0.4614232E+02  0.7816164E-02  0.1320468E+00
        -11   -1    0    0    0    0  0.00000000000E+00  0.00000000000E+00  0.45593999997E+02  0.45594000000E+02  0.51100000000E-03 0.  1.
         11   -1    0    0    0    0 -0.00000000000E+00 -0.00000000000E+00 -0.45593999997E+02  0.45594000000E+02  0.51100000000E-03 0. -1.
    9900012    2    1    2    0    0  0.19412869642E+02 -0.19912954810E+02  0.35436254652E+02  0.46142318511E+02  0.10000006840E+02 0.  0.
         12    1    1    2    0    0 -0.19412869642E+02  0.19912954810E+02 -0.35436254652E+02  0.45045681489E+02  0.00000000000E+00 0. -1.
         11    1    3    3    0    0  0.16448576670E+01 -0.41224249612E+01  0.20481236217E+01  0.48882261544E+01  0.51100000000E-03 0. -1.
        -11    1    3    3    0    0  0.15221297427E+02 -0.11137277827E+02  0.27264959482E+02  0.33152750543E+02  0.51100000000E-03 0.  1.
        -12    1    3    3    0    0  0.25467145484E+01 -0.46532520222E+01  0.61231715486E+01  0.81013418139E+01  0.00000000000E+00 0.  1.
</event>
<event>
 7    1  0.2312612E-008  0.4614232E+02  0.7816164E-02  0.1320468E+00
        -11   -1    0    0    0    0  0.00000000000E+00  0.00000000000E+00  0.45593999997E+02  0.45594000000E+02  0.51100000000E-03 0.  1.
         11   -1    0    0    0    0 -0.00000000000E+00 -0.00000000000E+00 -0.45593999997E+02  0.45594000000E+02  0.51100000000E-03 0. -1.
    9900012    2    1    2    0    0 -0.82552575272E+01 -0.40476086180E+02 -0.17962479489E+02  0.46142317646E+02  0.99999989537E+01 0.  0.
         12    1    1    2    0    0  0.82552575272E+01  0.40476086180E+02  0.17962479489E+02  0.45045682354E+02  0.00000000000E+00 0. -1.
         11    1    3    3    0    0  0.10064126652E+01 -0.50658400325E+01 -0.54302690190E+00  0.51933110984E+01  0.51100000000E-03 0. -1.
        -11    1    3    3    0    0 -0.99014493968E+01 -0.30267584547E+02 -0.14390252880E+02  0.34946312433E+02  0.51100000000E-03 0.  1.
        -12    1    3    3    0    0  0.63977920444E+00 -0.51426616007E+01 -0.30291997068E+01  0.60026941146E+01  0.00000000000E+00 0.  1.
</event>
<event>
 7    1  0.2312612E-008  0.4614232E+02  0.7816164E-02  0.1320468E+00
        -11   -1    0    0    0    0  0.00000000000E+00  0.00000000000E+00  0.45593999997E+02  0.45594000000E+02  0.51100000000E-03 0.  1.
         11   -1    0    0    0    0 -0.00000000000E+00 -0.00000000000E+00 -0.45593999997E+02  0.45594000000E+02  0.51100000000E-03 0. -1.
    9900012    2    1    2    0    0  0.36372702128E+02 -0.15535162431E+02  0.21559191132E+02  0.46142318141E+02  0.10000003466E+02 0.  0.
         12    1    1    2    0    0 -0.36372702128E+02  0.15535162431E+02 -0.21559191132E+02  0.45045681859E+02  0.00000000000E+00 0. -1.
         11    1    3    3    0    0  0.81613276928E+01 -0.48548885766E+01  0.79608330969E+01  0.12391613158E+02  0.51100000000E-03 0. -1.
        -11    1    3    3    0    0  0.19754302741E+02 -0.10090566152E+02  0.11636086419E+02  0.25048962244E+02  0.51100000000E-03 0.  1.
         12    1    3    3    0    0  0.84570716940E+01 -0.58970770197E+00  0.19622716162E+01  0.87017427397E+01  0.00000000000E+00 0. -1.
</event>
<event>
 7    1  0.2312612E-008  0.4614232E+02  0.7816164E-02  0.1320468E+00
        -11   -1    0    0    0    0  0.00000000000E+00  0.00000000000E+00  0.45593999997E+02  0.45594000000E+02  0.51100000000E-03 0.  1.
         11   -1    0    0    0    0 -0.00000000000E+00 -0.00000000000E+00 -0.45593999997E+02  0.45594000000E+02  0.51100000000E-03 0. -1.
    9900012    2    1    2    0    0  0.39963629138E+01 -0.37666384752E+02  0.24380033651E+02  0.46142317658E+02  0.99999990617E+01 0.  0.
         12    1    1    2    0    0 -0.39963629138E+01  0.37666384752E+02 -0.24380033651E+02  0.45045682342E+02  0.00000000000E+00 0. -1.
         11    1    3    3    0    0  0.70062620779E+00 -0.45998702248E+01  0.69050332694E-01  0.46534343637E+01  0.51100000000E-03 0. -1.
        -11    1    3    3    0    0 -0.38485783906E+00 -0.16367250410E+02  0.99484885584E+01  0.19157437887E+02  0.51100000000E-03 0.  1.
        -12    1    3    3    0    0  0.36805945451E+01 -0.16699264117E+02  0.14362494760E+02  0.22331445407E+02  0.00000000000E+00 0.  1.
</event>
<event>
 7    1  0.2312612E-008  0.4614232E+02  0.7816164E-02  0.1320468E+00
        -11   -1    0    0    0    0  0.00000000000E+00  0.00000000000E+00  0.45593999997E+02  0.45594000000E+02  0.51100000000E-03 0.  1.
         11   -1    0    0    0    0 -0.00000000000E+00 -0.00000000000E+00 -0.45593999997E+02  0.45594000000E+02  0.51100000000E-03 0. -1.
    9900012    2    1    2    0    0  0.33536383032E+02  0.29705831192E+02 -0.46891365657E+01  0.46142318793E+02  0.10000009413E+02 0.  0.
         12    1    1    2    0    0 -0.33536383032E+02 -0.29705831192E+02  0.46891365657E+01  0.45045681207E+02  0.00000000000E+00 0. -1.
         11    1    3    3    0    0  0.11289472379E+02  0.10672295781E+02 -0.11298140734E+01  0.15576474695E+02  0.51100000000E-03 0.  1.
        -11    1    3    3    0    0  0.86939441643E+01  0.10095029719E+02  0.18560089507E+01  0.13451359026E+02  0.51100000000E-03 0. -1.
         12    1    3    3    0    0  0.13552966489E+02  0.89385056912E+01 -0.54153314431E+01  0.17114485072E+02  0.00000000000E+00 0. -1.
</event>
<event>
 7    1  0.2312612E-008  0.4614232E+02  0.7816164E-02  0.1320468E+00
        -11   -1    0    0    0    0  0.00000000000E+00  0.00000000000E+00  0.45593999997E+02  0.45594000000E+02  0.51100000000E-03 0. -1.
         11   -1    0    0    0    0 -0.00000000000E+00 -0.00000000000E+00 -0.45593999997E+02  0.45594000000E+02  0.51100000000E-03 0.  1.
    9900012    2    1    2    0    0  0.89104579083E+00  0.35104321299E+02 -0.28213580840E+02  0.46142317851E+02  0.10000000819E+02 0.  0.
         12    1    1    2    0    0 -0.89104579083E+00 -0.35104321299E+02  0.28213580840E+02  0.45045682149E+02  0.00000000000E+00 0. -1.
         11    1    3    3    0    0  0.28223224582E+01  0.36674271612E+01 -0.32933179231E+01  0.56799180667E+01  0.51100000000E-03 0. -1.
        -11    1    3    3    0    0 -0.17683691845E+01  0.35160565963E+01 -0.26112090613E+01  0.47231553630E+01  0.51100000000E-03 0.  1.
        -12    1    3    3    0    0 -0.16290748287E+00  0.27920837541E+02 -0.22309053856E+02  0.35739244421E+02  0.00000000000E+00 0.  1.
</event>
<event>
 7    1  0.2312612E-008  0.4614232E+02  0.7816164E-02  0.1320468E+00
        -11   -1    0    0    0    0  0.00000000000E+00  0.00000000000E+00  0.45593999997E+02  0.45594000000E+02  0.51100000000E-03 0.  1.
         11   -1    0    0    0    0 -0.00000000000E+00 -0.00000000000E+00 -0.45593999997E+02  0.45594000000E+02  0.51100000000E-03 0. -1.
    9900012    2    1    2    0    0  0.26862359367E+02 -0.74234300662E+01  0.35389543385E+02  0.46142318234E+02  0.10000004316E+02 0.  0.
         12    1    1    2    0    0 -0.26862359367E+02  0.74234300662E+01 -0.35389543385E+02  0.45045681766E+02  0.00000000000E+00 0. -1.
         11    1    3    3    0    0  0.16654101365E+00 -0.46700521833E+00  0.70410141668E+00  0.86115553140E+00  0.51100000000E-03 0. -1.
        -11    1    3    3    0    0  0.22563157530E+02 -0.31802821313E+01  0.31379137032E+02  0.38779640448E+02  0.51100000000E-03 0.  1.
        -12    1    3    3    0    0  0.41326608231E+01 -0.37761427166E+01  0.33063049370E+01  0.65015222549E+01  0.00000000000E+00 0.  1.
</event>
<event>
 7    1  0.2312612E-008  0.4614232E+02  0.7816164E-02  0.1320468E+00
        -11   -1    0    0    0    0  0.00000000000E+00  0.00000000000E+00  0.45593999997E+02  0.45594000000E+02  0.51100000000E-03 0.  1.
         11   -1    0    0    0    0 -0.00000000000E+00 -0.00000000000E+00 -0.45593999997E+02  0.45594000000E+02  0.51100000000E-03 0. -1.
    9900012    2    1    2    0    0  0.32447559321E+02 -0.18754603459E+02  0.24990683235E+02  0.46142317573E+02  0.99999982828E+01 0.  0.
         12    1    1    2    0    0 -0.32447559321E+02  0.18754603459E+02 -0.24990683235E+02  0.45045682427E+02  0.00000000000E+00 0. -1.
         11    1    3    3    0    0  0.11429359154E+02 -0.59491088575E+01  0.60529854575E+01  0.14235897586E+02  0.51100000000E-03 0. -1.
        -11    1    3    3    0    0  0.17925948032E+02 -0.11630471883E+02  0.12731456259E+02  0.24873629969E+02  0.51100000000E-03 0.  1.
         12    1    3    3    0    0  0.30922521342E+01 -0.11750227181E+01  0.62062415182E+01  0.70327900176E+01  0.00000000000E+00 0. -1.
</event>
<event>
 7    1  0.2312612E-008  0.4614232E+02  0.7816164E-02  0.1320468E+00
        -11   -1    0    0    0    0  0.00000000000E+00  0.00000000000E+00  0.45593999997E+02  0.45594000000E+02  0.51100000000E-03 0.  1.
         11   -1    0    0    0    0 -0.00000000000E+00 -0.00000000000E+00 -0.45593999997E+02  0.45594000000E+02  0.51100000000E-03 0. -1.
    9900012    2    1    2    0    0 -0.25297865891E+02  0.37219463678E+02  0.19603359407E+01  0.46142318607E+02  0.10000007718E+02 0.  0.
         12    1    1    2    0    0  0.25297865891E+02 -0.37219463678E+02 -0.19603359407E+01  0.45045681393E+02  0.00000000000E+00 0. -1.
         11    1    3    3    0    0 -0.16110929133E+01  0.28826040778E+01  0.16664193175E+01  0.36989160909E+01  0.51100000000E-03 0. -1.
        -11    1    3    3    0    0 -0.68494197363E+01  0.84805258711E+01  0.34330055766E+01  0.11428884343E+02  0.51100000000E-03 0.  1.
        -12    1    3    3    0    0 -0.16837353242E+02  0.25856333729E+02 -0.31390889535E+01  0.31014518174E+02  0.00000000000E+00 0.  1.
</event>
<event>
 7    1  0.2312612E-008  0.4614232E+02  0.7816164E-02  0.1320468E+00
        -11   -1    0    0    0    0  0.00000000000E+00  0.00000000000E+00  0.45593999997E+02  0.45594000000E+02  0.51100000000E-03 0.  1.
         11   -1    0    0    0    0 -0.00000000000E+00 -0.00000000000E+00 -0.45593999997E+02  0.45594000000E+02  0.51100000000E-03 0. -1.
    9900012    2    1    2    0    0  0.18513225236E+02  0.40406052597E+02  0.73297335690E+01  0.46142316641E+02  0.99999897876E+01 0.  0.
         12    1    1    2    0    0 -0.18513225236E+02 -0.40406052597E+02 -0.73297335690E+01  0.45045683359E+02  0.00000000000E+00 0. -1.
         11    1    3    3    0    0  0.75000296648E+01  0.70336687315E+01  0.23795469000E+01  0.10553917970E+02  0.51100000000E-03 0. -1.
        -11    1    3    3    0    0  0.63555962236E+01  0.22263336196E+02  0.40956064141E+01  0.23512203939E+02  0.51100000000E-03 0.  1.
         12    1    3    3    0    0  0.46575993472E+01  0.11109047669E+02  0.85458025499E+00  0.12076194732E+02  0.00000000000E+00 0. -1.
</event>
<event>
 7    1  0.2312612E-008  0.4614232E+02  0.7816164E-02  0.1320468E+00
        -11   -1    0    0    0    0  0.00000000000E+00  0.00000000000E+00  0.45593999997E+02  0.45594000000E+02  0.51100000000E-03 0. -1.
         11   -1    0    0    0    0 -0.00000000000E+00 -0.00000000000E+00 -0.45593999997E+02  0.45594000000E+02  0.51100000000E-03 0.  1.
    9900012    2    1    2    0    0 -0.18642304799E+02  0.27505009173E+02 -0.30414674560E+02  0.46142317783E+02  0.10000000200E+02 0.  0.
         12    1    1    2    0    0  0.18642304799E+02 -0.27505009173E+02  0.30414674560E+02  0.45045682217E+02  0.00000000000E+00 0. -1.
         11    1    3    3    0    0 -0.28229933850E+01  0.37313909373E+01 -0.65541705258E+01  0.80529324796E+01  0.51100000000E-03 0. -1.
        -11    1    3    3    0    0 -0.12819542819E+02  0.23330264367E+02 -0.20819564011E+02  0.33794913217E+02  0.51100000000E-03 0.  1.
        -12    1    3    3    0    0 -0.29997685945E+01  0.44335386898E+00 -0.30409400231E+01  0.42944720860E+01  0.00000000000E+00 0.  1.
</event>
<event>
 7    1  0.2312612E-008  0.4614232E+02  0.7816164E-02  0.1320468E+00
        -11   -1    0    0    0    0  0.00000000000E+00  0.00000000000E+00  0.45593999997E+02  0.45594000000E+02  0.51100000000E-03 0.  1.
         11   -1    0    0    0    0 -0.00000000000E+00 -0.00000000000E+00 -0.45593999997E+02  0.45594000000E+02  0.51100000000E-03 0. -1.
    9900012    2    1    2    0    0 -0.37602856586E+02 -0.67787062823E+00  0.24792724691E+02  0.46142317303E+02  0.99999958240E+01 0.  0.
         12    1    1    2    0    0  0.37602856586E+02  0.67787062823E+00 -0.24792724691E+02  0.45045682697E+02  0.00000000000E+00 0. -1.
         11    1    3    3    0    0 -0.14541910234E+01  0.10300665024E+01  0.13087158113E+01  0.22109830094E+01  0.51100000000E-03 0. -1.
        -11    1    3    3    0    0 -0.19425360608E+01  0.19180240220E+01  0.17335324905E+01  0.32337899829E+01  0.51100000000E-03 0.  1.
        -12    1    3    3    0    0 -0.34206129502E+02 -0.36259611527E+01  0.21750476389E+02  0.40697544311E+02  0.00000000000E+00 0.  1.
</event>
<event>
 7    1  0.2312612E-008  0.4614232E+02  0.7816164E-02  0.1320468E+00
        -11   -1    0    0    0    0  0.00000000000E+00  0.00000000000E+00  0.45593999997E+02  0.45594000000E+02  0.51100000000E-03 0. -1.
         11   -1    0    0    0    0 -0.00000000000E+00 -0.00000000000E+00 -0.45593999997E+02  0.45594000000E+02  0.51100000000E-03 0.  1.
    9900012    2    1    2    0    0  0.33501118077E+02 -0.19253064933E+02 -0.23154007428E+02  0.46142317835E+02  0.10000000675E+02 0.  0.
         12    1    1    2    0    0 -0.33501118077E+02  0.19253064933E+02  0.23154007428E+02  0.45045682165E+02  0.00000000000E+00 0. -1.
         11    1    3    3    0    0  0.27634128207E+02 -0.17566206929E+02 -0.17107063463E+02  0.36944123866E+02  0.51100000000E-03 0. -1.
        -11    1    3    3    0    0  0.55991969358E+01 -0.15908296056E+01 -0.64606721889E+01  0.86960928326E+01  0.51100000000E-03 0.  1.
         12    1    3    3    0    0  0.26779293441E+00 -0.96028397911E-01  0.41372822324E+00  0.50210113686E+00  0.00000000000E+00 0. -1.
</event>
<event>
 7    1  0.2312612E-008  0.4614232E+02  0.7816164E-02  0.1320468E+00
        -11   -1    0    0    0    0  0.00000000000E+00  0.00000000000E+00  0.45593999997E+02  0.45594000000E+02  0.51100000000E-03 0.  1.
         11   -1    0    0    0    0 -0.00000000000E+00 -0.00000000000E+00 -0.45593999997E+02  0.45594000000E+02  0.51100000000E-03 0. -1.
    9900012    2    1    2    0    0 -0.39296420972E+02 -0.19758795559E+02  0.97208522158E+01  0.46142315734E+02  0.99999815147E+01 0.  0.
         12    1    1    2    0    0  0.39296420972E+02  0.19758795559E+02 -0.97208522158E+01  0.45045684266E+02  0.00000000000E+00 0. -1.
         11    1    3    3    0    0 -0.75209777622E+01 -0.18522118907E+01  0.50431409156E+00  0.77620956160E+01  0.51100000000E-03 0. -1.
        -11    1    3    3    0    0 -0.22299030322E+02 -0.93869148385E+01  0.84000422560E+01  0.25610967058E+02  0.51100000000E-03 0.  1.
        -12    1    3    3    0    0 -0.94764128878E+01 -0.85196688302E+01  0.81649586825E+00  0.12769253060E+02  0.00000000000E+00 0.  1.
</event>
<event>
 7    1  0.2312612E-008  0.4614232E+02  0.7816164E-02  0.1320468E+00
        -11   -1    0    0    0    0  0.00000000000E+00  0.00000000000E+00  0.45593999997E+02  0.45594000000E+02  0.51100000000E-03 0. -1.
         11   -1    0    0    0    0 -0.00000000000E+00 -0.00000000000E+00 -0.45593999997E+02  0.45594000000E+02  0.51100000000E-03 0.  1.
    9900012    2    1    2    0    0 -0.39852240138E+02 -0.29730374204E+01 -0.20786376528E+02  0.46142318246E+02  0.10000004423E+02 0.  0.
         12    1    1    2    0    0  0.39852240138E+02  0.29730374204E+01  0.20786376528E+02  0.45045681754E+02  0.00000000000E+00 0. -1.
         11    1    3    3    0    0 -0.20955276144E+01 -0.44362773044E+00 -0.25958281259E+01  0.33654666046E+01  0.51100000000E-03 0. -1.
        -11    1    3    3    0    0 -0.16771035741E+02 -0.33895161056E+01 -0.11936107091E+02  0.20862097498E+02  0.51100000000E-03 0.  1.
         12    1    3    3    0    0 -0.20985676783E+02  0.86010641565E+00 -0.62544413106E+01  0.21914754144E+02  0.00000000000E+00 0. -1.
</event>
<event>
 7    1  0.2312612E-008  0.4614232E+02  0.7816164E-02  0.1320468E+00
        -11   -1    0    0    0    0  0.00000000000E+00  0.00000000000E+00  0.45593999997E+02  0.45594000000E+02  0.51100000000E-03 0.  1.
         11   -1    0    0    0    0 -0.00000000000E+00 -0.00000000000E+00 -0.45593999997E+02  0.45594000000E+02  0.51100000000E-03 0. -1.
    9900012    2    1    2    0    0 -0.28702118744E+02 -0.13990914087E+02  0.31773514917E+02  0.46142317104E+02  0.99999940099E+01 0.  0.
         12    1    1    2    0    0  0.28702118744E+02  0.13990914087E+02 -0.31773514917E+02  0.45045682896E+02  0.00000000000E+00 0. -1.
         11    1    3    3    0    0 -0.10586975350E+02 -0.25107484085E+01  0.94799052654E+01  0.14431095202E+02  0.51100000000E-03 0. -1.
        -11    1    3    3    0    0 -0.45250660724E+00 -0.58491430656E+00  0.39340199673E+01  0.40029239738E+01  0.51100000000E-03 0.  1.
         12    1    3    3    0    0 -0.17662636787E+02 -0.10895251372E+02  0.18359589684E+02  0.27708297929E+02  0.00000000000E+00 0. -1.
</event>
<event>
 7    1  0.2312612E-008  0.4614232E+02  0.7816164E-02  0.1320468E+00
        -11   -1    0    0    0    0  0.00000000000E+00  0.00000000000E+00  0.45593999997E+02  0.45594000000E+02  0.51100000000E-03 0.  1.
         11   -1    0    0    0    0 -0.00000000000E+00 -0.00000000000E+00 -0.45593999997E+02  0.45594000000E+02  0.51100000000E-03 0. -1.
    9900012    2    1    2    0    0  0.32902489746E+01 -0.87778760117E+01  0.44059462277E+02  0.46142322497E+02  0.10000043184E+02 0.  0.
         12    1    1    2    0    0 -0.32902489746E+01  0.87778760117E+01 -0.44059462277E+02  0.45045677503E+02  0.00000000000E+00 0. -1.
         11    1    3    3    0    0 -0.72750974059E+00 -0.16484986591E+01  0.32843281443E+01  0.37461486719E+01  0.51100000000E-03 0. -1.
        -11    1    3    3    0    0  0.48744099423E+00 -0.78296655978E+01  0.24396175993E+02  0.25626444651E+02  0.51100000000E-03 0.  1.
        -12    1    3    3    0    0  0.35303177209E+01  0.70028824513E+00  0.16378958139E+02  0.16769729174E+02  0.00000000000E+00 0.  1.
</event>
<event>
 7    1  0.2312612E-008  0.4614232E+02  0.7816164E-02  0.1320468E+00
        -11   -1    0    0    0    0  0.00000000000E+00  0.00000000000E+00  0.45593999997E+02  0.45594000000E+02  0.51100000000E-03 0.  1.
         11   -1    0    0    0    0 -0.00000000000E+00 -0.00000000000E+00 -0.45593999997E+02  0.45594000000E+02  0.51100000000E-03 0. -1.
    9900012    2    1    2    0    0  0.36498326979E+02  0.12453665141E+02  0.23278568118E+02  0.46142318949E+02  0.10000010836E+02 0.  0.
         12    1    1    2    0    0 -0.36498326979E+02 -0.12453665141E+02 -0.23278568118E+02  0.45045681051E+02  0.00000000000E+00 0. -1.
         11    1    3    3    0    0  0.16642098003E+02  0.95336683812E+01  0.86292319447E+01  0.21031260137E+02  0.51100000000E-03 0. -1.
        -11    1    3    3    0    0  0.18000067811E+01  0.13899860508E+01  0.16322722831E+01  0.27993568370E+01  0.51100000000E-03 0.  1.
         12    1    3    3    0    0  0.18056222195E+02  0.15300107093E+01  0.13017063890E+02  0.22311701975E+02  0.00000000000E+00 0. -1.
</event>
<event>
 7    1  0.2312612E-008  0.4614231E+02  0.7816164E-02  0.1320468E+00
        -11   -1    0    0    0    0  0.00000000000E+00  0.00000000000E+00  0.45593999997E+02  0.45594000000E+02  0.51100000000E-03 0.  1.
         11   -1    0    0    0    0 -0.00000000000E+00 -0.00000000000E+00 -0.45593999997E+02  0.45594000000E+02  0.51100000000E-03 0. -1.
    9900012    2    1    2    0    0  0.18916243763E+02 -0.40864948204E+02  0.11599611339E+01  0.46142314527E+02  0.99999705116E+01 0.  0.
         12    1    1    2    0    0 -0.18916243763E+02  0.40864948204E+02 -0.11599611339E+01  0.45045685473E+02  0.00000000000E+00 0. -1.
         11    1    3    3    0    0  0.11531178538E+02 -0.21800924785E+02  0.26101866661E+01  0.24800432952E+02  0.51100000000E-03 0. -1.
        -11    1    3    3    0    0  0.29861163072E+01 -0.84512648397E+01  0.23058275972E+01  0.92551396078E+01  0.51100000000E-03 0.  1.
         12    1    3    3    0    0  0.43989489186E+01 -0.10612758580E+02 -0.37560531294E+01  0.12086741967E+02  0.00000000000E+00 0. -1.
</event>
<event>
 7    1  0.2312612E-008  0.4614232E+02  0.7816164E-02  0.1320468E+00
        -11   -1    0    0    0    0  0.00000000000E+00  0.00000000000E+00  0.45593999997E+02  0.45594000000E+02  0.51100000000E-03 0.  1.
         11   -1    0    0    0    0 -0.00000000000E+00 -0.00000000000E+00 -0.45593999997E+02  0.45594000000E+02  0.51100000000E-03 0. -1.
    9900012    2    1    2    0    0 -0.11645979989E+02  0.24894231629E+02  0.35689800665E+02  0.46142317745E+02  0.99999998521E+01 0.  0.
         12    1    1    2    0    0  0.11645979989E+02 -0.24894231629E+02 -0.35689800665E+02  0.45045682255E+02  0.00000000000E+00 0. -1.
         11    1    3    3    0    0 -0.40835721696E+00  0.31550365864E+01  0.92175763616E+01  0.97511397140E+01  0.51100000000E-03 0.  1.
        -11    1    3    3    0    0 -0.31100793042E+00 -0.68740278539E-01 -0.87361079788E-01  0.33027772868E+00  0.51100000000E-03 0. -1.
        -12    1    3    3    0    0 -0.10926614842E+02  0.21807935321E+02  0.26559585383E+02  0.36060900302E+02  0.00000000000E+00 0.  1.
</event>
<event>
 7    1  0.2312612E-008  0.4614232E+02  0.7816164E-02  0.1320468E+00
        -11   -1    0    0    0    0  0.00000000000E+00  0.00000000000E+00  0.45593999997E+02  0.45594000000E+02  0.51100000000E-03 0.  1.
         11   -1    0    0    0    0 -0.00000000000E+00 -0.00000000000E+00 -0.45593999997E+02  0.45594000000E+02  0.51100000000E-03 0. -1.
    9900012    2    1    2    0    0 -0.37413546724E+02  0.11291310569E+02  0.22401926512E+02  0.46142317806E+02  0.10000000414E+02 0.  0.
         12    1    1    2    0    0  0.37413546724E+02 -0.11291310569E+02 -0.22401926512E+02  0.45045682194E+02  0.00000000000E+00 0. -1.
         11    1    3    3    0    0 -0.12155268707E+02  0.59719410206E+01  0.50796531133E+01  0.14464353180E+02  0.51100000000E-03 0. -1.
        -11    1    3    3    0    0 -0.21070865656E+02  0.23358683824E+01  0.12400087833E+02  0.24560127018E+02  0.51100000000E-03 0.  1.
         12    1    3    3    0    0 -0.41874123609E+01  0.29835011662E+01  0.49221855654E+01  0.71178376091E+01  0.00000000000E+00 0. -1.
</event>
<event>
 7    1  0.2312612E-008  0.4614232E+02  0.7816164E-02  0.1320468E+00
        -11   -1    0    0    0    0  0.00000000000E+00  0.00000000000E+00  0.45593999997E+02  0.45594000000E+02  0.51100000000E-03 0. -1.
         11   -1    0    0    0    0 -0.00000000000E+00 -0.00000000000E+00 -0.45593999997E+02  0.45594000000E+02  0.51100000000E-03 0.  1.
    9900012    2    1    2    0    0 -0.23579811665E+02  0.25417086780E+02 -0.28758955336E+02  0.46142319513E+02  0.10000015972E+02 0.  0.
         12    1    1    2    0    0  0.23579811665E+02 -0.25417086780E+02  0.28758955336E+02  0.45045680487E+02  0.00000000000E+00 0. -1.
         11    1    3    3    0    0 -0.68322328065E+01  0.74050285853E+01 -0.59803510058E+01  0.11716588748E+02  0.51100000000E-03 0. -1.
        -11    1    3    3    0    0 -0.16758722356E+02  0.16078534140E+02 -0.18368589847E+02  0.29610456402E+02  0.51100000000E-03 0.  1.
        -12    1    3    3    0    0  0.11143497355E-01  0.19335240544E+01 -0.44100144832E+01  0.48152743628E+01  0.00000000000E+00 0.  1.
</event>
<event>
 7    1  0.2312612E-008  0.4614232E+02  0.7816164E-02  0.1320468E+00
        -11   -1    0    0    0    0  0.00000000000E+00  0.00000000000E+00  0.45593999997E+02  0.45594000000E+02  0.51100000000E-03 0.  1.
         11   -1    0    0    0    0 -0.00000000000E+00 -0.00000000000E+00 -0.45593999997E+02  0.45594000000E+02  0.51100000000E-03 0. -1.
    9900012    2    1    2    0    0  0.39409425777E+01 -0.32811519219E+02  0.30610235716E+02  0.46142319270E+02  0.10000013758E+02 0.  0.
         12    1    1    2    0    0 -0.39409425777E+01  0.32811519219E+02 -0.30610235716E+02  0.45045680730E+02  0.00000000000E+00 0. -1.
         11    1    3    3    0    0 -0.11346492765E+01 -0.13262617002E+02  0.12454390205E+02  0.18228995429E+02  0.51100000000E-03 0. -1.
        -11    1    3    3    0    0  0.58001530877E+01 -0.19422301827E+02  0.18101225455E+02  0.27175760290E+02  0.51100000000E-03 0.  1.
        -12    1    3    3    0    0 -0.72456123356E+00 -0.12660039009E+00  0.54620054940E-01  0.73756355004E+00  0.00000000000E+00 0.  1.
</event>
<event>
 7    1  0.2312612E-008  0.4614232E+02  0.7816164E-02  0.1320468E+00
        -11   -1    0    0    0    0  0.00000000000E+00  0.00000000000E+00  0.45593999997E+02  0.45594000000E+02  0.51100000000E-03 0. -1.
         11   -1    0    0    0    0 -0.00000000000E+00 -0.00000000000E+00 -0.45593999997E+02  0.45594000000E+02  0.51100000000E-03 0.  1.
    9900012    2    1    2    0    0 -0.23315297624E+02 -0.31948673652E+02 -0.21559051132E+02  0.46142317219E+02  0.99999950604E+01 0.  0.
         12    1    1    2    0    0  0.23315297624E+02  0.31948673652E+02  0.21559051132E+02  0.45045682781E+02  0.00000000000E+00 0. -1.
         11    1    3    3    0    0 -0.10720950892E+02 -0.19254234062E+02 -0.12864013956E+02  0.25517585557E+02  0.51100000000E-03 0. -1.
        -11    1    3    3    0    0 -0.20114540566E+01 -0.34929700916E+01 -0.43794454193E+01  0.59520021778E+01  0.51100000000E-03 0.  1.
         12    1    3    3    0    0 -0.10582892675E+02 -0.92014694992E+01 -0.43155917567E+01  0.14672729484E+02  0.00000000000E+00 0. -1.
</event>
<event>
 7    1  0.2312612E-008  0.4614232E+02  0.7816164E-02  0.1320468E+00
        -11   -1    0    0    0    0  0.00000000000E+00  0.00000000000E+00  0.45593999997E+02  0.45594000000E+02  0.51100000000E-03 0.  1.
         11   -1    0    0    0    0 -0.00000000000E+00 -0.00000000000E+00 -0.45593999997E+02  0.45594000000E+02  0.51100000000E-03 0. -1.
    9900012    2    1    2    0    0 -0.38430472296E+02 -0.10414694323E+02  0.21065281435E+02  0.46142321621E+02  0.10000035195E+02 0.  0.
         12    1    1    2    0    0  0.38430472296E+02  0.10414694323E+02 -0.21065281435E+02  0.45045678379E+02  0.00000000000E+00 0. -1.
         11    1    3    3    0    0 -0.22668280993E+00  0.10602459359E+01  0.93958793647E+00  0.14346889184E+01  0.51100000000E-03 0. -1.
        -11    1    3    3    0    0 -0.15886191824E+02 -0.39839842066E+01  0.80280852141E+01  0.18239884136E+02  0.51100000000E-03 0.  1.
         12    1    3    3    0    0 -0.22317597662E+02 -0.74909560523E+01  0.12097608284E+02  0.26467748567E+02  0.00000000000E+00 0. -1.
</event>
<event>
 7    1  0.2312612E-008  0.4614231E+02  0.7816164E-02  0.1320468E+00
        -11   -1    0    0    0    0  0.00000000000E+00  0.00000000000E+00  0.45593999997E+02  0.45594000000E+02  0.51100000000E-03 0. -1.
         11   -1    0    0    0    0 -0.00000000000E+00 -0.00000000000E+00 -0.45593999997E+02  0.45594000000E+02  0.51100000000E-03 0.  1.
    9900012    2    1    2    0    0 -0.34502117964E+02  0.45417288789E+01 -0.28602280492E+02  0.46142313252E+02  0.99999588849E+01 0.  0.
         12    1    1    2    0    0  0.34502117964E+02 -0.45417288789E+01  0.28602280492E+02  0.45045686748E+02  0.00000000000E+00 0. -1.
         11    1    3    3    0    0 -0.63838014367E+01  0.47301359607E+01 -0.55862358108E+01  0.97125247894E+01  0.51100000000E-03 0. -1.
        -11    1    3    3    0    0 -0.53112126531E+01  0.95430350453E+00 -0.47010663116E+01  0.71567939577E+01  0.51100000000E-03 0.  1.
        -12    1    3    3    0    0 -0.22807103874E+02 -0.11427105863E+01 -0.18314978370E+02  0.29272994505E+02  0.00000000000E+00 0.  1.
</event>
<event>
 7    1  0.2312612E-008  0.4614232E+02  0.7816164E-02  0.1320468E+00
        -11   -1    0    0    0    0  0.00000000000E+00  0.00000000000E+00  0.45593999997E+02  0.45594000000E+02  0.51100000000E-03 0.  1.
         11   -1    0    0    0    0 -0.00000000000E+00 -0.00000000000E+00 -0.45593999997E+02  0.45594000000E+02  0.51100000000E-03 0. -1.
    9900012    2    1    2    0    0  0.17271433820E+02  0.40674697806E+02  0.87395660927E+01  0.46142317818E+02  0.10000000515E+02 0.  0.
         12    1    1    2    0    0 -0.17271433820E+02 -0.40674697806E+02 -0.87395660927E+01  0.45045682182E+02  0.00000000000E+00 0. -1.
         11    1    3    3    0    0  0.33364191904E+01  0.53706959582E+01  0.37399180984E+01  0.73459550593E+01  0.51100000000E-03 0. -1.
        -11    1    3    3    0    0  0.62756702015E+01  0.23614815044E+02  0.42488750136E+01  0.24801138385E+02  0.51100000000E-03 0.  1.
        -12    1    3    3    0    0  0.76593444281E+01  0.11689186804E+02  0.75077298067E+00  0.13995224373E+02  0.00000000000E+00 0.  1.
</event>
<event>
 7    1  0.2312612E-008  0.4614232E+02  0.7816164E-02  0.1320468E+00
        -11   -1    0    0    0    0  0.00000000000E+00  0.00000000000E+00  0.45593999997E+02  0.45594000000E+02  0.51100000000E-03 0.  1.
         11   -1    0    0    0    0 -0.00000000000E+00 -0.00000000000E+00 -0.45593999997E+02  0.45594000000E+02  0.51100000000E-03 0. -1.
    9900012    2    1    2    0    0  0.41937641629E+02  0.15582068445E+02  0.52485105988E+01  0.46142317566E+02  0.99999982197E+01 0.  0.
         12    1    1    2    0    0 -0.41937641629E+02 -0.15582068445E+02 -0.52485105988E+01  0.45045682434E+02  0.00000000000E+00 0. -1.
         11    1    3    3    0    0  0.13408382907E+02  0.97316477374E+01  0.28292659343E+01  0.16807571087E+02  0.51100000000E-03 0. -1.
        -11    1    3    3    0    0  0.13162119842E+02  0.35958253051E+01  0.20588065447E+01  0.13798914559E+02  0.51100000000E-03 0.  1.
         12    1    3    3    0    0  0.15367138880E+02  0.22545954026E+01  0.36043811978E+00  0.15535831919E+02  0.00000000000E+00 0. -1.
</event>
<event>
 7    1  0.2312612E-008  0.4614232E+02  0.7816164E-02  0.1320468E+00
        -11   -1    0    0    0    0  0.00000000000E+00  0.00000000000E+00  0.45593999997E+02  0.45594000000E+02  0.51100000000E-03 0.  1.
         11   -1    0    0    0    0 -0.00000000000E+00 -0.00000000000E+00 -0.45593999997E+02  0.45594000000E+02  0.51100000000E-03 0. -1.
    9900012    2    1    2    0    0 -0.18598516300E+02 -0.38363650554E+02  0.14540944188E+02  0.46142317075E+02  0.99999937390E+01 0.  0.
         12    1    1    2    0    0  0.18598516300E+02  0.38363650554E+02 -0.14540944188E+02  0.45045682925E+02  0.00000000000E+00 0. -1.
         11    1    3    3    0    0 -0.17865493560E+01 -0.13807103240E+01  0.17187378853E+01  0.28376363015E+01  0.51100000000E-03 0. -1.
        -11    1    3    3    0    0 -0.53557445248E+01 -0.77275682887E+01  0.60017999472E+01  0.11154412308E+02  0.51100000000E-03 0.  1.
         12    1    3    3    0    0 -0.11456222419E+02 -0.29255371941E+02  0.68204063554E+01  0.32150268465E+02  0.00000000000E+00 0. -1.
</event>
<event>
 7    1  0.2312612E-008  0.4614232E+02  0.7816164E-02  0.1320468E+00
        -11   -1    0    0    0    0  0.00000000000E+00  0.00000000000E+00  0.45593999997E+02  0.45594000000E+02  0.51100000000E-03 0. -1.
         11   -1    0    0    0    0 -0.00000000000E+00 -0.00000000000E+00 -0.45593999997E+02  0.45594000000E+02  0.51100000000E-03 0.  1.
    9900012    2    1    2    0    0 -0.24996632045E+02 -0.32662830615E+02 -0.18369031861E+02  0.46142318199E+02  0.10000003993E+02 0.  0.
         12    1    1    2    0    0  0.24996632045E+02  0.32662830615E+02  0.18369031861E+02  0.45045681801E+02  0.00000000000E+00 0. -1.
         11    1    3    3    0    0 -0.16555785215E+01 -0.42990696914E+01 -0.57687031331E+00  0.46428138097E+01  0.51100000000E-03 0. -1.
        -11    1    3    3    0    0 -0.91997999927E+01 -0.15770962412E+02 -0.11348578031E+02  0.21497669615E+02  0.51100000000E-03 0.  1.
        -12    1    3    3    0    0 -0.14141253531E+02 -0.12592798512E+02 -0.64435835172E+01  0.20001834774E+02  0.00000000000E+00 0.  1.
</event>
<event>
 7    1  0.2312612E-008  0.4614232E+02  0.7816164E-02  0.1320468E+00
        -11   -1    0    0    0    0  0.00000000000E+00  0.00000000000E+00  0.45593999997E+02  0.45594000000E+02  0.51100000000E-03 0. -1.
         11   -1    0    0    0    0 -0.00000000000E+00 -0.00000000000E+00 -0.45593999997E+02  0.45594000000E+02  0.51100000000E-03 0.  1.
    9900012    2    1    2    0    0  0.20488937895E+01  0.23551836613E+02 -0.38343526173E+02  0.46142323482E+02  0.10000052164E+02 0.  0.
         12    1    1    2    0    0 -0.20488937895E+01 -0.23551836613E+02  0.38343526173E+02  0.45045676518E+02  0.00000000000E+00 0. -1.
         11    1    3    3    0    0 -0.18930068331E+01  0.13432271244E+01 -0.43913013826E+01  0.49670174222E+01  0.51100000000E-03 0. -1.
        -11    1    3    3    0    0  0.43953882777E+01  0.86793389146E+01 -0.13188083159E+02  0.16388285444E+02  0.51100000000E-03 0.  1.
        -12    1    3    3    0    0 -0.45348765510E+00  0.13529270574E+02 -0.20764141631E+02  0.24787020616E+02  0.00000000000E+00 0.  1.
</event>
<event>
 7    1  0.2312612E-008  0.4614232E+02  0.7816164E-02  0.1320468E+00
        -11   -1    0    0    0    0  0.00000000000E+00  0.00000000000E+00  0.45593999997E+02  0.45594000000E+02  0.51100000000E-03 0.  1.
         11   -1    0    0    0    0 -0.00000000000E+00 -0.00000000000E+00 -0.45593999997E+02  0.45594000000E+02  0.51100000000E-03 0. -1.
    9900012    2    1    2    0    0 -0.80339491396E+01  0.44213276959E+02  0.31233504284E+01  0.46142317453E+02  0.99999971914E+01 0.  0.
         12    1    1    2    0    0  0.80339491396E+01 -0.44213276959E+02 -0.31233504284E+01  0.45045682547E+02  0.00000000000E+00 0. -1.
         11    1    3    3    0    0  0.12350278273E+01  0.61960770762E+01  0.23764273415E+01  0.67501164463E+01  0.51100000000E-03 0. -1.
        -11    1    3    3    0    0 -0.53176644847E+01  0.21463268573E+02  0.26357311688E+01  0.22268734415E+02  0.51100000000E-03 0.  1.
         12    1    3    3    0    0 -0.39513124821E+01  0.16553931310E+02 -0.18888080819E+01  0.17123466591E+02  0.00000000000E+00 0. -1.
</event>
<event>
 7    1  0.2312612E-008  0.4614232E+02  0.7816164E-02  0.1320468E+00
        -11   -1    0    0    0    0  0.00000000000E+00  0.00000000000E+00  0.45593999997E+02  0.45594000000E+02  0.51100000000E-03 0.  1.
         11   -1    0    0    0    0 -0.00000000000E+00 -0.00000000000E+00 -0.45593999997E+02  0.45594000000E+02  0.51100000000E-03 0. -1.
    9900012    2    1    2    0    0  0.40414178827E+00 -0.39141827533E+01  0.44873481917E+02  0.46142317226E+02  0.99999951196E+01 0.  0.
         12    1    1    2    0    0 -0.40414178827E+00  0.39141827533E+01 -0.44873481917E+02  0.45045682774E+02  0.00000000000E+00 0. -1.
         11    1    3    3    0    0 -0.19528325229E+01 -0.29443716141E+01  0.50010945600E+01  0.61232202413E+01  0.51100000000E-03 0. -1.
        -11    1    3    3    0    0  0.11930011569E+01  0.42069055774E+00  0.25707948364E+02  0.25739052850E+02  0.51100000000E-03 0.  1.
         12    1    3    3    0    0  0.11639731543E+01 -0.13905016969E+01  0.14164438994E+02  0.14280044134E+02  0.00000000000E+00 0. -1.
</event>
<event>
 7    1  0.2312612E-008  0.4614232E+02  0.7816164E-02  0.1320468E+00
        -11   -1    0    0    0    0  0.00000000000E+00  0.00000000000E+00  0.45593999997E+02  0.45594000000E+02  0.51100000000E-03 0.  1.
         11   -1    0    0    0    0 -0.00000000000E+00 -0.00000000000E+00 -0.45593999997E+02  0.45594000000E+02  0.51100000000E-03 0. -1.
    9900012    2    1    2    0    0 -0.37023843741E+02 -0.22492980935E+02  0.12345617618E+02  0.46142317953E+02  0.10000001745E+02 0.  0.
         12    1    1    2    0    0  0.37023843741E+02  0.22492980935E+02 -0.12345617618E+02  0.45045682047E+02  0.00000000000E+00 0. -1.
         11    1    3    3    0    0 -0.16704964299E+01 -0.96207119592E+00  0.10348943002E+01  0.21879547029E+01  0.51100000000E-03 0. -1.
        -11    1    3    3    0    0 -0.30546874835E+02 -0.18863349282E+02  0.13032353882E+02  0.38193975392E+02  0.51100000000E-03 0.  1.
         12    1    3    3    0    0 -0.48064724771E+01 -0.26675604570E+01 -0.17216305643E+01  0.57603878572E+01  0.00000000000E+00 0. -1.
</event>
<event>
 7    1  0.2312612E-008  0.4614232E+02  0.7816164E-02  0.1320468E+00
        -11   -1    0    0    0    0  0.00000000000E+00  0.00000000000E+00  0.45593999997E+02  0.45594000000E+02  0.51100000000E-03 0.  1.
         11   -1    0    0    0    0 -0.00000000000E+00 -0.00000000000E+00 -0.45593999997E+02  0.45594000000E+02  0.51100000000E-03 0. -1.
    9900012    2    1    2    0    0 -0.44156580993E+02 -0.70797519888E+01  0.54024984339E+01  0.46142317382E+02  0.99999965424E+01 0.  0.
         12    1    1    2    0    0  0.44156580993E+02  0.70797519888E+01 -0.54024984339E+01  0.45045682618E+02  0.00000000000E+00 0. -1.
         11    1    3    3    0    0 -0.10448801779E+02  0.22064476924E+01  0.58091560330E+00  0.10695014410E+02  0.51100000000E-03 0. -1.
        -11    1    3    3    0    0 -0.13450758493E+02 -0.36444880102E+01  0.30155364352E+00  0.13939014734E+02  0.51100000000E-03 0.  1.
        -12    1    3    3    0    0 -0.20257020720E+02 -0.56417116711E+01  0.45200291871E+01  0.21508288237E+02  0.00000000000E+00 0.  1.
</event>
<event>
 7    1  0.2312612E-008  0.4614232E+02  0.7816164E-02  0.1320468E+00
        -11   -1    0    0    0    0  0.00000000000E+00  0.00000000000E+00  0.45593999997E+02  0.45594000000E+02  0.51100000000E-03 0. -1.
         11   -1    0    0    0    0 -0.00000000000E+00 -0.00000000000E+00 -0.45593999997E+02  0.45594000000E+02  0.51100000000E-03 0.  1.
    9900012    2    1    2    0    0  0.31768830154E+02  0.27516687659E+02 -0.16207616224E+02  0.46142317713E+02  0.99999995587E+01 0.  0.
         12    1    1    2    0    0 -0.31768830154E+02 -0.27516687659E+02  0.16207616224E+02  0.45045682287E+02  0.00000000000E+00 0. -1.
         11    1    3    3    0    0  0.16816845917E+01  0.30097923995E+01 -0.25666440153E+00  0.34572807566E+01  0.51100000000E-03 0. -1.
        -11    1    3    3    0    0  0.16320112637E+02  0.17532173289E+02 -0.75534444360E+01  0.25115288170E+02  0.51100000000E-03 0.  1.
         12    1    3    3    0    0  0.13767032925E+02  0.69747219705E+01 -0.83975073864E+01  0.17569748787E+02  0.00000000000E+00 0. -1.
</event>
<event>
 7    1  0.2312612E-008  0.4614232E+02  0.7816164E-02  0.1320468E+00
        -11   -1    0    0    0    0  0.00000000000E+00  0.00000000000E+00  0.45593999997E+02  0.45594000000E+02  0.51100000000E-03 0.  1.
         11   -1    0    0    0    0 -0.00000000000E+00 -0.00000000000E+00 -0.45593999997E+02  0.45594000000E+02  0.51100000000E-03 0. -1.
    9900012    2    1    2    0    0 -0.35220343093E+02 -0.28079494962E+02 -0.42762265578E+00  0.46142318009E+02  0.10000002260E+02 0.  0.
         12    1    1    2    0    0  0.35220343093E+02  0.28079494962E+02  0.42762265578E+00  0.45045681991E+02  0.00000000000E+00 0. -1.
         11    1    3    3    0    0 -0.15056406840E+02 -0.11721086896E+02  0.31126260025E+01  0.19333072850E+02  0.51100000000E-03 0. -1.
        -11    1    3    3    0    0 -0.11049717779E+02 -0.12427007837E+02 -0.17207277325E+01  0.16717885362E+02  0.51100000000E-03 0.  1.
         12    1    3    3    0    0 -0.91142184738E+01 -0.39314002293E+01 -0.18195209257E+01  0.10091359797E+02  0.00000000000E+00 0. -1.
</event>
<event>
 7    1  0.2312612E-008  0.4614232E+02  0.7816164E-02  0.1320468E+00
        -11   -1    0    0    0    0  0.00000000000E+00  0.00000000000E+00  0.45593999997E+02  0.45594000000E+02  0.51100000000E-03 0. -1.
         11   -1    0    0    0    0 -0.00000000000E+00 -0.00000000000E+00 -0.45593999997E+02  0.45594000000E+02  0.51100000000E-03 0.  1.
    9900012    2    1    2    0    0 -0.40938203755E+02 -0.12317852605E+02  0.14193217462E+02  0.46142318283E+02  0.10000004758E+02 0.  0.
         12    1    1    2    0    0  0.40938203755E+02  0.12317852605E+02 -0.14193217462E+02  0.45045681717E+02  0.00000000000E+00 0. -1.
         11    1    3    3    0    0 -0.14188607836E+02 -0.33389625721E+01  0.59854642925E+01  0.15757253773E+02  0.51100000000E-03 0. -1.
        -11    1    3    3    0    0 -0.19401135324E+02 -0.50783607542E+01  0.90904806611E+01  0.22018870060E+02  0.51100000000E-03 0.  1.
         12    1    3    3    0    0 -0.73484605945E+01 -0.39005292785E+01 -0.88272749182E+00  0.83661944506E+01  0.00000000000E+00 0. -1.
</event>
<event>
 7    1  0.2312612E-008  0.4614232E+02  0.7816164E-02  0.1320468E+00
        -11   -1    0    0    0    0  0.00000000000E+00  0.00000000000E+00  0.45593999997E+02  0.45594000000E+02  0.51100000000E-03 0.  1.
         11   -1    0    0    0    0 -0.00000000000E+00 -0.00000000000E+00 -0.45593999997E+02  0.45594000000E+02  0.51100000000E-03 0. -1.
    9900012    2    1    2    0    0 -0.26703263783E+02 -0.70506485716E+01  0.35585640089E+02  0.46142315163E+02  0.99999763063E+01 0.  0.
         12    1    1    2    0    0  0.26703263783E+02  0.70506485716E+01 -0.35585640089E+02  0.45045684837E+02  0.00000000000E+00 0. -1.
         11    1    3    3    0    0 -0.72458776848E+01 -0.14906757582E+01  0.12346446339E+02  0.14393039814E+02  0.51100000000E-03 0. -1.
        -11    1    3    3    0    0 -0.95275777420E+01  0.11695747474E+01  0.94015448459E+01  0.13436208114E+02  0.51100000000E-03 0.  1.
        -12    1    3    3    0    0 -0.99298083560E+01 -0.67295475608E+01  0.13837648904E+02  0.18313067235E+02  0.00000000000E+00 0.  1.
</event>
<event>
 7    1  0.2312612E-008  0.4614232E+02  0.7816164E-02  0.1320468E+00
        -11   -1    0    0    0    0  0.00000000000E+00  0.00000000000E+00  0.45593999997E+02  0.45594000000E+02  0.51100000000E-03 0. -1.
         11   -1    0    0    0    0 -0.00000000000E+00 -0.00000000000E+00 -0.45593999997E+02  0.45594000000E+02  0.51100000000E-03 0.  1.
    9900012    2    1    2    0    0  0.33862845150E+02 -0.11064327635E+02 -0.27568132419E+02  0.46142317047E+02  0.99999934847E+01 0.  0.
         12    1    1    2    0    0 -0.33862845150E+02  0.11064327635E+02  0.27568132419E+02  0.45045682953E+02  0.00000000000E+00 0. -1.
         11    1    3    3    0    0  0.18652586014E+02 -0.63410130965E+01 -0.20169179273E+02  0.28194382506E+02  0.51100000000E-03 0. -1.
        -11    1    3    3    0    0  0.59390806317E+01 -0.37635521264E+01 -0.31895461040E+01  0.77207647269E+01  0.51100000000E-03 0.  1.
         12    1    3    3    0    0  0.92711785045E+01 -0.95976241208E+00 -0.42094070418E+01  0.10227169813E+02  0.00000000000E+00 0. -1.
</event>
<event>
 7    1  0.2312612E-008  0.4614232E+02  0.7816164E-02  0.1320468E+00
        -11   -1    0    0    0    0  0.00000000000E+00  0.00000000000E+00  0.45593999997E+02  0.45594000000E+02  0.51100000000E-03 0.  1.
         11   -1    0    0    0    0 -0.00000000000E+00 -0.00000000000E+00 -0.45593999997E+02  0.45594000000E+02  0.51100000000E-03 0. -1.
    9900012    2    1    2    0    0  0.19418358329E+02  0.38804582949E+02 -0.12093184442E+02  0.46142318653E+02  0.10000008134E+02 0.  0.
         12    1    1    2    0    0 -0.19418358329E+02 -0.38804582949E+02  0.12093184442E+02  0.45045681347E+02  0.00000000000E+00 0. -1.
         11    1    3    3    0    0  0.14246106552E+02  0.23095469638E+02 -0.62815020472E+01  0.27853357749E+02  0.51100000000E-03 0. -1.
        -11    1    3    3    0    0  0.29853805193E+01  0.83872563960E+01 -0.37463086669E+00  0.89106068954E+01  0.51100000000E-03 0.  1.
         12    1    3    3    0    0  0.21868712584E+01  0.73218569150E+01 -0.54370515284E+01  0.93783540084E+01  0.00000000000E+00 0. -1.
</event>
<event>
 7    1  0.2312612E-008  0.4614232E+02  0.7816164E-02  0.1320468E+00
        -11   -1    0    0    0    0  0.00000000000E+00  0.00000000000E+00  0.45593999997E+02  0.45594000000E+02  0.51100000000E-03 0. -1.
         11   -1    0    0    0    0 -0.00000000000E+00 -0.00000000000E+00 -0.45593999997E+02  0.45594000000E+02  0.51100000000E-03 0.  1.
    9900012    2    1    2    0    0 -0.40621939363E+02  0.15494675546E+02 -0.11785015937E+02  0.46142317315E+02  0.99999959334E+01 0.  0.
         12    1    1    2    0    0  0.40621939363E+02 -0.15494675546E+02  0.11785015937E+02  0.45045682685E+02  0.00000000000E+00 0. -1.
         11    1    3    3    0    0 -0.16727827238E+02  0.47499968648E+01 -0.66743291816E+01  0.18626039423E+02  0.51100000000E-03 0. -1.
        -11    1    3    3    0    0 -0.12031273533E+02  0.83086902530E+01 -0.48441591223E+01  0.15402978751E+02  0.51100000000E-03 0.  1.
         12    1    3    3    0    0 -0.11862838593E+02  0.24359884282E+01 -0.26652763343E+00  0.12113299141E+02  0.00000000000E+00 0. -1.
</event>
<event>
 7    1  0.2312612E-008  0.4614232E+02  0.7816164E-02  0.1320468E+00
        -11   -1    0    0    0    0  0.00000000000E+00  0.00000000000E+00  0.45593999997E+02  0.45594000000E+02  0.51100000000E-03 0.  1.
         11   -1    0    0    0    0 -0.00000000000E+00 -0.00000000000E+00 -0.45593999997E+02  0.45594000000E+02  0.51100000000E-03 0. -1.
    9900012    2    1    2    0    0 -0.33438793667E+01 -0.30003018005E+00  0.44920396195E+02  0.46142317169E+02  0.99999946049E+01 0.  0.
         12    1    1    2    0    0  0.33438793667E+01  0.30003018005E+00 -0.44920396195E+02  0.45045682831E+02  0.00000000000E+00 0. -1.
         11    1    3    3    0    0  0.22675534084E+00 -0.60387606850E+00  0.29613357629E+02  0.29620382081E+02  0.51100000000E-03 0. -1.
        -11    1    3    3    0    0 -0.11971702385E+01 -0.14497330595E+01  0.11753109680E+02  0.11902543003E+02  0.51100000000E-03 0.  1.
         12    1    3    3    0    0 -0.23734644690E+01  0.17535789480E+01  0.35539288860E+01  0.46193920855E+01  0.00000000000E+00 0. -1.
</event>
<event>
 7    1  0.2312612E-008  0.4614232E+02  0.7816164E-02  0.1320468E+00
        -11   -1    0    0    0    0  0.00000000000E+00  0.00000000000E+00  0.45593999997E+02  0.45594000000E+02  0.51100000000E-03 0.  1.
         11   -1    0    0    0    0 -0.00000000000E+00 -0.00000000000E+00 -0.45593999997E+02  0.45594000000E+02  0.51100000000E-03 0. -1.
    9900012    2    1    2    0    0  0.73682727214E+01  0.24812413308E+02  0.36866872747E+02  0.46142316487E+02  0.99999883812E+01 0.  0.
         12    1    1    2    0    0 -0.73682727214E+01 -0.24812413308E+02 -0.36866872747E+02  0.45045683513E+02  0.00000000000E+00 0. -1.
         11    1    3    3    0    0  0.31698274627E+01  0.53062219369E+01  0.52842388228E+01  0.81318495795E+01  0.51100000000E-03 0. -1.
        -11    1    3    3    0    0  0.86017023662E+00  0.21437626911E+01  0.92085829911E+01  0.94938723541E+01  0.51100000000E-03 0.  1.
        -12    1    3    3    0    0  0.33382750222E+01  0.17362428680E+02  0.22374050933E+02  0.28516594553E+02  0.00000000000E+00 0.  1.
</event>
<event>
 7    1  0.2312612E-008  0.4614232E+02  0.7816164E-02  0.1320468E+00
        -11   -1    0    0    0    0  0.00000000000E+00  0.00000000000E+00  0.45593999997E+02  0.45594000000E+02  0.51100000000E-03 0.  1.
         11   -1    0    0    0    0 -0.00000000000E+00 -0.00000000000E+00 -0.45593999997E+02  0.45594000000E+02  0.51100000000E-03 0. -1.
    9900012    2    1    2    0    0 -0.85164189263E+01 -0.17712797273E+02  0.40531975292E+02  0.46142316526E+02  0.99999887399E+01 0.  0.
         12    1    1    2    0    0  0.85164189263E+01  0.17712797273E+02 -0.40531975292E+02  0.45045683474E+02  0.00000000000E+00 0. -1.
         11    1    3    3    0    0  0.65276487860E-02 -0.58303369271E+01  0.10965475673E+02  0.12419119465E+02  0.51100000000E-03 0. -1.
        -11    1    3    3    0    0 -0.46951211420E+01 -0.88836574976E+01  0.25415848673E+02  0.27329999947E+02  0.51100000000E-03 0.  1.
         12    1    3    3    0    0 -0.38278254331E+01 -0.29988028480E+01  0.41506509464E+01  0.63931971146E+01  0.00000000000E+00 0. -1.
</event>
<event>
 7    1  0.2312612E-008  0.4614232E+02  0.7816164E-02  0.1320468E+00
        -11   -1    0    0    0    0  0.00000000000E+00  0.00000000000E+00  0.45593999997E+02  0.45594000000E+02  0.51100000000E-03 0.  1.
         11   -1    0    0    0    0 -0.00000000000E+00 -0.00000000000E+00 -0.45593999997E+02  0.45594000000E+02  0.51100000000E-03 0. -1.
    9900012    2    1    2    0    0 -0.14736355262E+02  0.41006701781E+02  0.11419440060E+02  0.46142319090E+02  0.10000012118E+02 0.  0.
         12    1    1    2    0    0  0.14736355262E+02 -0.41006701781E+02 -0.11419440060E+02  0.45045680910E+02  0.00000000000E+00 0. -1.
         11    1    3    3    0    0 -0.10454441413E+02  0.30902913412E+02  0.53827299973E+01  0.33064470132E+02  0.51100000000E-03 0. -1.
        -11    1    3    3    0    0 -0.26394994026E+01  0.73404251687E+01  0.22663532761E+01  0.81231247798E+01  0.51100000000E-03 0.  1.
         12    1    3    3    0    0 -0.16424144461E+01  0.27633632005E+01  0.37703567863E+01  0.49547241787E+01  0.00000000000E+00 0. -1.
</event>
<event>
 7    1  0.2312612E-008  0.4614232E+02  0.7816164E-02  0.1320468E+00
        -11   -1    0    0    0    0  0.00000000000E+00  0.00000000000E+00  0.45593999997E+02  0.45594000000E+02  0.51100000000E-03 0. -1.
         11   -1    0    0    0    0 -0.00000000000E+00 -0.00000000000E+00 -0.45593999997E+02  0.45594000000E+02  0.51100000000E-03 0.  1.
    9900012    2    1    2    0    0  0.34273420095E+02 -0.28742317254E+02 -0.53221533797E+01  0.46142318268E+02  0.10000004618E+02 0.  0.
         12    1    1    2    0    0 -0.34273420095E+02  0.28742317254E+02  0.53221533797E+01  0.45045681732E+02  0.00000000000E+00 0. -1.
         11    1    3    3    0    0  0.40027766999E+01 -0.19472294729E+01 -0.24441687111E+01  0.50781773186E+01  0.51100000000E-03 0. -1.
        -11    1    3    3    0    0  0.16553168951E+02 -0.17074525188E+02 -0.43929802937E+01  0.24183570639E+02  0.51100000000E-03 0.  1.
         12    1    3    3    0    0  0.13717474445E+02 -0.97205625925E+01  0.15149956251E+01  0.16880570310E+02  0.00000000000E+00 0. -1.
</event>
<event>
 7    1  0.2312612E-008  0.4614232E+02  0.7816164E-02  0.1320468E+00
        -11   -1    0    0    0    0  0.00000000000E+00  0.00000000000E+00  0.45593999997E+02  0.45594000000E+02  0.51100000000E-03 0. -1.
         11   -1    0    0    0    0 -0.00000000000E+00 -0.00000000000E+00 -0.45593999997E+02  0.45594000000E+02  0.51100000000E-03 0.  1.
    9900012    2    1    2    0    0  0.83846938545E+01  0.22371715668E+02 -0.38187913387E+02  0.46142317834E+02  0.10000000666E+02 0.  0.
         12    1    1    2    0    0 -0.83846938545E+01 -0.22371715668E+02  0.38187913387E+02  0.45045682166E+02  0.00000000000E+00 0. -1.
         11    1    3    3    0    0 -0.19347920008E+00  0.59430505851E+01 -0.73408028145E+01  0.94469397521E+01  0.51100000000E-03 0. -1.
        -11    1    3    3    0    0  0.70416610133E+00  0.87024325619E+01 -0.15583426298E+02  0.17862568624E+02  0.51100000000E-03 0.  1.
         12    1    3    3    0    0  0.78740069533E+01  0.77262325206E+01 -0.15263684275E+02  0.18832809458E+02  0.00000000000E+00 0. -1.
</event>
<event>
 7    1  0.2312612E-008  0.4614232E+02  0.7816164E-02  0.1320468E+00
        -11   -1    0    0    0    0  0.00000000000E+00  0.00000000000E+00  0.45593999997E+02  0.45594000000E+02  0.51100000000E-03 0.  1.
         11   -1    0    0    0    0 -0.00000000000E+00 -0.00000000000E+00 -0.45593999997E+02  0.45594000000E+02  0.51100000000E-03 0. -1.
    9900012    2    1    2    0    0 -0.44623776071E+02  0.60117496368E+01  0.13003817095E+01  0.46142317442E+02  0.99999970925E+01 0.  0.
         12    1    1    2    0    0  0.44623776071E+02 -0.60117496368E+01 -0.13003817095E+01  0.45045682558E+02  0.00000000000E+00 0. -1.
         11    1    3    3    0    0 -0.30309649887E+01  0.21545970600E+01  0.21086520823E+01  0.42749796630E+01  0.51100000000E-03 0. -1.
        -11    1    3    3    0    0 -0.17353152981E+02  0.28254202612E+01 -0.91570658248E+00  0.17605494507E+02  0.51100000000E-03 0.  1.
        -12    1    3    3    0    0 -0.24239658101E+02  0.10317323157E+01  0.10743620966E+00  0.24261843272E+02  0.00000000000E+00 0.  1.
</event>
<event>
 7    1  0.2312612E-008  0.4614232E+02  0.7816164E-02  0.1320468E+00
        -11   -1    0    0    0    0  0.00000000000E+00  0.00000000000E+00  0.45593999997E+02  0.45594000000E+02  0.51100000000E-03 0. -1.
         11   -1    0    0    0    0 -0.00000000000E+00 -0.00000000000E+00 -0.45593999997E+02  0.45594000000E+02  0.51100000000E-03 0.  1.
    9900012    2    1    2    0    0 -0.24282390873E+02  0.10977857140E+02 -0.36317568237E+02  0.46142316339E+02  0.99999870316E+01 0.  0.
         12    1    1    2    0    0  0.24282390873E+02 -0.10977857140E+02  0.36317568237E+02  0.45045683661E+02  0.00000000000E+00 0. -1.
         11    1    3    3    0    0 -0.23415373526E+01  0.17025897089E+01 -0.13133961704E+01  0.31790908530E+01  0.51100000000E-03 0. -1.
        -11    1    3    3    0    0 -0.21097450445E+02  0.69039810005E+01 -0.32868543037E+02  0.39662431728E+02  0.51100000000E-03 0.  1.
        -12    1    3    3    0    0 -0.84340307465E+00  0.23712864303E+01 -0.21356290289E+01  0.33007937575E+01  0.00000000000E+00 0.  1.
</event>
<event>
 7    1  0.2312612E-008  0.4614232E+02  0.7816164E-02  0.1320468E+00
        -11   -1    0    0    0    0  0.00000000000E+00  0.00000000000E+00  0.45593999997E+02  0.45594000000E+02  0.51100000000E-03 0. -1.
         11   -1    0    0    0    0 -0.00000000000E+00 -0.00000000000E+00 -0.45593999997E+02  0.45594000000E+02  0.51100000000E-03 0.  1.
    9900012    2    1    2    0    0  0.56994104174E+01 -0.23636123278E+02 -0.37920494004E+02  0.46142317984E+02  0.10000002037E+02 0.  0.
         12    1    1    2    0    0 -0.56994104174E+01  0.23636123278E+02  0.37920494004E+02  0.45045682016E+02  0.00000000000E+00 0. -1.
         11    1    3    3    0    0  0.10968307968E+01 -0.14262006373E+01 -0.48631452735E+01  0.51852934601E+01  0.51100000000E-03 0. -1.
        -11    1    3    3    0    0  0.42317479992E+01 -0.36044097800E+01 -0.70600499298E+01  0.89857535167E+01  0.51100000000E-03 0.  1.
        -12    1    3    3    0    0  0.37083162143E+00 -0.18605512861E+02 -0.25997298801E+02  0.31971271008E+02  0.00000000000E+00 0.  1.
</event>
<event>
 7    1  0.2312612E-008  0.4614232E+02  0.7816164E-02  0.1320468E+00
        -11   -1    0    0    0    0  0.00000000000E+00  0.00000000000E+00  0.45593999997E+02  0.45594000000E+02  0.51100000000E-03 0. -1.
         11   -1    0    0    0    0 -0.00000000000E+00 -0.00000000000E+00 -0.45593999997E+02  0.45594000000E+02  0.51100000000E-03 0.  1.
    9900012    2    1    2    0    0  0.21730382080E+02  0.21846554476E+02 -0.32857753845E+02  0.46142318347E+02  0.10000005345E+02 0.  0.
         12    1    1    2    0    0 -0.21730382080E+02 -0.21846554476E+02  0.32857753845E+02  0.45045681653E+02  0.00000000000E+00 0. -1.
         11    1    3    3    0    0 -0.13462347410E+00 -0.13450991190E+00 -0.89137509286E+00  0.91146377518E+00  0.51100000000E-03 0. -1.
        -11    1    3    3    0    0  0.74896425559E+01  0.27420494770E+01 -0.75516850442E+01  0.10983693742E+02  0.51100000000E-03 0.  1.
        -12    1    3    3    0    0  0.14375362998E+02  0.19239014911E+02 -0.24414693708E+02  0.34247160830E+02  0.00000000000E+00 0.  1.
</event>
<event>
 7    1  0.2312612E-008  0.4614232E+02  0.7816164E-02  0.1320468E+00
        -11   -1    0    0    0    0  0.00000000000E+00  0.00000000000E+00  0.45593999997E+02  0.45594000000E+02  0.51100000000E-03 0.  1.
         11   -1    0    0    0    0 -0.00000000000E+00 -0.00000000000E+00 -0.45593999997E+02  0.45594000000E+02  0.51100000000E-03 0. -1.
    9900012    2    1    2    0    0  0.41143707003E+02  0.36182871125E+01  0.17978233811E+02  0.46142317427E+02  0.99999969490E+01 0.  0.
         12    1    1    2    0    0 -0.41143707003E+02 -0.36182871125E+01 -0.17978233811E+02  0.45045682573E+02  0.00000000000E+00 0. -1.
         11    1    3    3    0    0  0.14963802788E+02  0.30870033581E+01  0.78356419648E+01  0.17170971693E+02  0.51100000000E-03 0.  1.
        -11    1    3    3    0    0  0.14793144086E+02 -0.26088269942E+01  0.35149336363E+01  0.15427178905E+02  0.51100000000E-03 0. -1.
         12    1    3    3    0    0  0.11386760128E+02  0.31401107486E+01  0.66276582100E+01  0.13544166828E+02  0.00000000000E+00 0. -1.
</event>
<event>
 7    1  0.2312612E-008  0.4614232E+02  0.7816164E-02  0.1320468E+00
        -11   -1    0    0    0    0  0.00000000000E+00  0.00000000000E+00  0.45593999997E+02  0.45594000000E+02  0.51100000000E-03 0.  1.
         11   -1    0    0    0    0 -0.00000000000E+00 -0.00000000000E+00 -0.45593999997E+02  0.45594000000E+02  0.51100000000E-03 0. -1.
    9900012    2    1    2    0    0  0.97584752678E+01  0.39974942861E+02  0.18327293496E+02  0.46142316708E+02  0.99999904013E+01 0.  0.
         12    1    1    2    0    0 -0.97584752678E+01 -0.39974942861E+02 -0.18327293496E+02  0.45045683292E+02  0.00000000000E+00 0. -1.
         11    1    3    3    0    0  0.14892638090E+01  0.96497725004E+01  0.21447634735E+01  0.99968008193E+01  0.51100000000E-03 0. -1.
        -11    1    3    3    0    0  0.11765170790E+01  0.66197656753E+01  0.27425032499E+00  0.67290938123E+01  0.51100000000E-03 0.  1.
        -12    1    3    3    0    0  0.70926943797E+01  0.23705404685E+02  0.15908279698E+02  0.29416422077E+02  0.00000000000E+00 0.  1.
</event>
<event>
 7    1  0.2312612E-008  0.4614232E+02  0.7816164E-02  0.1320468E+00
        -11   -1    0    0    0    0  0.00000000000E+00  0.00000000000E+00  0.45593999997E+02  0.45594000000E+02  0.51100000000E-03 0.  1.
         11   -1    0    0    0    0 -0.00000000000E+00 -0.00000000000E+00 -0.45593999997E+02  0.45594000000E+02  0.51100000000E-03 0. -1.
    9900012    2    1    2    0    0  0.31767158215E+02  0.25890093455E+02  0.18699315824E+02  0.46142315496E+02  0.99999793443E+01 0.  0.
         12    1    1    2    0    0 -0.31767158215E+02 -0.25890093455E+02 -0.18699315824E+02  0.45045684504E+02  0.00000000000E+00 0. -1.
         11    1    3    3    0    0  0.11650788799E+02  0.90307802305E+01  0.36450005338E+01  0.15184923456E+02  0.51100000000E-03 0. -1.
        -11    1    3    3    0    0  0.14585654636E+02  0.80895171155E+01  0.90388194585E+01  0.18970552595E+02  0.51100000000E-03 0.  1.
        -12    1    3    3    0    0  0.55307147808E+01  0.87697961086E+01  0.60154958317E+01  0.11986839445E+02  0.00000000000E+00 0.  1.
</event>
<event>
 7    1  0.2312612E-008  0.4614232E+02  0.7816164E-02  0.1320468E+00
        -11   -1    0    0    0    0  0.00000000000E+00  0.00000000000E+00  0.45593999997E+02  0.45594000000E+02  0.51100000000E-03 0.  1.
         11   -1    0    0    0    0 -0.00000000000E+00 -0.00000000000E+00 -0.45593999997E+02  0.45594000000E+02  0.51100000000E-03 0. -1.
    9900012    2    1    2    0    0  0.20566851151E+02  0.25037236069E+02  0.31293050660E+02  0.46142316790E+02  0.99999911430E+01 0.  0.
         12    1    1    2    0    0 -0.20566851151E+02 -0.25037236069E+02 -0.31293050660E+02  0.45045683210E+02  0.00000000000E+00 0. -1.
         11    1    3    3    0    0  0.76813753336E+01  0.47749047369E+01  0.60979363577E+01  0.10908165306E+02  0.51100000000E-03 0. -1.
        -11    1    3    3    0    0  0.59668531402E+01  0.48175194639E+01  0.87751625956E+01  0.11653982539E+02  0.51100000000E-03 0.  1.
        -12    1    3    3    0    0  0.69186226773E+01  0.15444811869E+02  0.16419951707E+02  0.23580168945E+02  0.00000000000E+00 0.  1.
</event>
<event>
 7    1  0.2312612E-008  0.4614232E+02  0.7816164E-02  0.1320468E+00
        -11   -1    0    0    0    0  0.00000000000E+00  0.00000000000E+00  0.45593999997E+02  0.45594000000E+02  0.51100000000E-03 0.  1.
         11   -1    0    0    0    0 -0.00000000000E+00 -0.00000000000E+00 -0.45593999997E+02  0.45594000000E+02  0.51100000000E-03 0. -1.
    9900012    2    1    2    0    0  0.50141190172E+01 -0.25940865941E+02  0.36483470260E+02  0.46142317438E+02  0.99999970531E+01 0.  0.
         12    1    1    2    0    0 -0.50141190172E+01  0.25940865941E+02 -0.36483470260E+02  0.45045682562E+02  0.00000000000E+00 0. -1.
         11    1    3    3    0    0 -0.65167839583E+00 -0.12248322943E+02  0.13644831849E+02  0.18347412245E+02  0.51100000000E-03 0. -1.
        -11    1    3    3    0    0  0.25289669952E+01 -0.11701018967E+02  0.18965725578E+02  0.22427845770E+02  0.51100000000E-03 0.  1.
         12    1    3    3    0    0  0.31368304178E+01 -0.19915240310E+01  0.38729128333E+01  0.53670594230E+01  0.00000000000E+00 0. -1.
</event>
<event>
 7    1  0.2312612E-008  0.4614232E+02  0.7816164E-02  0.1320468E+00
        -11   -1    0    0    0    0  0.00000000000E+00  0.00000000000E+00  0.45593999997E+02  0.45594000000E+02  0.51100000000E-03 0.  1.
         11   -1    0    0    0    0 -0.00000000000E+00 -0.00000000000E+00 -0.45593999997E+02  0.45594000000E+02  0.51100000000E-03 0. -1.
    9900012    2    1    2    0    0 -0.42037731922E+02 -0.11264969866E+02  0.11620811269E+02  0.46142315348E+02  0.99999779934E+01 0.  0.
         12    1    1    2    0    0  0.42037731922E+02  0.11264969866E+02 -0.11620811269E+02  0.45045684652E+02  0.00000000000E+00 0. -1.
         11    1    3    3    0    0 -0.31694894434E+01  0.11314341753E+00  0.13117250290E+00  0.31742197863E+01  0.51100000000E-03 0. -1.
        -11    1    3    3    0    0 -0.37118843392E+02 -0.98394070735E+01  0.87747761117E+01  0.39390597386E+02  0.51100000000E-03 0.  1.
         12    1    3    3    0    0 -0.17493990863E+01 -0.15387062103E+01  0.27148626544E+01  0.35774981757E+01  0.00000000000E+00 0. -1.
</event>
<event>
 7    1  0.2312612E-008  0.4614232E+02  0.7816164E-02  0.1320468E+00
        -11   -1    0    0    0    0  0.00000000000E+00  0.00000000000E+00  0.45593999997E+02  0.45594000000E+02  0.51100000000E-03 0. -1.
         11   -1    0    0    0    0 -0.00000000000E+00 -0.00000000000E+00 -0.45593999997E+02  0.45594000000E+02  0.51100000000E-03 0.  1.
    9900012    2    1    2    0    0 -0.32278542515E+01  0.22014267212E+02 -0.39167161216E+02  0.46142317392E+02  0.99999966310E+01 0.  0.
         12    1    1    2    0    0  0.32278542515E+01 -0.22014267212E+02  0.39167161216E+02  0.45045682608E+02  0.00000000000E+00 0. -1.
         11    1    3    3    0    0 -0.23463816564E-01  0.27273577537E+01 -0.19241531708E+01  0.33378730583E+01  0.51100000000E-03 0. -1.
        -11    1    3    3    0    0 -0.30375820521E+01  0.22312415044E+01 -0.97160832768E+01  0.10421497871E+02  0.51100000000E-03 0.  1.
         12    1    3    3    0    0 -0.16680838286E+00  0.17055667953E+02 -0.27526924768E+02  0.32382946462E+02  0.00000000000E+00 0. -1.
</event>
<event>
 7    1  0.2312612E-008  0.4614232E+02  0.7816164E-02  0.1320468E+00
        -11   -1    0    0    0    0  0.00000000000E+00  0.00000000000E+00  0.45593999997E+02  0.45594000000E+02  0.51100000000E-03 0. -1.
         11   -1    0    0    0    0 -0.00000000000E+00 -0.00000000000E+00 -0.45593999997E+02  0.45594000000E+02  0.51100000000E-03 0.  1.
    9900012    2    1    2    0    0 -0.26559695830E+01 -0.83343473961E+00 -0.44959588066E+02  0.46142319331E+02  0.10000014317E+02 0.  0.
         12    1    1    2    0    0  0.26559695830E+01  0.83343473961E+00  0.44959588066E+02  0.45045680669E+02  0.00000000000E+00 0. -1.
         11    1    3    3    0    0 -0.21047315720E+01 -0.73525462302E+00 -0.19749891496E+01  0.29784352860E+01  0.51100000000E-03 0. -1.
        -11    1    3    3    0    0  0.62189256784E-02  0.15231462453E+01 -0.84111227446E+01  0.85479236804E+01  0.51100000000E-03 0.  1.
         12    1    3    3    0    0 -0.55745693668E+00 -0.16213263619E+01 -0.34573476171E+02  0.34615960365E+02  0.00000000000E+00 0. -1.
</event>
<event>
 7    1  0.2312612E-008  0.4614232E+02  0.7816164E-02  0.1320468E+00
        -11   -1    0    0    0    0  0.00000000000E+00  0.00000000000E+00  0.45593999997E+02  0.45594000000E+02  0.51100000000E-03 0. -1.
         11   -1    0    0    0    0 -0.00000000000E+00 -0.00000000000E+00 -0.45593999997E+02  0.45594000000E+02  0.51100000000E-03 0.  1.
    9900012    2    1    2    0    0 -0.20759453452E+02  0.11357238402E+02 -0.38329770887E+02  0.46142321983E+02  0.10000038501E+02 0.  0.
         12    1    1    2    0    0  0.20759453452E+02 -0.11357238402E+02  0.38329770887E+02  0.45045678017E+02  0.00000000000E+00 0. -1.
         11    1    3    3    0    0 -0.51502404257E+01  0.24059967590E+01 -0.55881465515E+01  0.79712721061E+01  0.51100000000E-03 0. -1.
        -11    1    3    3    0    0 -0.13134526927E+02  0.74771761881E+01 -0.31681222277E+02  0.35101621139E+02  0.51100000000E-03 0.  1.
        -12    1    3    3    0    0 -0.24746860993E+01  0.14740654548E+01 -0.10604020585E+01  0.30694287386E+01  0.00000000000E+00 0.  1.
</event>
<event>
 7    1  0.2312612E-008  0.4614233E+02  0.7816164E-02  0.1320468E+00
        -11   -1    0    0    0    0  0.00000000000E+00  0.00000000000E+00  0.45593999997E+02  0.45594000000E+02  0.51100000000E-03 0.  1.
         11   -1    0    0    0    0 -0.00000000000E+00 -0.00000000000E+00 -0.45593999997E+02  0.45594000000E+02  0.51100000000E-03 0. -1.
    9900012    2    1    2    0    0  0.21559859544E+02  0.17452277548E+01  0.39512522194E+02  0.46142325695E+02  0.10000072347E+02 0.  0.
         12    1    1    2    0    0 -0.21559859544E+02 -0.17452277548E+01 -0.39512522194E+02  0.45045674305E+02  0.00000000000E+00 0. -1.
         11    1    3    3    0    0  0.10146727354E+02  0.97782802976E+00  0.18163638860E+02  0.20828586139E+02  0.51100000000E-03 0. -1.
        -11    1    3    3    0    0  0.63095882157E+01  0.40137748766E+01  0.10467977027E+02  0.12864673937E+02  0.51100000000E-03 0.  1.
        -12    1    3    3    0    0  0.51035439742E+01 -0.32463751516E+01  0.10880906306E+02  0.12449065618E+02  0.00000000000E+00 0.  1.
</event>
<event>
 7    1  0.2312612E-008  0.4614232E+02  0.7816164E-02  0.1320468E+00
        -11   -1    0    0    0    0  0.00000000000E+00  0.00000000000E+00  0.45593999997E+02  0.45594000000E+02  0.51100000000E-03 0. -1.
         11   -1    0    0    0    0 -0.00000000000E+00 -0.00000000000E+00 -0.45593999997E+02  0.45594000000E+02  0.51100000000E-03 0.  1.
    9900012    2    1    2    0    0 -0.48183482458E+01 -0.17193716746E+02 -0.41355446915E+02  0.46142319132E+02  0.10000012497E+02 0.  0.
         12    1    1    2    0    0  0.48183482458E+01  0.17193716746E+02  0.41355446915E+02  0.45045680868E+02  0.00000000000E+00 0. -1.
         11    1    3    3    0    0 -0.31919799707E+01 -0.13487517076E+01 -0.40681648873E+01  0.53439529483E+01  0.51100000000E-03 0. -1.
        -11    1    3    3    0    0 -0.10150502128E+01 -0.70143627010E+01 -0.22224400789E+02  0.23327143026E+02  0.51100000000E-03 0.  1.
        -12    1    3    3    0    0 -0.61131806223E+00 -0.88306023376E+01 -0.15062881238E+02  0.17471223157E+02  0.00000000000E+00 0.  1.
</event>
<event>
 7    1  0.2312612E-008  0.4614232E+02  0.7816164E-02  0.1320468E+00
        -11   -1    0    0    0    0  0.00000000000E+00  0.00000000000E+00  0.45593999997E+02  0.45594000000E+02  0.51100000000E-03 0. -1.
         11   -1    0    0    0    0 -0.00000000000E+00 -0.00000000000E+00 -0.45593999997E+02  0.45594000000E+02  0.51100000000E-03 0.  1.
    9900012    2    1    2    0    0  0.15783236579E+02 -0.30277760959E+02 -0.29381290709E+02  0.46142316419E+02  0.99999877572E+01 0.  0.
         12    1    1    2    0    0 -0.15783236579E+02  0.30277760959E+02  0.29381290709E+02  0.45045683581E+02  0.00000000000E+00 0. -1.
         11    1    3    3    0    0  0.48408219402E+01 -0.12118118140E+02 -0.61432846519E+01  0.14422977878E+02  0.51100000000E-03 0. -1.
        -11    1    3    3    0    0  0.68430109041E+01 -0.14058971715E+02 -0.15184524305E+02  0.21795670730E+02  0.51100000000E-03 0.  1.
         12    1    3    3    0    0  0.40994037344E+01 -0.41006711041E+01 -0.80534817521E+01  0.99236678105E+01  0.00000000000E+00 0. -1.
</event>
<event>
 7    1  0.2312612E-008  0.4614231E+02  0.7816164E-02  0.1320468E+00
        -11   -1    0    0    0    0  0.00000000000E+00  0.00000000000E+00  0.45593999997E+02  0.45594000000E+02  0.51100000000E-03 0. -1.
         11   -1    0    0    0    0 -0.00000000000E+00 -0.00000000000E+00 -0.45593999997E+02  0.45594000000E+02  0.51100000000E-03 0.  1.
    9900012    2    1    2    0    0  0.22997413868E+02 -0.30538635401E+02 -0.23824870851E+02  0.46142314659E+02  0.99999717166E+01 0.  0.
         12    1    1    2    0    0 -0.22997413868E+02  0.30538635401E+02  0.23824870851E+02  0.45045685341E+02  0.00000000000E+00 0. -1.
         11    1    3    3    0    0  0.41131358396E+01 -0.44143787965E+01 -0.65975709555E+01  0.89405016284E+01  0.51100000000E-03 0. -1.
        -11    1    3    3    0    0  0.95931737039E+01 -0.93878246314E+01 -0.10010138735E+02  0.16744047025E+02  0.51100000000E-03 0.  1.
         12    1    3    3    0    0  0.92911043242E+01 -0.16736431973E+02 -0.72171611607E+01  0.20457766006E+02  0.00000000000E+00 0. -1.
</event>
<event>
 7    1  0.2312612E-008  0.4614232E+02  0.7816164E-02  0.1320468E+00
        -11   -1    0    0    0    0  0.00000000000E+00  0.00000000000E+00  0.45593999997E+02  0.45594000000E+02  0.51100000000E-03 0.  1.
         11   -1    0    0    0    0 -0.00000000000E+00 -0.00000000000E+00 -0.45593999997E+02  0.45594000000E+02  0.51100000000E-03 0. -1.
    9900012    2    1    2    0    0  0.42882677572E+02 -0.91167571016E+01  0.10347660016E+02  0.46142319146E+02  0.10000012626E+02 0.  0.
         12    1    1    2    0    0 -0.42882677572E+02  0.91167571016E+01 -0.10347660016E+02  0.45045680854E+02  0.00000000000E+00 0. -1.
         11    1    3    3    0    0  0.14605051087E+02 -0.19437821754E+01  0.58203665384E+01  0.15841795142E+02  0.51100000000E-03 0. -1.
        -11    1    3    3    0    0  0.16917273462E+01 -0.17367794427E+01  0.18163818140E+01  0.30294533172E+01  0.51100000000E-03 0.  1.
        -12    1    3    3    0    0  0.26585899139E+02 -0.54361954835E+01  0.27109116641E+01  0.27271070687E+02  0.00000000000E+00 0.  1.
</event>
<event>
 7    1  0.2312612E-008  0.4614232E+02  0.7816164E-02  0.1320468E+00
        -11   -1    0    0    0    0  0.00000000000E+00  0.00000000000E+00  0.45593999997E+02  0.45594000000E+02  0.51100000000E-03 0.  1.
         11   -1    0    0    0    0 -0.00000000000E+00 -0.00000000000E+00 -0.45593999997E+02  0.45594000000E+02  0.51100000000E-03 0. -1.
    9900012    2    1    2    0    0 -0.15501050392E-01 -0.29067624839E+01  0.44951796012E+02  0.46142317930E+02  0.10000001544E+02 0.  0.
         12    1    1    2    0    0  0.15501050392E-01  0.29067624839E+01 -0.44951796012E+02  0.45045682070E+02  0.00000000000E+00 0. -1.
         11    1    3    3    0    0  0.14954975673E+00  0.26070232767E+01  0.24463727325E+02  0.24602700876E+02  0.51100000000E-03 0. -1.
        -11    1    3    3    0    0 -0.57270760472E+00 -0.49642399831E+01  0.20179472810E+02  0.20789006608E+02  0.51100000000E-03 0.  1.
        -12    1    3    3    0    0  0.40765679759E+00 -0.54954577754E+00  0.30859587635E+00  0.75061044566E+00  0.00000000000E+00 0.  1.
</event>
<event>
 7    1  0.2312612E-008  0.4614232E+02  0.7816164E-02  0.1320468E+00
        -11   -1    0    0    0    0  0.00000000000E+00  0.00000000000E+00  0.45593999997E+02  0.45594000000E+02  0.51100000000E-03 0.  1.
         11   -1    0    0    0    0 -0.00000000000E+00 -0.00000000000E+00 -0.45593999997E+02  0.45594000000E+02  0.51100000000E-03 0. -1.
    9900012    2    1    2    0    0  0.13222696403E+02 -0.20364076182E+02  0.37941771805E+02  0.46142319334E+02  0.10000014346E+02 0.  0.
         12    1    1    2    0    0 -0.13222696403E+02  0.20364076182E+02 -0.37941771805E+02  0.45045680666E+02  0.00000000000E+00 0. -1.
         11    1    3    3    0    0  0.25425871704E+01 -0.63809462732E+00  0.44395479758E+01  0.51557250473E+01  0.51100000000E-03 0. -1.
        -11    1    3    3    0    0  0.45931766305E+01 -0.26634984645E+01  0.98954422320E+01  0.11229927554E+02  0.51100000000E-03 0.  1.
        -12    1    3    3    0    0  0.60869326024E+01 -0.17062483090E+02  0.23606781597E+02  0.29756666733E+02  0.00000000000E+00 0.  1.
</event>
<event>
 7    1  0.2312612E-008  0.4614231E+02  0.7816164E-02  0.1320468E+00
        -11   -1    0    0    0    0  0.00000000000E+00  0.00000000000E+00  0.45593999997E+02  0.45594000000E+02  0.51100000000E-03 0.  1.
         11   -1    0    0    0    0 -0.00000000000E+00 -0.00000000000E+00 -0.45593999997E+02  0.45594000000E+02  0.51100000000E-03 0. -1.
    9900012    2    1    2    0    0  0.63690163595E+00  0.90658584677E+01  0.44119371046E+02  0.46142308364E+02  0.99999143089E+01 0.  0.
         12    1    1    2    0    0 -0.63690163595E+00 -0.90658584677E+01 -0.44119371046E+02  0.45045691636E+02  0.00000000000E+00 0. -1.
         11    1    3    3    0    0 -0.17337765598E+01  0.52991245774E+01  0.11289118339E+02  0.12590905273E+02  0.51100000000E-03 0. -1.
        -11    1    3    3    0    0  0.24056238302E+01  0.98298050740E+00  0.55367091668E+01  0.61162427477E+01  0.51100000000E-03 0.  1.
        -12    1    3    3    0    0 -0.34945634471E-01  0.27837533829E+01  0.27293543540E+02  0.27435160344E+02  0.00000000000E+00 0.  1.
</event>
<event>
 7    1  0.2312612E-008  0.4614232E+02  0.7816164E-02  0.1320468E+00
        -11   -1    0    0    0    0  0.00000000000E+00  0.00000000000E+00  0.45593999997E+02  0.45594000000E+02  0.51100000000E-03 0. -1.
         11   -1    0    0    0    0 -0.00000000000E+00 -0.00000000000E+00 -0.45593999997E+02  0.45594000000E+02  0.51100000000E-03 0.  1.
    9900012    2    1    2    0    0 -0.22217294115E+02 -0.21715571715E+01 -0.39125307541E+02  0.46142317537E+02  0.99999979603E+01 0.  0.
         12    1    1    2    0    0  0.22217294115E+02  0.21715571715E+01  0.39125307541E+02  0.45045682463E+02  0.00000000000E+00 0. -1.
         11    1    3    3    0    0 -0.51793712013E+01 -0.77354023533E+00 -0.19024987983E+02  0.19732572528E+02  0.51100000000E-03 0.  1.
        -11    1    3    3    0    0 -0.75819484034E+01 -0.71811256415E+00 -0.97871161218E+01  0.12401180165E+02  0.51100000000E-03 0. -1.
        -12    1    3    3    0    0 -0.94559745101E+01 -0.67990437202E+00 -0.10313203436E+02  0.14008564845E+02  0.00000000000E+00 0.  1.
</event>
<event>
 7    1  0.2312612E-008  0.4614232E+02  0.7816164E-02  0.1320468E+00
        -11   -1    0    0    0    0  0.00000000000E+00  0.00000000000E+00  0.45593999997E+02  0.45594000000E+02  0.51100000000E-03 0.  1.
         11   -1    0    0    0    0 -0.00000000000E+00 -0.00000000000E+00 -0.45593999997E+02  0.45594000000E+02  0.51100000000E-03 0. -1.
    9900012    2    1    2    0    0 -0.62451316493E+01 -0.44561156778E+02  0.21012228564E+01  0.46142317629E+02  0.99999987996E+01 0.  0.
         12    1    1    2    0    0  0.62451316493E+01  0.44561156778E+02 -0.21012228564E+01  0.45045682371E+02  0.00000000000E+00 0. -1.
         11    1    3    3    0    0 -0.40735641137E+01 -0.65276063713E+01 -0.97592821875E+00  0.77560302782E+01  0.51100000000E-03 0. -1.
        -11    1    3    3    0    0 -0.12217200894E+01 -0.14069987157E+02 -0.53686023334E+00  0.14133129793E+02  0.51100000000E-03 0.  1.
         12    1    3    3    0    0 -0.94984744611E+00 -0.23963563250E+02  0.36140113085E+01  0.24253157558E+02  0.00000000000E+00 0. -1.
</event>
<event>
 7    1  0.2312612E-008  0.4614232E+02  0.7816164E-02  0.1320468E+00
        -11   -1    0    0    0    0  0.00000000000E+00  0.00000000000E+00  0.45593999997E+02  0.45594000000E+02  0.51100000000E-03 0.  1.
         11   -1    0    0    0    0 -0.00000000000E+00 -0.00000000000E+00 -0.45593999997E+02  0.45594000000E+02  0.51100000000E-03 0. -1.
    9900012    2    1    2    0    0 -0.31431458927E+02 -0.32245066861E+02 -0.11969840178E+01  0.46142315213E+02  0.99999767688E+01 0.  0.
         12    1    1    2    0    0  0.31431458927E+02  0.32245066861E+02  0.11969840178E+01  0.45045684787E+02  0.00000000000E+00 0. -1.
         11    1    3    3    0    0 -0.95233276257E+01 -0.73833008817E+01 -0.16465916464E+01  0.12162161210E+02  0.51100000000E-03 0. -1.
        -11    1    3    3    0    0 -0.17181704686E+02 -0.17198595706E+02 -0.26580023379E+01  0.24455421625E+02  0.51100000000E-03 0.  1.
         12    1    3    3    0    0 -0.47264266160E+01 -0.76631702728E+01  0.31076099665E+01  0.95247323789E+01  0.00000000000E+00 0. -1.
</event>
<event>
 7    1  0.2312612E-008  0.4614232E+02  0.7816164E-02  0.1320468E+00
        -11   -1    0    0    0    0  0.00000000000E+00  0.00000000000E+00  0.45593999997E+02  0.45594000000E+02  0.51100000000E-03 0.  1.
         11   -1    0    0    0    0 -0.00000000000E+00 -0.00000000000E+00 -0.45593999997E+02  0.45594000000E+02  0.51100000000E-03 0. -1.
    9900012    2    1    2    0    0 -0.26760970337E+01  0.20217751822E+02  0.40164593271E+02  0.46142317225E+02  0.99999951090E+01 0.  0.
         12    1    1    2    0    0  0.26760970337E+01 -0.20217751822E+02 -0.40164593271E+02  0.45045682775E+02  0.00000000000E+00 0. -1.
         11    1    3    3    0    0 -0.47645358899E+01  0.10015523299E+02  0.20717493058E+02  0.23499489953E+02  0.51100000000E-03 0. -1.
        -11    1    3    3    0    0 -0.70693078416E+00  0.37646409037E+01  0.33750087553E+01  0.51051891863E+01  0.51100000000E-03 0.  1.
        -12    1    3    3    0    0  0.27953696404E+01  0.64375876191E+01  0.16072091458E+02  0.17537638085E+02  0.00000000000E+00 0.  1.
</event>
<event>
 7    1  0.2312612E-008  0.4614232E+02  0.7816164E-02  0.1320468E+00
        -11   -1    0    0    0    0  0.00000000000E+00  0.00000000000E+00  0.45593999997E+02  0.45594000000E+02  0.51100000000E-03 0.  1.
         11   -1    0    0    0    0 -0.00000000000E+00 -0.00000000000E+00 -0.45593999997E+02  0.45594000000E+02  0.51100000000E-03 0. -1.
    9900012    2    1    2    0    0  0.13694572486E+01 -0.37740055269E+02  0.24554557243E+02  0.46142318006E+02  0.10000002234E+02 0.  0.
         12    1    1    2    0    0 -0.13694572486E+01  0.37740055269E+02 -0.24554557243E+02  0.45045681994E+02  0.00000000000E+00 0. -1.
         11    1    3    3    0    0  0.11430189917E+01 -0.41995078837E+01  0.90116445057E+00  0.44445985768E+01  0.51100000000E-03 0. -1.
        -11    1    3    3    0    0 -0.20337247344E+00  0.37223536592E+00  0.28429824741E+00  0.51063224066E+00  0.51100000000E-03 0.  1.
        -12    1    3    3    0    0  0.42981073039E+00 -0.33912782751E+02  0.23369094545E+02  0.41187087189E+02  0.00000000000E+00 0.  1.
</event>
<event>
 7    1  0.2312612E-008  0.4614232E+02  0.7816164E-02  0.1320468E+00
        -11   -1    0    0    0    0  0.00000000000E+00  0.00000000000E+00  0.45593999997E+02  0.45594000000E+02  0.51100000000E-03 0.  1.
         11   -1    0    0    0    0 -0.00000000000E+00 -0.00000000000E+00 -0.45593999997E+02  0.45594000000E+02  0.51100000000E-03 0. -1.
    9900012    2    1    2    0    0  0.15123826632E+02  0.17794450737E+02  0.38519356605E+02  0.46142318273E+02  0.10000004664E+02 0.  0.
         12    1    1    2    0    0 -0.15123826632E+02 -0.17794450737E+02 -0.38519356605E+02  0.45045681727E+02  0.00000000000E+00 0. -1.
         11    1    3    3    0    0  0.26299022798E+01  0.15636108608E+01  0.15249810052E+01  0.34186009204E+01  0.51100000000E-03 0. -1.
        -11    1    3    3    0    0  0.36191777546E+01  0.24057329121E+01  0.12467270593E+02  0.13202985827E+02  0.51100000000E-03 0.  1.
        -12    1    3    3    0    0  0.88747465977E+01  0.13825106964E+02  0.24527105007E+02  0.29520731525E+02  0.00000000000E+00 0.  1.
</event>
<event>
 7    1  0.2312612E-008  0.4614232E+02  0.7816164E-02  0.1320468E+00
        -11   -1    0    0    0    0  0.00000000000E+00  0.00000000000E+00  0.45593999997E+02  0.45594000000E+02  0.51100000000E-03 0. -1.
         11   -1    0    0    0    0 -0.00000000000E+00 -0.00000000000E+00 -0.45593999997E+02  0.45594000000E+02  0.51100000000E-03 0.  1.
    9900012    2    1    2    0    0 -0.34954336925E+02 -0.29432133981E+01 -0.28260313935E+02  0.46142317424E+02  0.99999969273E+01 0.  0.
         12    1    1    2    0    0  0.34954336925E+02  0.29432133981E+01  0.28260313935E+02  0.45045682576E+02  0.00000000000E+00 0. -1.
         11    1    3    3    0    0 -0.15251301995E+02 -0.48026573391E+01 -0.10469870857E+02  0.19112454737E+02  0.51100000000E-03 0. -1.
        -11    1    3    3    0    0 -0.64500111207E+01  0.43442447275E+00 -0.30234381389E+01  0.71367041777E+01  0.51100000000E-03 0.  1.
         12    1    3    3    0    0 -0.13253023810E+02  0.14250194683E+01 -0.14767004940E+02  0.19893158509E+02  0.00000000000E+00 0. -1.
</event>
<event>
 7    1  0.2312612E-008  0.4614232E+02  0.7816164E-02  0.1320468E+00
        -11   -1    0    0    0    0  0.00000000000E+00  0.00000000000E+00  0.45593999997E+02  0.45594000000E+02  0.51100000000E-03 0. -1.
         11   -1    0    0    0    0 -0.00000000000E+00 -0.00000000000E+00 -0.45593999997E+02  0.45594000000E+02  0.51100000000E-03 0.  1.
    9900012    2    1    2    0    0  0.33021479312E+02  0.46393796302E+01  0.30284840491E+02  0.46142317600E+02  0.99999985308E+01 0.  0.
         12    1    1    2    0    0 -0.33021479312E+02 -0.46393796302E+01 -0.30284840491E+02  0.45045682400E+02  0.00000000000E+00 0. -1.
         11    1    3    3    0    0  0.73104301346E+01  0.20058310219E+01  0.54633142815E+01  0.93441719826E+01  0.51100000000E-03 0. -1.
        -11    1    3    3    0    0  0.23533174748E+01  0.29899618808E+01  0.33904184809E+01  0.50963627149E+01  0.51100000000E-03 0.  1.
         12    1    3    3    0    0  0.23357731702E+02 -0.35641327242E+00  0.21431107729E+02  0.31701782902E+02  0.00000000000E+00 0. -1.
</event>
<event>
 7    1  0.2312612E-008  0.4614232E+02  0.7816164E-02  0.1320468E+00
        -11   -1    0    0    0    0  0.00000000000E+00  0.00000000000E+00  0.45593999997E+02  0.45594000000E+02  0.51100000000E-03 0.  1.
         11   -1    0    0    0    0 -0.00000000000E+00 -0.00000000000E+00 -0.45593999997E+02  0.45594000000E+02  0.51100000000E-03 0. -1.
    9900012    2    1    2    0    0 -0.61520283535E+01  0.43716146251E+02  0.89534662244E+01  0.46142318150E+02  0.10000003549E+02 0.  0.
         12    1    1    2    0    0  0.61520283535E+01 -0.43716146251E+02 -0.89534662244E+01  0.45045681850E+02  0.00000000000E+00 0. -1.
         11    1    3    3    0    0 -0.28910604539E+01  0.23290678076E+02  0.45565346792E+01  0.23907654095E+02  0.51100000000E-03 0. -1.
        -11    1    3    3    0    0 -0.21191939493E+01  0.19589780540E+02  0.54810024991E+01  0.20452185049E+02  0.51100000000E-03 0.  1.
         12    1    3    3    0    0 -0.11417739503E+01  0.83568763474E+00 -0.10840709540E+01  0.17824790068E+01  0.00000000000E+00 0. -1.
</event>
<event>
 7    1  0.2312612E-008  0.4614232E+02  0.7816164E-02  0.1320468E+00
        -11   -1    0    0    0    0  0.00000000000E+00  0.00000000000E+00  0.45593999997E+02  0.45594000000E+02  0.51100000000E-03 0.  1.
         11   -1    0    0    0    0 -0.00000000000E+00 -0.00000000000E+00 -0.45593999997E+02  0.45594000000E+02  0.51100000000E-03 0. -1.
    9900012    2    1    2    0    0 -0.34539611121E+02  0.14624774886E+02  0.24944831800E+02  0.46142318627E+02  0.10000007894E+02 0.  0.
         12    1    1    2    0    0  0.34539611121E+02 -0.14624774886E+02 -0.24944831800E+02  0.45045681373E+02  0.00000000000E+00 0. -1.
         11    1    3    3    0    0 -0.14937275431E+02  0.55146087954E+01  0.13524295800E+02  0.20891138902E+02  0.51100000000E-03 0. -1.
        -11    1    3    3    0    0 -0.18129402662E+02  0.62202160877E+01  0.88444826849E+01  0.21109031320E+02  0.51100000000E-03 0.  1.
         12    1    3    3    0    0 -0.14729330281E+01  0.28899500029E+01  0.25760533146E+01  0.41421484044E+01  0.00000000000E+00 0. -1.
</event>
<event>
 7    1  0.2312612E-008  0.4614232E+02  0.7816164E-02  0.1320468E+00
        -11   -1    0    0    0    0  0.00000000000E+00  0.00000000000E+00  0.45593999997E+02  0.45594000000E+02  0.51100000000E-03 0.  1.
         11   -1    0    0    0    0 -0.00000000000E+00 -0.00000000000E+00 -0.45593999997E+02  0.45594000000E+02  0.51100000000E-03 0. -1.
    9900012    2    1    2    0    0  0.15439889833E+02  0.21678383671E+02  0.36342411626E+02  0.46142318748E+02  0.10000008999E+02 0.  0.
         12    1    1    2    0    0 -0.15439889833E+02 -0.21678383671E+02 -0.36342411626E+02  0.45045681252E+02  0.00000000000E+00 0. -1.
         11    1    3    3    0    0  0.34062671987E+00  0.10944573905E+01  0.35228423887E+00  0.11991530295E+01  0.51100000000E-03 0. -1.
        -11    1    3    3    0    0  0.14882789849E+02  0.14513409499E+02  0.26596298116E+02  0.33756474382E+02  0.51100000000E-03 0.  1.
        -12    1    3    3    0    0  0.21647326328E+00  0.60705167821E+01  0.93938292713E+01  0.11186691336E+02  0.00000000000E+00 0.  1.
</event>
<event>
 7    1  0.2312612E-008  0.4614232E+02  0.7816164E-02  0.1320468E+00
        -11   -1    0    0    0    0  0.00000000000E+00  0.00000000000E+00  0.45593999997E+02  0.45594000000E+02  0.51100000000E-03 0.  1.
         11   -1    0    0    0    0 -0.00000000000E+00 -0.00000000000E+00 -0.45593999997E+02  0.45594000000E+02  0.51100000000E-03 0. -1.
    9900012    2    1    2    0    0 -0.12921918256E+02  0.29564584043E+02  0.31433625114E+02  0.46142318865E+02  0.10000010069E+02 0.  0.
         12    1    1    2    0    0  0.12921918256E+02 -0.29564584043E+02 -0.31433625114E+02  0.45045681135E+02  0.00000000000E+00 0. -1.
         11    1    3    3    0    0 -0.13133390185E+01  0.97327774651E+01  0.11926504751E+02  0.15449703311E+02  0.51100000000E-03 0. -1.
        -11    1    3    3    0    0 -0.11905390552E+02  0.19967099029E+02  0.18742843401E+02  0.29861640056E+02  0.51100000000E-03 0.  1.
         12    1    3    3    0    0  0.29681131404E+00 -0.13529245102E+00  0.76427696219E+00  0.83097549807E+00  0.00000000000E+00 0. -1.
</event>
<event>
 7    1  0.2312612E-008  0.4614232E+02  0.7816164E-02  0.1320468E+00
        -11   -1    0    0    0    0  0.00000000000E+00  0.00000000000E+00  0.45593999997E+02  0.45594000000E+02  0.51100000000E-03 0. -1.
         11   -1    0    0    0    0 -0.00000000000E+00 -0.00000000000E+00 -0.45593999997E+02  0.45594000000E+02  0.51100000000E-03 0.  1.
    9900012    2    1    2    0    0  0.10151610628E+02  0.26741206871E+02 -0.34798940005E+02  0.46142316869E+02  0.99999918651E+01 0.  0.
         12    1    1    2    0    0 -0.10151610628E+02 -0.26741206871E+02  0.34798940005E+02  0.45045683131E+02  0.00000000000E+00 0. -1.
         11    1    3    3    0    0  0.12631758919E+00  0.59767838494E+00  0.56519824453E+00  0.83224089175E+00  0.51100000000E-03 0. -1.
        -11    1    3    3    0    0  0.56474983251E+00  0.63075900908E+01 -0.72683216675E+01  0.96401833619E+01  0.51100000000E-03 0.  1.
        -12    1    3    3    0    0  0.94605432064E+01  0.19835938395E+02 -0.28095816582E+02  0.35669892615E+02  0.00000000000E+00 0.  1.
</event>
<event>
 7    1  0.2312612E-008  0.4614232E+02  0.7816164E-02  0.1320468E+00
        -11   -1    0    0    0    0  0.00000000000E+00  0.00000000000E+00  0.45593999997E+02  0.45594000000E+02  0.51100000000E-03 0.  1.
         11   -1    0    0    0    0 -0.00000000000E+00 -0.00000000000E+00 -0.45593999997E+02  0.45594000000E+02  0.51100000000E-03 0. -1.
    9900012    2    1    2    0    0  0.35179126031E+02  0.27202288073E+02 -0.71817885600E+01  0.46142317947E+02  0.10000001692E+02 0.  0.
         12    1    1    2    0    0 -0.35179126031E+02 -0.27202288073E+02  0.71817885600E+01  0.45045682053E+02  0.00000000000E+00 0. -1.
         11    1    3    3    0    0  0.13526562125E+02  0.11258302437E+02 -0.55639576241E+01  0.18457380133E+02  0.51100000000E-03 0.  1.
        -11    1    3    3    0    0  0.16672386962E+02  0.86430111846E+01 -0.15950054206E+01  0.18847126357E+02  0.51100000000E-03 0. -1.
        -12    1    3    3    0    0  0.49801769439E+01  0.73009744522E+01 -0.22825515301E-01  0.88378114569E+01  0.00000000000E+00 0.  1.
</event>
<event>
 7    1  0.2312612E-008  0.4614232E+02  0.7816164E-02  0.1320468E+00
        -11   -1    0    0    0    0  0.00000000000E+00  0.00000000000E+00  0.45593999997E+02  0.45594000000E+02  0.51100000000E-03 0.  1.
         11   -1    0    0    0    0 -0.00000000000E+00 -0.00000000000E+00 -0.45593999997E+02  0.45594000000E+02  0.51100000000E-03 0. -1.
    9900012    2    1    2    0    0 -0.39646341063E+02  0.19063739824E+02  0.96878781529E+01  0.46142317422E+02  0.99999969119E+01 0.  0.
         12    1    1    2    0    0  0.39646341063E+02 -0.19063739824E+02 -0.96878781529E+01  0.45045682578E+02  0.00000000000E+00 0. -1.
         11    1    3    3    0    0 -0.14811946941E+02  0.10892824086E+02  0.26275977189E+01  0.18572874274E+02  0.51100000000E-03 0. -1.
        -11    1    3    3    0    0 -0.45258141821E+01  0.27100575036E+01 -0.31279401551E+00  0.52844343161E+01  0.51100000000E-03 0.  1.
         12    1    3    3    0    0 -0.20308579940E+02  0.54608582342E+01  0.73730744496E+01  0.22285008832E+02  0.00000000000E+00 0. -1.
</event>
<event>
 7    1  0.2312612E-008  0.4614232E+02  0.7816164E-02  0.1320468E+00
        -11   -1    0    0    0    0  0.00000000000E+00  0.00000000000E+00  0.45593999997E+02  0.45594000000E+02  0.51100000000E-03 0.  1.
         11   -1    0    0    0    0 -0.00000000000E+00 -0.00000000000E+00 -0.45593999997E+02  0.45594000000E+02  0.51100000000E-03 0. -1.
    9900012    2    1    2    0    0  0.16689042749E+02 -0.23574210696E+02  0.34566546097E+02  0.46142315779E+02  0.99999819285E+01 0.  0.
         12    1    1    2    0    0 -0.16689042749E+02  0.23574210696E+02 -0.34566546097E+02  0.45045684221E+02  0.00000000000E+00 0. -1.
         11    1    3    3    0    0  0.82398453083E+01 -0.83243071710E+01  0.74727053009E+01  0.13893540418E+02  0.51100000000E-03 0. -1.
        -11    1    3    3    0    0  0.28154911689E+01 -0.60241260798E+01  0.94022956035E+01  0.11516086506E+02  0.51100000000E-03 0.  1.
         12    1    3    3    0    0  0.56337062718E+01 -0.92257774448E+01  0.17691545193E+02  0.20732688854E+02  0.00000000000E+00 0. -1.
</event>
<event>
 7    1  0.2312612E-008  0.4614232E+02  0.7816164E-02  0.1320468E+00
        -11   -1    0    0    0    0  0.00000000000E+00  0.00000000000E+00  0.45593999997E+02  0.45594000000E+02  0.51100000000E-03 0.  1.
         11   -1    0    0    0    0 -0.00000000000E+00 -0.00000000000E+00 -0.45593999997E+02  0.45594000000E+02  0.51100000000E-03 0. -1.
    9900012    2    1    2    0    0 -0.22816565261E+02  0.20774312732E+02  0.32816853006E+02  0.46142316955E+02  0.99999926470E+01 0.  0.
         12    1    1    2    0    0  0.22816565261E+02 -0.20774312732E+02 -0.32816853006E+02  0.45045683045E+02  0.00000000000E+00 0. -1.
         11    1    3    3    0    0 -0.53461554428E+01  0.27539162158E+01  0.26614534097E+01  0.65763794793E+01  0.51100000000E-03 0. -1.
        -11    1    3    3    0    0 -0.32168218261E+01  0.13656127740E+01  0.26070290220E+01  0.43599818225E+01  0.51100000000E-03 0.  1.
        -12    1    3    3    0    0 -0.14253587992E+02  0.16654783743E+02  0.27548370574E+02  0.35205955653E+02  0.00000000000E+00 0.  1.
</event>
<event>
 7    1  0.2312612E-008  0.4614232E+02  0.7816164E-02  0.1320468E+00
        -11   -1    0    0    0    0  0.00000000000E+00  0.00000000000E+00  0.45593999997E+02  0.45594000000E+02  0.51100000000E-03 0.  1.
         11   -1    0    0    0    0 -0.00000000000E+00 -0.00000000000E+00 -0.45593999997E+02  0.45594000000E+02  0.51100000000E-03 0. -1.
    9900012    2    1    2    0    0  0.31626433263E+02 -0.11581862564E+02  0.29912248697E+02  0.46142318259E+02  0.10000004537E+02 0.  0.
         12    1    1    2    0    0 -0.31626433263E+02  0.11581862564E+02 -0.29912248697E+02  0.45045681741E+02  0.00000000000E+00 0. -1.
         11    1    3    3    0    0  0.41553176358E+01 -0.42099006184E+01  0.49022553396E+01  0.76825800059E+01  0.51100000000E-03 0. -1.
        -11    1    3    3    0    0  0.18502807732E+02 -0.37321634218E+01  0.12485314768E+02  0.22631085323E+02  0.51100000000E-03 0.  1.
        -12    1    3    3    0    0  0.89683078955E+01 -0.36397985237E+01  0.12524678589E+02  0.15828652930E+02  0.00000000000E+00 0.  1.
</event>
<event>
 7    1  0.2312612E-008  0.4614232E+02  0.7816164E-02  0.1320468E+00
        -11   -1    0    0    0    0  0.00000000000E+00  0.00000000000E+00  0.45593999997E+02  0.45594000000E+02  0.51100000000E-03 0.  1.
         11   -1    0    0    0    0 -0.00000000000E+00 -0.00000000000E+00 -0.45593999997E+02  0.45594000000E+02  0.51100000000E-03 0. -1.
    9900012    2    1    2    0    0 -0.20720317295E+02 -0.16211863808E+02  0.36564429303E+02  0.46142316886E+02  0.99999920190E+01 0.  0.
         12    1    1    2    0    0  0.20720317295E+02  0.16211863808E+02 -0.36564429303E+02  0.45045683114E+02  0.00000000000E+00 0. -1.
         11    1    3    3    0    0 -0.64097324977E+01 -0.88188273889E+01  0.11461867900E+02  0.15818685256E+02  0.51100000000E-03 0. -1.
        -11    1    3    3    0    0 -0.95197201312E+01 -0.36812811978E+01  0.11175223361E+02  0.15134811530E+02  0.51100000000E-03 0.  1.
        -12    1    3    3    0    0 -0.47908646664E+01 -0.37117552215E+01  0.13927338042E+02  0.15188820100E+02  0.00000000000E+00 0.  1.
</event>
<event>
 7    1  0.2312612E-008  0.4614232E+02  0.7816164E-02  0.1320468E+00
        -11   -1    0    0    0    0  0.00000000000E+00  0.00000000000E+00  0.45593999997E+02  0.45594000000E+02  0.51100000000E-03 0.  1.
         11   -1    0    0    0    0 -0.00000000000E+00 -0.00000000000E+00 -0.45593999997E+02  0.45594000000E+02  0.51100000000E-03 0. -1.
    9900012    2    1    2    0    0 -0.30556798888E+02 -0.23273720995E+02  0.23531460898E+02  0.46142315421E+02  0.99999786599E+01 0.  0.
         12    1    1    2    0    0  0.30556798888E+02  0.23273720995E+02 -0.23531460898E+02  0.45045684579E+02  0.00000000000E+00 0. -1.
         11    1    3    3    0    0 -0.11413544996E+02 -0.86366064671E+01  0.99365224625E+01  0.17423962223E+02  0.51100000000E-03 0. -1.
        -11    1    3    3    0    0 -0.59351009968E+01 -0.93317658060E+01  0.57051277545E+01  0.12444105426E+02  0.51100000000E-03 0.  1.
         12    1    3    3    0    0 -0.13208152895E+02 -0.53053487218E+01  0.78898106809E+01  0.16274247771E+02  0.00000000000E+00 0. -1.
</event>
<event>
 7    1  0.2312612E-008  0.4614232E+02  0.7816164E-02  0.1320468E+00
        -11   -1    0    0    0    0  0.00000000000E+00  0.00000000000E+00  0.45593999997E+02  0.45594000000E+02  0.51100000000E-03 0. -1.
         11   -1    0    0    0    0 -0.00000000000E+00 -0.00000000000E+00 -0.45593999997E+02  0.45594000000E+02  0.51100000000E-03 0.  1.
    9900012    2    1    2    0    0 -0.40150285054E+02 -0.42191288550E+01  0.19981666958E+02  0.46142318158E+02  0.10000003620E+02 0.  0.
         12    1    1    2    0    0  0.40150285054E+02  0.42191288550E+01 -0.19981666958E+02  0.45045681842E+02  0.00000000000E+00 0. -1.
         11    1    3    3    0    0 -0.11836860168E+01 -0.79855348055E+00  0.28050919180E+01  0.31475929179E+01  0.51100000000E-03 0. -1.
        -11    1    3    3    0    0 -0.28216839434E+02 -0.23266307155E+01  0.14733267616E+02  0.31916647897E+02  0.51100000000E-03 0.  1.
        -12    1    3    3    0    0 -0.10749759603E+02 -0.10939446589E+01  0.24433074245E+01  0.11078077343E+02  0.00000000000E+00 0.  1.
</event>
<event>
 7    1  0.2312612E-008  0.4614232E+02  0.7816164E-02  0.1320468E+00
        -11   -1    0    0    0    0  0.00000000000E+00  0.00000000000E+00  0.45593999997E+02  0.45594000000E+02  0.51100000000E-03 0. -1.
         11   -1    0    0    0    0 -0.00000000000E+00 -0.00000000000E+00 -0.45593999997E+02  0.45594000000E+02  0.51100000000E-03 0.  1.
    9900012    2    1    2    0    0  0.88533418049E+01  0.20388372073E+02 -0.39179664938E+02  0.46142317393E+02  0.99999966413E+01 0.  0.
         12    1    1    2    0    0 -0.88533418049E+01 -0.20388372073E+02  0.39179664938E+02  0.45045682607E+02  0.00000000000E+00 0. -1.
         11    1    3    3    0    0  0.23550481160E+01  0.36300109108E+01 -0.39412556950E+01  0.58529247010E+01  0.51100000000E-03 0. -1.
        -11    1    3    3    0    0  0.12785490795E+01  0.10906496524E+02 -0.25657085772E+02  0.27908285593E+02  0.51100000000E-03 0.  1.
        -12    1    3    3    0    0  0.52197446094E+01  0.58518646384E+01 -0.95813234707E+01  0.12381107098E+02  0.00000000000E+00 0.  1.
</event>
<event>
 7    1  0.2312612E-008  0.4614232E+02  0.7816164E-02  0.1320468E+00
        -11   -1    0    0    0    0  0.00000000000E+00  0.00000000000E+00  0.45593999997E+02  0.45594000000E+02  0.51100000000E-03 0. -1.
         11   -1    0    0    0    0 -0.00000000000E+00 -0.00000000000E+00 -0.45593999997E+02  0.45594000000E+02  0.51100000000E-03 0.  1.
    9900012    2    1    2    0    0  0.66168744256E+01  0.42087044024E+02 -0.14629121017E+02  0.46142317814E+02  0.10000000485E+02 0.  0.
         12    1    1    2    0    0 -0.66168744256E+01 -0.42087044024E+02  0.14629121017E+02  0.45045682186E+02  0.00000000000E+00 0. -1.
         11    1    3    3    0    0  0.67177123189E+00  0.52633538427E+00  0.77689268276E+00  0.11540658674E+01  0.51100000000E-03 0. -1.
        -11    1    3    3    0    0  0.21780829415E+01  0.59161273860E+01 -0.11199169749E+01  0.64030323159E+01  0.51100000000E-03 0.  1.
        -12    1    3    3    0    0  0.37670202522E+01  0.35644581254E+02 -0.14286096725E+02  0.38585219631E+02  0.00000000000E+00 0.  1.
</event>
<event>
 7    1  0.2312612E-008  0.4614232E+02  0.7816164E-02  0.1320468E+00
        -11   -1    0    0    0    0  0.00000000000E+00  0.00000000000E+00  0.45593999997E+02  0.45594000000E+02  0.51100000000E-03 0. -1.
         11   -1    0    0    0    0 -0.00000000000E+00 -0.00000000000E+00 -0.45593999997E+02  0.45594000000E+02  0.51100000000E-03 0.  1.
    9900012    2    1    2    0    0 -0.36754306083E+02  0.25776709024E+02 -0.37142344272E+01  0.46142320061E+02  0.10000020972E+02 0.  0.
         12    1    1    2    0    0  0.36754306083E+02 -0.25776709024E+02  0.37142344272E+01  0.45045679939E+02  0.00000000000E+00 0. -1.
         11    1    3    3    0    0 -0.31389151034E+01 -0.36391298775E-01 -0.19018230300E+00  0.31448818615E+01  0.51100000000E-03 0. -1.
        -11    1    3    3    0    0 -0.18624739801E+02  0.11902482467E+02 -0.43631048587E+01  0.22529684991E+02  0.51100000000E-03 0.  1.
         12    1    3    3    0    0 -0.14990651179E+02  0.13910617856E+02  0.83905273443E+00  0.20467753208E+02  0.00000000000E+00 0. -1.
</event>
<event>
 7    1  0.2312612E-008  0.4614232E+02  0.7816164E-02  0.1320468E+00
        -11   -1    0    0    0    0  0.00000000000E+00  0.00000000000E+00  0.45593999997E+02  0.45594000000E+02  0.51100000000E-03 0. -1.
         11   -1    0    0    0    0 -0.00000000000E+00 -0.00000000000E+00 -0.45593999997E+02  0.45594000000E+02  0.51100000000E-03 0.  1.
    9900012    2    1    2    0    0  0.31188926669E+02  0.12142692881E+02 -0.30148280419E+02  0.46142323744E+02  0.10000054556E+02 0.  0.
         12    1    1    2    0    0 -0.31188926669E+02 -0.12142692881E+02  0.30148280419E+02  0.45045676256E+02  0.00000000000E+00 0. -1.
         11    1    3    3    0    0  0.73563581497E+01  0.65298019379E+01 -0.91171032346E+01  0.13411781769E+02  0.51100000000E-03 0. -1.
        -11    1    3    3    0    0  0.27549922970E+01  0.15279804834E+01 -0.51043853704E+01  0.59982878545E+01  0.51100000000E-03 0.  1.
         12    1    3    3    0    0  0.21077576222E+02  0.40849104595E+01 -0.15926791814E+02  0.26732254120E+02  0.00000000000E+00 0. -1.
</event>
<event>
 7    1  0.2312612E-008  0.4614232E+02  0.7816164E-02  0.1320468E+00
        -11   -1    0    0    0    0  0.00000000000E+00  0.00000000000E+00  0.45593999997E+02  0.45594000000E+02  0.51100000000E-03 0.  1.
         11   -1    0    0    0    0 -0.00000000000E+00 -0.00000000000E+00 -0.45593999997E+02  0.45594000000E+02  0.51100000000E-03 0. -1.
    9900012    2    1    2    0    0 -0.27331350446E+02  0.10212478605E+02  0.34319318504E+02  0.46142322527E+02  0.10000043455E+02 0.  0.
         12    1    1    2    0    0  0.27331350446E+02 -0.10212478605E+02 -0.34319318504E+02  0.45045677473E+02  0.00000000000E+00 0. -1.
         11    1    3    3    0    0 -0.28172911470E+01 -0.15700449564E+00  0.23157876825E+01  0.36502948744E+01  0.51100000000E-03 0. -1.
        -11    1    3    3    0    0 -0.96091109562E+01 -0.16526468025E-01  0.88625753928E+01  0.13072127958E+02  0.51100000000E-03 0.  1.
         12    1    3    3    0    0 -0.14904948342E+02  0.10386009569E+02  0.23140955429E+02  0.29419899694E+02  0.00000000000E+00 0. -1.
</event>
<event>
 7    1  0.2312612E-008  0.4614232E+02  0.7816164E-02  0.1320468E+00
        -11   -1    0    0    0    0  0.00000000000E+00  0.00000000000E+00  0.45593999997E+02  0.45594000000E+02  0.51100000000E-03 0.  1.
         11   -1    0    0    0    0 -0.00000000000E+00 -0.00000000000E+00 -0.45593999997E+02  0.45594000000E+02  0.51100000000E-03 0. -1.
    9900012    2    1    2    0    0 -0.15010747768E+02 -0.39228400430E+02 -0.16276477538E+02  0.46142315746E+02  0.99999816239E+01 0.  0.
         12    1    1    2    0    0  0.15010747768E+02  0.39228400430E+02  0.16276477538E+02  0.45045684254E+02  0.00000000000E+00 0. -1.
         11    1    3    3    0    0 -0.16492458939E+01 -0.14139058021E+02 -0.42782435583E+01  0.14863927541E+02  0.51100000000E-03 0. -1.
        -11    1    3    3    0    0 -0.76812017343E+01 -0.12177848917E+02 -0.35243527214E+01  0.14823020161E+02  0.51100000000E-03 0.  1.
         12    1    3    3    0    0 -0.56803001400E+01 -0.12911493492E+02 -0.84738812583E+01  0.16455368044E+02  0.00000000000E+00 0. -1.
</event>
<event>
 7    1  0.2312612E-008  0.4614233E+02  0.7816164E-02  0.1320468E+00
        -11   -1    0    0    0    0  0.00000000000E+00  0.00000000000E+00  0.45593999997E+02  0.45594000000E+02  0.51100000000E-03 0.  1.
         11   -1    0    0    0    0 -0.00000000000E+00 -0.00000000000E+00 -0.45593999997E+02  0.45594000000E+02  0.51100000000E-03 0. -1.
    9900012    2    1    2    0    0 -0.29161571878E+02 -0.41039879142E+01  0.34086247092E+02  0.46142331707E+02  0.10000127170E+02 0.  0.
         12    1    1    2    0    0  0.29161571878E+02  0.41039879142E+01 -0.34086247092E+02  0.45045668293E+02  0.00000000000E+00 0. -1.
         11    1    3    3    0    0 -0.11278019665E+02 -0.86328104888E+00  0.16966356106E+02  0.20391081912E+02  0.51100000000E-03 0. -1.
        -11    1    3    3    0    0 -0.92354418095E+01 -0.47342144068E+01  0.10453550040E+02  0.14730338766E+02  0.51100000000E-03 0.  1.
         12    1    3    3    0    0 -0.86481104031E+01  0.14935075415E+01  0.66663409450E+01  0.11020911029E+02  0.00000000000E+00 0. -1.
</event>
<event>
 7    1  0.2312612E-008  0.4614232E+02  0.7816164E-02  0.1320468E+00
        -11   -1    0    0    0    0  0.00000000000E+00  0.00000000000E+00  0.45593999997E+02  0.45594000000E+02  0.51100000000E-03 0.  1.
         11   -1    0    0    0    0 -0.00000000000E+00 -0.00000000000E+00 -0.45593999997E+02  0.45594000000E+02  0.51100000000E-03 0. -1.
    9900012    2    1    2    0    0 -0.16632319767E+02 -0.19781474542E+02  0.36894069144E+02  0.46142321696E+02  0.10000035882E+02 0.  0.
         12    1    1    2    0    0  0.16632319767E+02  0.19781474542E+02 -0.36894069144E+02  0.45045678304E+02  0.00000000000E+00 0. -1.
         11    1    3    3    0    0 -0.16429539434E+01 -0.11363374064E+01  0.44839560441E+01  0.49088106938E+01  0.51100000000E-03 0. -1.
        -11    1    3    3    0    0  0.11412737671E+01 -0.75775233993E+00  0.12963908186E+01  0.18860869110E+01  0.51100000000E-03 0.  1.
        -12    1    3    3    0    0 -0.16130639591E+02 -0.17887384796E+02  0.31113722281E+02  0.39347424091E+02  0.00000000000E+00 0.  1.
</event>
<event>
 7    1  0.2312612E-008  0.4614232E+02  0.7816164E-02  0.1320468E+00
        -11   -1    0    0    0    0  0.00000000000E+00  0.00000000000E+00  0.45593999997E+02  0.45594000000E+02  0.51100000000E-03 0.  1.
         11   -1    0    0    0    0 -0.00000000000E+00 -0.00000000000E+00 -0.45593999997E+02  0.45594000000E+02  0.51100000000E-03 0. -1.
    9900012    2    1    2    0    0  0.43945812880E+01 -0.33918651987E+02  0.29314267354E+02  0.46142316879E+02  0.99999919607E+01 0.  0.
         12    1    1    2    0    0 -0.43945812880E+01  0.33918651987E+02 -0.29314267354E+02  0.45045683121E+02  0.00000000000E+00 0. -1.
         11    1    3    3    0    0 -0.43481304856E+00 -0.46671841794E+01  0.74860499781E+00  0.47467968416E+01  0.51100000000E-03 0. -1.
        -11    1    3    3    0    0  0.77030857548E+00 -0.82306042788E+01  0.55213681971E+01  0.99409118860E+01  0.51100000000E-03 0.  1.
         12    1    3    3    0    0  0.40590857610E+01 -0.21020863528E+02  0.23044294159E+02  0.31454608152E+02  0.00000000000E+00 0. -1.
</event>
<event>
 7    1  0.2312612E-008  0.4614232E+02  0.7816164E-02  0.1320468E+00
        -11   -1    0    0    0    0  0.00000000000E+00  0.00000000000E+00  0.45593999997E+02  0.45594000000E+02  0.51100000000E-03 0.  1.
         11   -1    0    0    0    0 -0.00000000000E+00 -0.00000000000E+00 -0.45593999997E+02  0.45594000000E+02  0.51100000000E-03 0. -1.
    9900012    2    1    2    0    0 -0.29344199437E+02  0.80859039620E+01  0.33206168342E+02  0.46142317638E+02  0.99999988805E+01 0.  0.
         12    1    1    2    0    0  0.29344199437E+02 -0.80859039620E+01 -0.33206168342E+02  0.45045682362E+02  0.00000000000E+00 0. -1.
         11    1    3    3    0    0 -0.16503867858E+01  0.17930948462E+01  0.29881095698E+01  0.38558740556E+01  0.51100000000E-03 0. -1.
        -11    1    3    3    0    0 -0.25514254674E+02  0.68687469391E+01  0.30066652104E+02  0.40026996454E+02  0.51100000000E-03 0.  1.
         12    1    3    3    0    0 -0.21795579763E+01 -0.57593782322E+00  0.15140666806E+00  0.22594471287E+01  0.00000000000E+00 0. -1.
</event>
<event>
 7    1  0.2312612E-008  0.4614232E+02  0.7816164E-02  0.1320468E+00
        -11   -1    0    0    0    0  0.00000000000E+00  0.00000000000E+00  0.45593999997E+02  0.45594000000E+02  0.51100000000E-03 0. -1.
         11   -1    0    0    0    0 -0.00000000000E+00 -0.00000000000E+00 -0.45593999997E+02  0.45594000000E+02  0.51100000000E-03 0.  1.
    9900012    2    1    2    0    0  0.93692173588E+01  0.43409376712E+02  0.75470025123E+01  0.46142317994E+02  0.10000002127E+02 0.  0.
         12    1    1    2    0    0 -0.93692173588E+01 -0.43409376712E+02 -0.75470025123E+01  0.45045682006E+02  0.00000000000E+00 0. -1.
         11    1    3    3    0    0  0.27617851386E+01  0.42509456509E+01  0.25642104977E+01  0.56809481441E+01  0.51100000000E-03 0. -1.
        -11    1    3    3    0    0  0.57297098040E+01  0.17044145303E+02  0.31347707281E+01  0.18252650529E+02  0.51100000000E-03 0.  1.
         12    1    3    3    0    0  0.87772241617E+00  0.22114285758E+02  0.18480212866E+01  0.22208719321E+02  0.00000000000E+00 0. -1.
</event>
<event>
 7    1  0.2312612E-008  0.4614232E+02  0.7816164E-02  0.1320468E+00
        -11   -1    0    0    0    0  0.00000000000E+00  0.00000000000E+00  0.45593999997E+02  0.45594000000E+02  0.51100000000E-03 0. -1.
         11   -1    0    0    0    0 -0.00000000000E+00 -0.00000000000E+00 -0.45593999997E+02  0.45594000000E+02  0.51100000000E-03 0.  1.
    9900012    2    1    2    0    0  0.35391748766E+02 -0.17424550155E+02 -0.21746785162E+02  0.46142317702E+02  0.99999994579E+01 0.  0.
         12    1    1    2    0    0 -0.35391748766E+02  0.17424550155E+02  0.21746785162E+02  0.45045682298E+02  0.00000000000E+00 0. -1.
         11    1    3    3    0    0  0.20237561336E+02 -0.86565471070E+01 -0.14022294894E+02  0.26098265287E+02  0.51100000000E-03 0. -1.
        -11    1    3    3    0    0  0.90006285719E+01 -0.76940771160E+01 -0.70006193404E+01  0.13755682781E+02  0.51100000000E-03 0.  1.
         12    1    3    3    0    0  0.61535588583E+01 -0.10739259324E+01 -0.72387092761E+00  0.62883696337E+01  0.00000000000E+00 0. -1.
</event>
<event>
 7    1  0.2312612E-008  0.4614232E+02  0.7816164E-02  0.1320468E+00
        -11   -1    0    0    0    0  0.00000000000E+00  0.00000000000E+00  0.45593999997E+02  0.45594000000E+02  0.51100000000E-03 0.  1.
         11   -1    0    0    0    0 -0.00000000000E+00 -0.00000000000E+00 -0.45593999997E+02  0.45594000000E+02  0.51100000000E-03 0. -1.
    9900012    2    1    2    0    0 -0.13701333475E+02 -0.41433900258E+02  0.11163283819E+02  0.46142317241E+02  0.99999952618E+01 0.  0.
         12    1    1    2    0    0  0.13701333475E+02  0.41433900258E+02 -0.11163283819E+02  0.45045682759E+02  0.00000000000E+00 0. -1.
         11    1    3    3    0    0 -0.17176305377E+01 -0.24579820428E+01 -0.78681162922E+00  0.31001618002E+01  0.51100000000E-03 0. -1.
        -11    1    3    3    0    0 -0.15507558260E+01 -0.74518243187E+00  0.44493749114E+00  0.17771072339E+01  0.51100000000E-03 0.  1.
        -12    1    3    3    0    0 -0.10432947112E+02 -0.38230735783E+02  0.11505157957E+02  0.41265048207E+02  0.00000000000E+00 0.  1.
</event>
<event>
 7    1  0.2312612E-008  0.4614232E+02  0.7816164E-02  0.1320468E+00
        -11   -1    0    0    0    0  0.00000000000E+00  0.00000000000E+00  0.45593999997E+02  0.45594000000E+02  0.51100000000E-03 0.  1.
         11   -1    0    0    0    0 -0.00000000000E+00 -0.00000000000E+00 -0.45593999997E+02  0.45594000000E+02  0.51100000000E-03 0. -1.
    9900012    2    1    2    0    0 -0.12766882549E+02 -0.12887949607E+02  0.41231304086E+02  0.46142323496E+02  0.10000052293E+02 0.  0.
         12    1    1    2    0    0  0.12766882549E+02  0.12887949607E+02 -0.41231304086E+02  0.45045676504E+02  0.00000000000E+00 0. -1.
         11    1    3    3    0    0 -0.89834194492E+01 -0.46754467931E+01  0.18297860813E+02  0.20913472651E+02  0.51100000000E-03 0. -1.
        -11    1    3    3    0    0 -0.43500219310E+01 -0.31740575928E+01  0.13144796545E+02  0.14205034631E+02  0.51100000000E-03 0.  1.
         12    1    3    3    0    0  0.56655883140E+00 -0.50384452208E+01  0.97886467277E+01  0.11023816214E+02  0.00000000000E+00 0. -1.
</event>
<event>
 7    1  0.2312612E-008  0.4614232E+02  0.7816164E-02  0.1320468E+00
        -11   -1    0    0    0    0  0.00000000000E+00  0.00000000000E+00  0.45593999997E+02  0.45594000000E+02  0.51100000000E-03 0. -1.
         11   -1    0    0    0    0 -0.00000000000E+00 -0.00000000000E+00 -0.45593999997E+02  0.45594000000E+02  0.51100000000E-03 0.  1.
    9900012    2    1    2    0    0 -0.27646471336E+02  0.35412056234E+02 -0.32821349074E+01  0.46142317481E+02  0.99999974482E+01 0.  0.
         12    1    1    2    0    0  0.27646471336E+02 -0.35412056234E+02  0.32821349074E+01  0.45045682519E+02  0.00000000000E+00 0. -1.
         11    1    3    3    0    0 -0.11182037802E+02  0.18343585796E+02 -0.32476566918E+01  0.21727226779E+02  0.51100000000E-03 0. -1.
        -11    1    3    3    0    0 -0.46520265545E+01  0.87514653419E+01 -0.83566505566E+00  0.99462471837E+01  0.51100000000E-03 0.  1.
         12    1    3    3    0    0 -0.11812406979E+02  0.83170050958E+01  0.80118684004E+00  0.14468843518E+02  0.00000000000E+00 0. -1.
</event>
<event>
 7    1  0.2312612E-008  0.4614232E+02  0.7816164E-02  0.1320468E+00
        -11   -1    0    0    0    0  0.00000000000E+00  0.00000000000E+00  0.45593999997E+02  0.45594000000E+02  0.51100000000E-03 0. -1.
         11   -1    0    0    0    0 -0.00000000000E+00 -0.00000000000E+00 -0.45593999997E+02  0.45594000000E+02  0.51100000000E-03 0.  1.
    9900012    2    1    2    0    0 -0.19363194292E+02 -0.24431982045E+02 -0.32515510720E+02  0.46142317885E+02  0.10000001131E+02 0.  0.
         12    1    1    2    0    0  0.19363194292E+02  0.24431982045E+02  0.32515510720E+02  0.45045682115E+02  0.00000000000E+00 0. -1.
         11    1    3    3    0    0 -0.10527442913E+02 -0.14806851948E+02 -0.21947231103E+02  0.28491242027E+02  0.51100000000E-03 0.  1.
        -11    1    3    3    0    0 -0.76651642180E+01 -0.97642054203E+01 -0.78476775656E+01  0.14686064599E+02  0.51100000000E-03 0. -1.
         12    1    3    3    0    0 -0.11705871606E+01  0.13907532256E+00 -0.27206020508E+01  0.29650112588E+01  0.00000000000E+00 0. -1.
</event>
<event>
 7    1  0.2312612E-008  0.4614232E+02  0.7816164E-02  0.1320468E+00
        -11   -1    0    0    0    0  0.00000000000E+00  0.00000000000E+00  0.45593999997E+02  0.45594000000E+02  0.51100000000E-03 0.  1.
         11   -1    0    0    0    0 -0.00000000000E+00 -0.00000000000E+00 -0.45593999997E+02  0.45594000000E+02  0.51100000000E-03 0. -1.
    9900012    2    1    2    0    0  0.10009612521E+02  0.13534326790E+02  0.41782089998E+02  0.46142318863E+02  0.10000010051E+02 0.  0.
         12    1    1    2    0    0 -0.10009612521E+02 -0.13534326790E+02 -0.41782089998E+02  0.45045681137E+02  0.00000000000E+00 0. -1.
         11    1    3    3    0    0  0.15905646126E+01  0.48473070985E+01  0.61097847666E+01  0.79596326580E+01  0.51100000000E-03 0. -1.
        -11    1    3    3    0    0  0.51602825447E+01  0.72818839518E+01  0.31320767335E+02  0.32567542378E+02  0.51100000000E-03 0.  1.
        -12    1    3    3    0    0  0.32587653634E+01  0.14051357400E+01  0.43515378964E+01  0.56151438277E+01  0.00000000000E+00 0.  1.
</event>
<event>
 7    1  0.2312612E-008  0.4614232E+02  0.7816164E-02  0.1320468E+00
        -11   -1    0    0    0    0  0.00000000000E+00  0.00000000000E+00  0.45593999997E+02  0.45594000000E+02  0.51100000000E-03 0. -1.
         11   -1    0    0    0    0 -0.00000000000E+00 -0.00000000000E+00 -0.45593999997E+02  0.45594000000E+02  0.51100000000E-03 0.  1.
    9900012    2    1    2    0    0 -0.25338858462E+02 -0.37190313016E+02  0.19839878117E+01  0.46142319430E+02  0.10000015217E+02 0.  0.
         12    1    1    2    0    0  0.25338858462E+02  0.37190313016E+02 -0.19839878117E+01  0.45045680570E+02  0.00000000000E+00 0. -1.
         11    1    3    3    0    0 -0.24778857034E+01 -0.89289251883E+01 -0.85384687609E+00  0.93056261115E+01  0.51100000000E-03 0. -1.
        -11    1    3    3    0    0 -0.14777463831E+02 -0.16997152766E+02 -0.67905038510E+00  0.22533036837E+02  0.51100000000E-03 0.  1.
         12    1    3    3    0    0 -0.80835089277E+01 -0.11264235062E+02  0.35168850729E+01  0.14303656481E+02  0.00000000000E+00 0. -1.
</event>
<event>
 7    1  0.2312612E-008  0.4614232E+02  0.7816164E-02  0.1320468E+00
        -11   -1    0    0    0    0  0.00000000000E+00  0.00000000000E+00  0.45593999997E+02  0.45594000000E+02  0.51100000000E-03 0. -1.
         11   -1    0    0    0    0 -0.00000000000E+00 -0.00000000000E+00 -0.45593999997E+02  0.45594000000E+02  0.51100000000E-03 0.  1.
    9900012    2    1    2    0    0 -0.12366997348E+02  0.18170670908E+01 -0.43276657445E+02  0.46142318344E+02  0.10000005314E+02 0.  0.
         12    1    1    2    0    0  0.12366997348E+02 -0.18170670908E+01  0.43276657445E+02  0.45045681656E+02  0.00000000000E+00 0. -1.
         11    1    3    3    0    0 -0.78604052856E+01  0.26860478491E+01 -0.26147155310E+02  0.27434914897E+02  0.51100000000E-03 0. -1.
        -11    1    3    3    0    0 -0.16047359279E+01  0.10275751113E+01 -0.13696958160E+02  0.13828873819E+02  0.51100000000E-03 0.  1.
         12    1    3    3    0    0 -0.29018561344E+01 -0.18965558696E+01 -0.34325439755E+01  0.48785296283E+01  0.00000000000E+00 0. -1.
</event>
<event>
 7    1  0.2312612E-008  0.4614232E+02  0.7816164E-02  0.1320468E+00
        -11   -1    0    0    0    0  0.00000000000E+00  0.00000000000E+00  0.45593999997E+02  0.45594000000E+02  0.51100000000E-03 0.  1.
         11   -1    0    0    0    0 -0.00000000000E+00 -0.00000000000E+00 -0.45593999997E+02  0.45594000000E+02  0.51100000000E-03 0. -1.
    9900012    2    1    2    0    0  0.99012606193E+01  0.21194455641E+02  0.38495111983E+02  0.46142316984E+02  0.99999929131E+01 0.  0.
         12    1    1    2    0    0 -0.99012606193E+01 -0.21194455641E+02 -0.38495111983E+02  0.45045683016E+02  0.00000000000E+00 0. -1.
         11    1    3    3    0    0  0.49807811844E+01  0.97916031495E+01  0.13057982218E+02  0.17064424201E+02  0.51100000000E-03 0. -1.
        -11    1    3    3    0    0  0.33696318330E+00  0.11474280048E+01 -0.79108036494E-01  0.11984963728E+01  0.51100000000E-03 0.  1.
        -12    1    3    3    0    0  0.45835162516E+01  0.10255424487E+02  0.25516237802E+02  0.27879396410E+02  0.00000000000E+00 0.  1.
</event>
<event>
 7    1  0.2312612E-008  0.4614232E+02  0.7816164E-02  0.1320468E+00
        -11   -1    0    0    0    0  0.00000000000E+00  0.00000000000E+00  0.45593999997E+02  0.45594000000E+02  0.51100000000E-03 0.  1.
         11   -1    0    0    0    0 -0.00000000000E+00 -0.00000000000E+00 -0.45593999997E+02  0.45594000000E+02  0.51100000000E-03 0. -1.
    9900012    2    1    2    0    0 -0.15387372336E+02 -0.15987640214E+02  0.39201244678E+02  0.46142318172E+02  0.10000003747E+02 0.  0.
         12    1    1    2    0    0  0.15387372336E+02  0.15987640214E+02 -0.39201244678E+02  0.45045681828E+02  0.00000000000E+00 0. -1.
         11    1    3    3    0    0 -0.32361258358E+01  0.26748763880E+00  0.26217781593E+01  0.41734615177E+01  0.51100000000E-03 0. -1.
        -11    1    3    3    0    0 -0.68830624959E+01 -0.10817138783E+02  0.20220958597E+02  0.23943145316E+02  0.51100000000E-03 0.  1.
         12    1    3    3    0    0 -0.52681840048E+01 -0.54379890699E+01  0.16358507922E+02  0.18025711339E+02  0.00000000000E+00 0. -1.
</event>
<event>
 7    1  0.2312612E-008  0.4614232E+02  0.7816164E-02  0.1320468E+00
        -11   -1    0    0    0    0  0.00000000000E+00  0.00000000000E+00  0.45593999997E+02  0.45594000000E+02  0.51100000000E-03 0. -1.
         11   -1    0    0    0    0 -0.00000000000E+00 -0.00000000000E+00 -0.45593999997E+02  0.45594000000E+02  0.51100000000E-03 0.  1.
    9900012    2    1    2    0    0 -0.15652454569E+02 -0.30667282892E+02 -0.29045341589E+02  0.46142318276E+02  0.10000004695E+02 0.  0.
         12    1    1    2    0    0  0.15652454569E+02  0.30667282892E+02  0.29045341589E+02  0.45045681724E+02  0.00000000000E+00 0. -1.
         11    1    3    3    0    0 -0.10842850172E+02 -0.14649681156E+02 -0.18893583042E+02  0.26251629249E+02  0.51100000000E-03 0.  1.
        -11    1    3    3    0    0 -0.55778689691E+00 -0.58255049736E-01 -0.14333867363E+00  0.57884895237E+00  0.51100000000E-03 0. -1.
        -12    1    3    3    0    0 -0.42518175001E+01 -0.15959346686E+02 -0.10008419873E+02  0.19311840074E+02  0.00000000000E+00 0.  1.
</event>
<event>
 7    1  0.2312612E-008  0.4614232E+02  0.7816164E-02  0.1320468E+00
        -11   -1    0    0    0    0  0.00000000000E+00  0.00000000000E+00  0.45593999997E+02  0.45594000000E+02  0.51100000000E-03 0.  1.
         11   -1    0    0    0    0 -0.00000000000E+00 -0.00000000000E+00 -0.45593999997E+02  0.45594000000E+02  0.51100000000E-03 0. -1.
    9900012    2    1    2    0    0  0.15769960252E+02  0.26926388802E+02  0.32486787051E+02  0.46142318818E+02  0.10000009636E+02 0.  0.
         12    1    1    2    0    0 -0.15769960252E+02 -0.26926388802E+02 -0.32486787051E+02  0.45045681182E+02  0.00000000000E+00 0. -1.
         11    1    3    3    0    0  0.67672309567E+01  0.76361304452E+01  0.91402095055E+01  0.13698515725E+02  0.51100000000E-03 0. -1.
        -11    1    3    3    0    0  0.34062080219E+00  0.22059383827E+01  0.67147926896E+01  0.70760601894E+01  0.51100000000E-03 0.  1.
         12    1    3    3    0    0  0.86621084930E+01  0.17084319974E+02  0.16631784856E+02  0.25367742904E+02  0.00000000000E+00 0. -1.
</event>
<event>
 7    1  0.2312612E-008  0.4614232E+02  0.7816164E-02  0.1320468E+00
        -11   -1    0    0    0    0  0.00000000000E+00  0.00000000000E+00  0.45593999997E+02  0.45594000000E+02  0.51100000000E-03 0.  1.
         11   -1    0    0    0    0 -0.00000000000E+00 -0.00000000000E+00 -0.45593999997E+02  0.45594000000E+02  0.51100000000E-03 0. -1.
    9900012    2    1    2    0    0 -0.30084489388E+02  0.68187226864E+01  0.32825934682E+02  0.46142317980E+02  0.10000002000E+02 0.  0.
         12    1    1    2    0    0  0.30084489388E+02 -0.68187226864E+01 -0.32825934682E+02  0.45045682020E+02  0.00000000000E+00 0. -1.
         11    1    3    3    0    0 -0.11041325419E+02  0.12087173637E-01  0.17464462835E+02  0.20662005602E+02  0.51100000000E-03 0. -1.
        -11    1    3    3    0    0 -0.31861245817E+01  0.54987735309E+00  0.18252191505E+01  0.37128399052E+01  0.51100000000E-03 0.  1.
        -12    1    3    3    0    0 -0.15857039388E+02  0.62567581597E+01  0.13536252697E+02  0.21767472474E+02  0.00000000000E+00 0.  1.
</event>
<event>
 7    1  0.2312612E-008  0.4614232E+02  0.7816164E-02  0.1320468E+00
        -11   -1    0    0    0    0  0.00000000000E+00  0.00000000000E+00  0.45593999997E+02  0.45594000000E+02  0.51100000000E-03 0.  1.
         11   -1    0    0    0    0 -0.00000000000E+00 -0.00000000000E+00 -0.45593999997E+02  0.45594000000E+02  0.51100000000E-03 0. -1.
    9900012    2    1    2    0    0 -0.48482847542E+01  0.24066839183E+02  0.37767641830E+02  0.46142318934E+02  0.10000010694E+02 0.  0.
         12    1    1    2    0    0  0.48482847542E+01 -0.24066839183E+02 -0.37767641830E+02  0.45045681066E+02  0.00000000000E+00 0. -1.
         11    1    3    3    0    0  0.21084479888E+01  0.71074386421E+01  0.12970415389E+02  0.14939642318E+02  0.51100000000E-03 0. -1.
        -11    1    3    3    0    0 -0.30703141131E+01  0.12785809594E+02  0.15875074858E+02  0.20613630387E+02  0.51100000000E-03 0.  1.
        -12    1    3    3    0    0 -0.38864186299E+01  0.41735909467E+01  0.89221515826E+01  0.10589046228E+02  0.00000000000E+00 0.  1.
</event>
<event>
 7    1  0.2312612E-008  0.4614232E+02  0.7816164E-02  0.1320468E+00
        -11   -1    0    0    0    0  0.00000000000E+00  0.00000000000E+00  0.45593999997E+02  0.45594000000E+02  0.51100000000E-03 0. -1.
         11   -1    0    0    0    0 -0.00000000000E+00 -0.00000000000E+00 -0.45593999997E+02  0.45594000000E+02  0.51100000000E-03 0.  1.
    9900012    2    1    2    0    0 -0.35324492437E+02 -0.12191673813E+02 -0.25152667619E+02  0.46142319135E+02  0.10000012527E+02 0.  0.
         12    1    1    2    0    0  0.35324492437E+02  0.12191673813E+02  0.25152667619E+02  0.45045680865E+02  0.00000000000E+00 0. -1.
         11    1    3    3    0    0 -0.21919698714E+02 -0.86506033582E+01 -0.14618201967E+02  0.27730812451E+02  0.51100000000E-03 0. -1.
        -11    1    3    3    0    0 -0.59835164931E+01 -0.11787112389E+00 -0.13839348988E+01  0.61426085086E+01  0.51100000000E-03 0.  1.
         12    1    3    3    0    0 -0.74212772291E+01 -0.34231993306E+01 -0.91505307529E+01  0.12268898175E+02  0.00000000000E+00 0. -1.
</event>
<event>
 7    1  0.2312612E-008  0.4614232E+02  0.7816164E-02  0.1320468E+00
        -11   -1    0    0    0    0  0.00000000000E+00  0.00000000000E+00  0.45593999997E+02  0.45594000000E+02  0.51100000000E-03 0.  1.
         11   -1    0    0    0    0 -0.00000000000E+00 -0.00000000000E+00 -0.45593999997E+02  0.45594000000E+02  0.51100000000E-03 0. -1.
    9900012    2    1    2    0    0 -0.61878899508E+01 -0.34418069681E+02  0.28394012839E+02  0.46142317991E+02  0.10000002093E+02 0.  0.
         12    1    1    2    0    0  0.61878899508E+01  0.34418069681E+02 -0.28394012839E+02  0.45045682009E+02  0.00000000000E+00 0. -1.
         11    1    3    3    0    0 -0.50995155887E+01 -0.17477071530E+02  0.10888228881E+02  0.21213359397E+02  0.51100000000E-03 0. -1.
        -11    1    3    3    0    0 -0.21585843572E+01 -0.93135665221E+01  0.12524286870E+02  0.15756261284E+02  0.51100000000E-03 0.  1.
        -12    1    3    3    0    0  0.10702099951E+01 -0.76274316287E+01  0.49814970880E+01  0.91726973089E+01  0.00000000000E+00 0.  1.
</event>
<event>
 7    1  0.2312612E-008  0.4614232E+02  0.7816164E-02  0.1320468E+00
        -11   -1    0    0    0    0  0.00000000000E+00  0.00000000000E+00  0.45593999997E+02  0.45594000000E+02  0.51100000000E-03 0.  1.
         11   -1    0    0    0    0 -0.00000000000E+00 -0.00000000000E+00 -0.45593999997E+02  0.45594000000E+02  0.51100000000E-03 0. -1.
    9900012    2    1    2    0    0  0.23629822206E+02  0.19580980591E+02  0.32974688525E+02  0.46142318944E+02  0.10000010791E+02 0.  0.
         12    1    1    2    0    0 -0.23629822206E+02 -0.19580980591E+02 -0.32974688525E+02  0.45045681056E+02  0.00000000000E+00 0. -1.
         11    1    3    3    0    0  0.12901533548E+02  0.87871279721E+01  0.10615228550E+02  0.18877135993E+02  0.51100000000E-03 0. -1.
        -11    1    3    3    0    0  0.90427550921E+01  0.10406739585E+02  0.20681686359E+02  0.24855659303E+02  0.51100000000E-03 0.  1.
         12    1    3    3    0    0  0.16855335663E+01  0.38711303382E+00  0.16777736164E+01  0.24095236483E+01  0.00000000000E+00 0. -1.
</event>
<event>
 7    1  0.2312612E-008  0.4614232E+02  0.7816164E-02  0.1320468E+00
        -11   -1    0    0    0    0  0.00000000000E+00  0.00000000000E+00  0.45593999997E+02  0.45594000000E+02  0.51100000000E-03 0.  1.
         11   -1    0    0    0    0 -0.00000000000E+00 -0.00000000000E+00 -0.45593999997E+02  0.45594000000E+02  0.51100000000E-03 0. -1.
    9900012    2    1    2    0    0  0.26895431956E+02 -0.31815701789E+02 -0.17132145510E+02  0.46142317075E+02  0.99999937454E+01 0.  0.
         12    1    1    2    0    0 -0.26895431956E+02  0.31815701789E+02  0.17132145510E+02  0.45045682925E+02  0.00000000000E+00 0. -1.
         11    1    3    3    0    0 -0.21204885932E+00 -0.16895103098E+01 -0.19407697873E+01  0.25818592979E+01  0.51100000000E-03 0. -1.
        -11    1    3    3    0    0  0.12014311425E+02 -0.11893869545E+02 -0.39678069887E+01  0.17365232632E+02  0.51100000000E-03 0.  1.
         12    1    3    3    0    0  0.15093169390E+02 -0.18232321933E+02 -0.11223568734E+02  0.26195225146E+02  0.00000000000E+00 0. -1.
</event>
<event>
 7    1  0.2312612E-008  0.4614233E+02  0.7816164E-02  0.1320468E+00
        -11   -1    0    0    0    0  0.00000000000E+00  0.00000000000E+00  0.45593999997E+02  0.45594000000E+02  0.51100000000E-03 0.  1.
         11   -1    0    0    0    0 -0.00000000000E+00 -0.00000000000E+00 -0.45593999997E+02  0.45594000000E+02  0.51100000000E-03 0. -1.
    9900012    2    1    2    0    0 -0.23820097729E+02  0.19120881320E+02  0.33107513004E+02  0.46142327893E+02  0.10000092394E+02 0.  0.
         12    1    1    2    0    0  0.23820097729E+02 -0.19120881320E+02 -0.33107513004E+02  0.45045672107E+02  0.00000000000E+00 0. -1.
         11    1    3    3    0    0 -0.81093808168E+01  0.41646964500E+01  0.14485517301E+02  0.17115401412E+02  0.51100000000E-03 0. -1.
        -11    1    3    3    0    0 -0.43863553638E+01  0.24301831761E+01  0.66437511078E+01  0.83237811534E+01  0.51100000000E-03 0.  1.
         12    1    3    3    0    0 -0.11324361548E+02  0.12526001694E+02  0.11978244595E+02  0.20703145328E+02  0.00000000000E+00 0. -1.
</event>
<event>
 7    1  0.2312612E-008  0.4614232E+02  0.7816164E-02  0.1320468E+00
        -11   -1    0    0    0    0  0.00000000000E+00  0.00000000000E+00  0.45593999997E+02  0.45594000000E+02  0.51100000000E-03 0.  1.
         11   -1    0    0    0    0 -0.00000000000E+00 -0.00000000000E+00 -0.45593999997E+02  0.45594000000E+02  0.51100000000E-03 0. -1.
    9900012    2    1    2    0    0  0.18533499901E+02  0.22666375592E+02  0.34232417372E+02  0.46142316520E+02  0.99999886813E+01 0.  0.
         12    1    1    2    0    0 -0.18533499901E+02 -0.22666375592E+02 -0.34232417372E+02  0.45045683480E+02  0.00000000000E+00 0. -1.
         11    1    3    3    0    0  0.67592441277E+01  0.51095079454E+01  0.64330579938E+01  0.10638547271E+02  0.51100000000E-03 0. -1.
        -11    1    3    3    0    0  0.52871376462E+01  0.35088316623E+01  0.57261023429E+01  0.85471616591E+01  0.51100000000E-03 0.  1.
        -12    1    3    3    0    0  0.64871181275E+01  0.14048035985E+02  0.22073257035E+02  0.26956607590E+02  0.00000000000E+00 0.  1.
</event>
<event>
 7    1  0.2312612E-008  0.4614232E+02  0.7816164E-02  0.1320468E+00
        -11   -1    0    0    0    0  0.00000000000E+00  0.00000000000E+00  0.45593999997E+02  0.45594000000E+02  0.51100000000E-03 0.  1.
         11   -1    0    0    0    0 -0.00000000000E+00 -0.00000000000E+00 -0.45593999997E+02  0.45594000000E+02  0.51100000000E-03 0. -1.
    9900012    2    1    2    0    0 -0.36761217169E+02  0.98036486643E+01  0.24116689558E+02  0.46142319518E+02  0.10000016021E+02 0.  0.
         12    1    1    2    0    0  0.36761217169E+02 -0.98036486643E+01 -0.24116689558E+02  0.45045680482E+02  0.00000000000E+00 0. -1.
         11    1    3    3    0    0 -0.39924622319E+01  0.76199918128E-01  0.60837974843E+01  0.72772352712E+01  0.51100000000E-03 0.  1.
        -11    1    3    3    0    0 -0.30012101721E+02  0.92978103529E+01  0.17682096667E+02  0.36053183908E+02  0.51100000000E-03 0. -1.
        -12    1    3    3    0    0 -0.27566532157E+01  0.42963839326E+00  0.35079540624E+00  0.28119003392E+01  0.00000000000E+00 0.  1.
</event>
<event>
 7    1  0.2312612E-008  0.4614232E+02  0.7816164E-02  0.1320468E+00
        -11   -1    0    0    0    0  0.00000000000E+00  0.00000000000E+00  0.45593999997E+02  0.45594000000E+02  0.51100000000E-03 0.  1.
         11   -1    0    0    0    0 -0.00000000000E+00 -0.00000000000E+00 -0.45593999997E+02  0.45594000000E+02  0.51100000000E-03 0. -1.
    9900012    2    1    2    0    0 -0.12629307640E+02 -0.37824127464E+01  0.43073278722E+02  0.46142318770E+02  0.10000009198E+02 0.  0.
         12    1    1    2    0    0  0.12629307640E+02  0.37824127464E+01 -0.43073278722E+02  0.45045681230E+02  0.00000000000E+00 0. -1.
         11    1    3    3    0    0 -0.45084314419E+01  0.18584844698E+01  0.11843899955E+02  0.12808508305E+02  0.51100000000E-03 0. -1.
        -11    1    3    3    0    0 -0.50978058723E+01  0.17036920832E+00  0.13185486413E+02  0.14137669630E+02  0.51100000000E-03 0.  1.
         12    1    3    3    0    0 -0.30230703254E+01 -0.58112664245E+01  0.18043892354E+02  0.19196140834E+02  0.00000000000E+00 0. -1.
</event>
<event>
 7    1  0.2312612E-008  0.4614232E+02  0.7816164E-02  0.1320468E+00
        -11   -1    0    0    0    0  0.00000000000E+00  0.00000000000E+00  0.45593999997E+02  0.45594000000E+02  0.51100000000E-03 0.  1.
         11   -1    0    0    0    0 -0.00000000000E+00 -0.00000000000E+00 -0.45593999997E+02  0.45594000000E+02  0.51100000000E-03 0. -1.
    9900012    2    1    2    0    0 -0.41150455082E+02 -0.70117739439E+00  0.18310150146E+02  0.46142320945E+02  0.10000029031E+02 0.  0.
         12    1    1    2    0    0  0.41150455082E+02  0.70117739439E+00 -0.18310150146E+02  0.45045679055E+02  0.00000000000E+00 0. -1.
         11    1    3    3    0    0 -0.32591171532E+02 -0.66223054313E+00  0.15870564315E+02  0.36256003958E+02  0.51100000000E-03 0.  1.
        -11    1    3    3    0    0 -0.39116082933E+01  0.15577071146E+01 -0.36827288184E+00  0.42264353860E+01  0.51100000000E-03 0. -1.
        -12    1    3    3    0    0 -0.46476752570E+01 -0.15966539659E+01  0.28078587125E+01  0.56598816004E+01  0.00000000000E+00 0.  1.
</event>
<event>
 7    1  0.2312612E-008  0.4614232E+02  0.7816164E-02  0.1320468E+00
        -11   -1    0    0    0    0  0.00000000000E+00  0.00000000000E+00  0.45593999997E+02  0.45594000000E+02  0.51100000000E-03 0.  1.
         11   -1    0    0    0    0 -0.00000000000E+00 -0.00000000000E+00 -0.45593999997E+02  0.45594000000E+02  0.51100000000E-03 0. -1.
    9900012    2    1    2    0    0 -0.50127400312E+00  0.27647308551E+02  0.35559647609E+02  0.46142317812E+02  0.10000000461E+02 0.  0.
         12    1    1    2    0    0  0.50127400312E+00 -0.27647308551E+02 -0.35559647609E+02  0.45045682188E+02  0.00000000000E+00 0. -1.
         11    1    3    3    0    0  0.17818520413E+01  0.83603218131E+01  0.94853480796E+01  0.12768782478E+02  0.51100000000E-03 0. -1.
        -11    1    3    3    0    0  0.18254745482E+01  0.11593532700E+02  0.17999271887E+02  0.21487581216E+02  0.51100000000E-03 0.  1.
         12    1    3    3    0    0 -0.41086005926E+01  0.76934540382E+01  0.80750276426E+01  0.11885954118E+02  0.00000000000E+00 0. -1.
</event>
<event>
 7    1  0.2312612E-008  0.4614232E+02  0.7816164E-02  0.1320468E+00
        -11   -1    0    0    0    0  0.00000000000E+00  0.00000000000E+00  0.45593999997E+02  0.45594000000E+02  0.51100000000E-03 0.  1.
         11   -1    0    0    0    0 -0.00000000000E+00 -0.00000000000E+00 -0.45593999997E+02  0.45594000000E+02  0.51100000000E-03 0. -1.
    9900012    2    1    2    0    0 -0.19051710414E+01  0.80338012694E+01  0.44282522985E+02  0.46142317838E+02  0.10000000704E+02 0.  0.
         12    1    1    2    0    0  0.19051710414E+01 -0.80338012694E+01 -0.44282522985E+02  0.45045682162E+02  0.00000000000E+00 0. -1.
         11    1    3    3    0    0 -0.30728768362E+01  0.22477126235E+01  0.34551631350E+02  0.34760753923E+02  0.51100000000E-03 0.  1.
        -11    1    3    3    0    0  0.37318493971E+00  0.20517683237E+01  0.34202270901E+01  0.40058674294E+01  0.51100000000E-03 0. -1.
        -12    1    3    3    0    0  0.79452085508E+00  0.37343203222E+01  0.63106645445E+01  0.73756964859E+01  0.00000000000E+00 0.  1.
</event>
<event>
 7    1  0.2312612E-008  0.4614232E+02  0.7816164E-02  0.1320468E+00
        -11   -1    0    0    0    0  0.00000000000E+00  0.00000000000E+00  0.45593999997E+02  0.45594000000E+02  0.51100000000E-03 0. -1.
         11   -1    0    0    0    0 -0.00000000000E+00 -0.00000000000E+00 -0.45593999997E+02  0.45594000000E+02  0.51100000000E-03 0.  1.
    9900012    2    1    2    0    0 -0.89522981639E+01  0.21247317561E+02 -0.38697820555E+02  0.46142318058E+02  0.10000002704E+02 0.  0.
         12    1    1    2    0    0  0.89522981639E+01 -0.21247317561E+02  0.38697820555E+02  0.45045681942E+02  0.00000000000E+00 0. -1.
         11    1    3    3    0    0 -0.77452448641E+01  0.12626347589E+02 -0.27572360043E+02  0.31299337214E+02  0.51100000000E-03 0.  1.
        -11    1    3    3    0    0 -0.29490311165E+01  0.58425708392E+01 -0.72925590970E+01  0.97986650612E+01  0.51100000000E-03 0. -1.
         12    1    3    3    0    0  0.17419778167E+01  0.27783991330E+01 -0.38329014149E+01  0.50443157824E+01  0.00000000000E+00 0. -1.
</event>
<event>
 7    1  0.2312612E-008  0.4614232E+02  0.7816164E-02  0.1320468E+00
        -11   -1    0    0    0    0  0.00000000000E+00  0.00000000000E+00  0.45593999997E+02  0.45594000000E+02  0.51100000000E-03 0.  1.
         11   -1    0    0    0    0 -0.00000000000E+00 -0.00000000000E+00 -0.45593999997E+02  0.45594000000E+02  0.51100000000E-03 0. -1.
    9900012    2    1    2    0    0  0.62585434073E+01 -0.18337500645E+01  0.44571084562E+02  0.46142316701E+02  0.99999903333E+01 0.  0.
         12    1    1    2    0    0 -0.62585434073E+01  0.18337500645E+01 -0.44571084562E+02  0.45045683299E+02  0.00000000000E+00 0. -1.
         11    1    3    3    0    0  0.19611115312E+01  0.17949564613E+01  0.31768674024E+01  0.41425009221E+01  0.51100000000E-03 0. -1.
        -11    1    3    3    0    0  0.15312426115E+01  0.91654624147E+00  0.10071046601E+02  0.10227939227E+02  0.51100000000E-03 0.  1.
         12    1    3    3    0    0  0.27661892646E+01 -0.45452527673E+01  0.31323170558E+02  0.31771876551E+02  0.00000000000E+00 0. -1.
</event>
<event>
 7    1  0.2312612E-008  0.4614232E+02  0.7816164E-02  0.1320468E+00
        -11   -1    0    0    0    0  0.00000000000E+00  0.00000000000E+00  0.45593999997E+02  0.45594000000E+02  0.51100000000E-03 0.  1.
         11   -1    0    0    0    0 -0.00000000000E+00 -0.00000000000E+00 -0.45593999997E+02  0.45594000000E+02  0.51100000000E-03 0. -1.
    9900012    2    1    2    0    0 -0.21606330649E+00 -0.98435375895E+01  0.43956474382E+02  0.46142317014E+02  0.99999931830E+01 0.  0.
         12    1    1    2    0    0  0.21606330649E+00  0.98435375895E+01 -0.43956474382E+02  0.45045682986E+02  0.00000000000E+00 0. -1.
         11    1    3    3    0    0  0.94408998196E-02  0.12867892593E+01  0.46674269344E+01  0.48415689789E+01  0.51100000000E-03 0. -1.
        -11    1    3    3    0    0 -0.14368429892E+01  0.11594223713E-01  0.31180208022E+01  0.34331772727E+01  0.51100000000E-03 0.  1.
        -12    1    3    3    0    0  0.12113387829E+01 -0.11141921073E+02  0.36171026645E+02  0.37867570762E+02  0.00000000000E+00 0.  1.
</event>
<event>
 7    1  0.2312612E-008  0.4614232E+02  0.7816164E-02  0.1320468E+00
        -11   -1    0    0    0    0  0.00000000000E+00  0.00000000000E+00  0.45593999997E+02  0.45594000000E+02  0.51100000000E-03 0.  1.
         11   -1    0    0    0    0 -0.00000000000E+00 -0.00000000000E+00 -0.45593999997E+02  0.45594000000E+02  0.51100000000E-03 0. -1.
    9900012    2    1    2    0    0 -0.10209531543E+02 -0.34526302379E+02  0.27070525453E+02  0.46142318313E+02  0.10000005036E+02 0.  0.
         12    1    1    2    0    0  0.10209531543E+02  0.34526302379E+02 -0.27070525453E+02  0.45045681687E+02  0.00000000000E+00 0. -1.
         11    1    3    3    0    0 -0.45479188277E+01 -0.46582858779E+01  0.50625713332E+01  0.82469886473E+01  0.51100000000E-03 0. -1.
        -11    1    3    3    0    0 -0.54974425907E+01 -0.27513137623E+02  0.21790140705E+02  0.35524707586E+02  0.51100000000E-03 0.  1.
        -12    1    3    3    0    0 -0.16417012482E+00 -0.23548788782E+01  0.21781341494E+00  0.23706220797E+01  0.00000000000E+00 0.  1.
</event>
<event>
 7    1  0.2312612E-008  0.4614232E+02  0.7816164E-02  0.1320468E+00
        -11   -1    0    0    0    0  0.00000000000E+00  0.00000000000E+00  0.45593999997E+02  0.45594000000E+02  0.51100000000E-03 0. -1.
         11   -1    0    0    0    0 -0.00000000000E+00 -0.00000000000E+00 -0.45593999997E+02  0.45594000000E+02  0.51100000000E-03 0.  1.
    9900012    2    1    2    0    0  0.15780681495E+02 -0.25336880864E+02 -0.33736123917E+02  0.46142317662E+02  0.99999990944E+01 0.  0.
         12    1    1    2    0    0 -0.15780681495E+02  0.25336880864E+02  0.33736123917E+02  0.45045682338E+02  0.00000000000E+00 0. -1.
         11    1    3    3    0    0  0.12352865194E+01 -0.31480168969E+01 -0.22356264532E+01  0.40538832084E+01  0.51100000000E-03 0. -1.
        -11    1    3    3    0    0  0.13479905423E+02 -0.13250500871E+02 -0.21854750846E+02  0.28894874257E+02  0.51100000000E-03 0.  1.
        -12    1    3    3    0    0  0.10654895523E+01 -0.89383630967E+01 -0.96457466183E+01  0.13193560197E+02  0.00000000000E+00 0.  1.
</event>
<event>
 7    1  0.2312612E-008  0.4614232E+02  0.7816164E-02  0.1320468E+00
        -11   -1    0    0    0    0  0.00000000000E+00  0.00000000000E+00  0.45593999997E+02  0.45594000000E+02  0.51100000000E-03 0.  1.
         11   -1    0    0    0    0 -0.00000000000E+00 -0.00000000000E+00 -0.45593999997E+02  0.45594000000E+02  0.51100000000E-03 0. -1.
    9900012    2    1    2    0    0  0.94869312331E+01 -0.35149309164E+02  0.26526171361E+02  0.46142316899E+02  0.99999921418E+01 0.  0.
         12    1    1    2    0    0 -0.94869312331E+01  0.35149309164E+02 -0.26526171361E+02  0.45045683101E+02  0.00000000000E+00 0. -1.
         11    1    3    3    0    0  0.85029465785E+00 -0.78490091268E+00  0.22234981132E+01  0.25065942169E+01  0.51100000000E-03 0. -1.
        -11    1    3    3    0    0  0.34331265447E+01 -0.26711187525E+02  0.17009488886E+02  0.31852733152E+02  0.51100000000E-03 0.  1.
        -12    1    3    3    0    0  0.52035100306E+01 -0.76532207266E+01  0.72931843618E+01  0.11782989530E+02  0.00000000000E+00 0.  1.
</event>
<event>
 7    1  0.2312612E-008  0.4614232E+02  0.7816164E-02  0.1320468E+00
        -11   -1    0    0    0    0  0.00000000000E+00  0.00000000000E+00  0.45593999997E+02  0.45594000000E+02  0.51100000000E-03 0. -1.
         11   -1    0    0    0    0 -0.00000000000E+00 -0.00000000000E+00 -0.45593999997E+02  0.45594000000E+02  0.51100000000E-03 0.  1.
    9900012    2    1    2    0    0 -0.12104246845E+02 -0.36009292904E+02 -0.24206022819E+02  0.46142317545E+02  0.99999980320E+01 0.  0.
         12    1    1    2    0    0  0.12104246845E+02  0.36009292904E+02  0.24206022819E+02  0.45045682455E+02  0.00000000000E+00 0. -1.
         11    1    3    3    0    0 -0.55061317395E+01 -0.14983138804E+02 -0.52896035982E+01  0.16816415838E+02  0.51100000000E-03 0. -1.
        -11    1    3    3    0    0 -0.67300399679E+01 -0.19691088045E+02 -0.16480731584E+02  0.26545186007E+02  0.51100000000E-03 0.  1.
        -12    1    3    3    0    0  0.13192486280E+00 -0.13350660550E+01 -0.24356876363E+01  0.27807156996E+01  0.00000000000E+00 0.  1.
</event>
<event>
 7    1  0.2312612E-008  0.4614232E+02  0.7816164E-02  0.1320468E+00
        -11   -1    0    0    0    0  0.00000000000E+00  0.00000000000E+00  0.45593999997E+02  0.45594000000E+02  0.51100000000E-03 0. -1.
         11   -1    0    0    0    0 -0.00000000000E+00 -0.00000000000E+00 -0.45593999997E+02  0.45594000000E+02  0.51100000000E-03 0.  1.
    9900012    2    1    2    0    0 -0.26730786922E+02  0.31405456513E+02 -0.18118383631E+02  0.46142317702E+02  0.99999994627E+01 0.  0.
         12    1    1    2    0    0  0.26730786922E+02 -0.31405456513E+02  0.18118383631E+02  0.45045682298E+02  0.00000000000E+00 0. -1.
         11    1    3    3    0    0 -0.30327556779E+01  0.70774797225E+01 -0.11057441911E+01  0.77788814557E+01  0.51100000000E-03 0. -1.
        -11    1    3    3    0    0 -0.41701008391E+01  0.20431227948E+01 -0.12873921579E+01  0.48188661106E+01  0.51100000000E-03 0.  1.
        -12    1    3    3    0    0 -0.19527930405E+02  0.22284853996E+02 -0.15725247282E+02  0.33544570136E+02  0.00000000000E+00 0.  1.
</event>
<event>
 7    1  0.2312612E-008  0.4614232E+02  0.7816164E-02  0.1320468E+00
        -11   -1    0    0    0    0  0.00000000000E+00  0.00000000000E+00  0.45593999997E+02  0.45594000000E+02  0.51100000000E-03 0. -1.
         11   -1    0    0    0    0 -0.00000000000E+00 -0.00000000000E+00 -0.45593999997E+02  0.45594000000E+02  0.51100000000E-03 0.  1.
    9900012    2    1    2    0    0  0.40930745609E+02  0.14640633498E+02 -0.11808447068E+02  0.46142317549E+02  0.99999980681E+01 0.  0.
         12    1    1    2    0    0 -0.40930745609E+02 -0.14640633498E+02  0.11808447068E+02  0.45045682451E+02  0.00000000000E+00 0. -1.
         11    1    3    3    0    0  0.12726128176E+02  0.54167682269E+01 -0.19541041461E+01  0.13968329881E+02  0.51100000000E-03 0. -1.
        -11    1    3    3    0    0  0.20162388783E+02  0.93620587735E+01 -0.50204647854E+01  0.22789803265E+02  0.51100000000E-03 0.  1.
         12    1    3    3    0    0  0.80422286490E+01 -0.13819350209E+00 -0.48338781362E+01  0.93841844037E+01  0.00000000000E+00 0. -1.
</event>
<event>
 7    1  0.2312612E-008  0.4614232E+02  0.7816164E-02  0.1320468E+00
        -11   -1    0    0    0    0  0.00000000000E+00  0.00000000000E+00  0.45593999997E+02  0.45594000000E+02  0.51100000000E-03 0. -1.
         11   -1    0    0    0    0 -0.00000000000E+00 -0.00000000000E+00 -0.45593999997E+02  0.45594000000E+02  0.51100000000E-03 0.  1.
    9900012    2    1    2    0    0  0.31682795816E+02  0.30564367710E+02 -0.95463797081E+01  0.46142317746E+02  0.99999998601E+01 0.  0.
         12    1    1    2    0    0 -0.31682795816E+02 -0.30564367710E+02  0.95463797081E+01  0.45045682254E+02  0.00000000000E+00 0. -1.
         11    1    3    3    0    0  0.73366359029E+01  0.10335601099E+02  0.43471467753E+00  0.12682265316E+02  0.51100000000E-03 0. -1.
        -11    1    3    3    0    0  0.13234272328E+02  0.99220990503E+01 -0.31595570521E+01  0.16839739150E+02  0.51100000000E-03 0.  1.
         12    1    3    3    0    0  0.11111887586E+02  0.10306667561E+02 -0.68215373335E+01  0.16620313280E+02  0.00000000000E+00 0. -1.
</event>
<event>
 7    1  0.2312612E-008  0.4614232E+02  0.7816164E-02  0.1320468E+00
        -11   -1    0    0    0    0  0.00000000000E+00  0.00000000000E+00  0.45593999997E+02  0.45594000000E+02  0.51100000000E-03 0. -1.
         11   -1    0    0    0    0 -0.00000000000E+00 -0.00000000000E+00 -0.45593999997E+02  0.45594000000E+02  0.51100000000E-03 0.  1.
    9900012    2    1    2    0    0 -0.39486505929E+02 -0.14484217088E+02 -0.16128755802E+02  0.46142318089E+02  0.10000002991E+02 0.  0.
         12    1    1    2    0    0  0.39486505929E+02  0.14484217088E+02  0.16128755802E+02  0.45045681911E+02  0.00000000000E+00 0. -1.
         11    1    3    3    0    0 -0.98328163507E+01 -0.64681578519E+00 -0.18009044679E+01  0.10017280330E+02  0.51100000000E-03 0. -1.
        -11    1    3    3    0    0  0.19023916865E+00  0.13708730660E-01 -0.30511349592E+00  0.35982409188E+00  0.51100000000E-03 0.  1.
         12    1    3    3    0    0 -0.29843928747E+02 -0.13851110033E+02 -0.14022737838E+02  0.35765213667E+02  0.00000000000E+00 0. -1.
</event>
<event>
 7    1  0.2312612E-008  0.4614232E+02  0.7816164E-02  0.1320468E+00
        -11   -1    0    0    0    0  0.00000000000E+00  0.00000000000E+00  0.45593999997E+02  0.45594000000E+02  0.51100000000E-03 0.  1.
         11   -1    0    0    0    0 -0.00000000000E+00 -0.00000000000E+00 -0.45593999997E+02  0.45594000000E+02  0.51100000000E-03 0. -1.
    9900012    2    1    2    0    0 -0.14353123996E+02 -0.25752636873E+02  0.34057350474E+02  0.46142316570E+02  0.99999891389E+01 0.  0.
         12    1    1    2    0    0  0.14353123996E+02  0.25752636873E+02 -0.34057350474E+02  0.45045683430E+02  0.00000000000E+00 0. -1.
         11    1    3    3    0    0 -0.32078378669E+01 -0.73157449777E+01  0.12058961833E+02  0.14464747115E+02  0.51100000000E-03 0. -1.
        -11    1    3    3    0    0 -0.65701262412E+01 -0.16573660394E+02  0.16600548228E+02  0.24360438818E+02  0.51100000000E-03 0.  1.
         12    1    3    3    0    0 -0.45751598879E+01 -0.18632315014E+01  0.53978404126E+01  0.73171306362E+01  0.00000000000E+00 0. -1.
</event>
<event>
 7    1  0.2312612E-008  0.4614232E+02  0.7816164E-02  0.1320468E+00
        -11   -1    0    0    0    0  0.00000000000E+00  0.00000000000E+00  0.45593999997E+02  0.45594000000E+02  0.51100000000E-03 0.  1.
         11   -1    0    0    0    0 -0.00000000000E+00 -0.00000000000E+00 -0.45593999997E+02  0.45594000000E+02  0.51100000000E-03 0. -1.
    9900012    2    1    2    0    0 -0.64222636282E+01  0.21374672400E+02  0.39127885439E+02  0.46142317530E+02  0.99999978882E+01 0.  0.
         12    1    1    2    0    0  0.64222636282E+01 -0.21374672400E+02 -0.39127885439E+02  0.45045682470E+02  0.00000000000E+00 0. -1.
         11    1    3    3    0    0 -0.40139085515E+01  0.12612500222E+02  0.18789340449E+02  0.22983166415E+02  0.51100000000E-03 0.  1.
        -11    1    3    3    0    0 -0.25849744331E+01  0.14069277120E+01  0.24950451029E+01  0.38583401526E+01  0.51100000000E-03 0. -1.
         12    1    3    3    0    0  0.17661935635E+00  0.73552444652E+01  0.17843499887E+02  0.19300810961E+02  0.00000000000E+00 0. -1.
</event>
<event>
 7    1  0.2312612E-008  0.4614232E+02  0.7816164E-02  0.1320468E+00
        -11   -1    0    0    0    0  0.00000000000E+00  0.00000000000E+00  0.45593999997E+02  0.45594000000E+02  0.51100000000E-03 0.  1.
         11   -1    0    0    0    0 -0.00000000000E+00 -0.00000000000E+00 -0.45593999997E+02  0.45594000000E+02  0.51100000000E-03 0. -1.
    9900012    2    1    2    0    0  0.28158447542E+02 -0.26955517300E+00  0.35158820209E+02  0.46142318004E+02  0.10000002214E+02 0.  0.
         12    1    1    2    0    0 -0.28158447542E+02  0.26955517300E+00 -0.35158820209E+02  0.45045681996E+02  0.00000000000E+00 0. -1.
         11    1    3    3    0    0  0.10134201161E+02  0.33773041185E+01  0.88574463235E+01  0.13876691677E+02  0.51100000000E-03 0. -1.
        -11    1    3    3    0    0  0.53801317278E+01 -0.13190428405E-01  0.96024237010E+01  0.11006931116E+02  0.51100000000E-03 0.  1.
        -12    1    3    3    0    0  0.12644114654E+02 -0.36336688631E+01  0.16698950185E+02  0.21258695211E+02  0.00000000000E+00 0.  1.
</event>
<event>
 7    1  0.2312612E-008  0.4614232E+02  0.7816164E-02  0.1320468E+00
        -11   -1    0    0    0    0  0.00000000000E+00  0.00000000000E+00  0.45593999997E+02  0.45594000000E+02  0.51100000000E-03 0.  1.
         11   -1    0    0    0    0 -0.00000000000E+00 -0.00000000000E+00 -0.45593999997E+02  0.45594000000E+02  0.51100000000E-03 0. -1.
    9900012    2    1    2    0    0 -0.47258764099E+01  0.37956434346E+01  0.44636002167E+02  0.46142317562E+02  0.99999981813E+01 0.  0.
         12    1    1    2    0    0  0.47258764099E+01 -0.37956434346E+01 -0.44636002167E+02  0.45045682438E+02  0.00000000000E+00 0. -1.
         11    1    3    3    0    0 -0.13067602639E+01  0.81047240753E+00  0.16757060947E+01  0.22743084856E+01  0.51100000000E-03 0. -1.
        -11    1    3    3    0    0 -0.56154232384E+01  0.62349364999E+00  0.27871192408E+02  0.28438092218E+02  0.51100000000E-03 0.  1.
         12    1    3    3    0    0  0.21963070924E+01  0.23616773771E+01  0.15089103664E+02  0.15429916858E+02  0.00000000000E+00 0. -1.
</event>
<event>
 7    1  0.2312612E-008  0.4614232E+02  0.7816164E-02  0.1320468E+00
        -11   -1    0    0    0    0  0.00000000000E+00  0.00000000000E+00  0.45593999997E+02  0.45594000000E+02  0.51100000000E-03 0.  1.
         11   -1    0    0    0    0 -0.00000000000E+00 -0.00000000000E+00 -0.45593999997E+02  0.45594000000E+02  0.51100000000E-03 0. -1.
    9900012    2    1    2    0    0  0.87751840479E+01  0.22327539013E+02  0.38125983796E+02  0.46142317700E+02  0.99999994463E+01 0.  0.
         12    1    1    2    0    0 -0.87751840479E+01 -0.22327539013E+02 -0.38125983796E+02  0.45045682300E+02  0.00000000000E+00 0. -1.
         11    1    3    3    0    0  0.68034109348E+01  0.12150156727E+02  0.25169202602E+02  0.28764587060E+02  0.51100000000E-03 0. -1.
        -11    1    3    3    0    0  0.33650340445E+01  0.54900453654E+01  0.91100022380E+01  0.11155993603E+02  0.51100000000E-03 0.  1.
         12    1    3    3    0    0 -0.13932609315E+01  0.46873369206E+01  0.38467789557E+01  0.62217370375E+01  0.00000000000E+00 0. -1.
</event>
<event>
 7    1  0.2312612E-008  0.4614232E+02  0.7816164E-02  0.1320468E+00
        -11   -1    0    0    0    0  0.00000000000E+00  0.00000000000E+00  0.45593999997E+02  0.45594000000E+02  0.51100000000E-03 0. -1.
         11   -1    0    0    0    0 -0.00000000000E+00 -0.00000000000E+00 -0.45593999997E+02  0.45594000000E+02  0.51100000000E-03 0.  1.
    9900012    2    1    2    0    0  0.26671290041E+02 -0.36212539652E+02  0.25313536965E+01  0.46142317720E+02  0.99999996267E+01 0.  0.
         12    1    1    2    0    0 -0.26671290041E+02  0.36212539652E+02 -0.25313536965E+01  0.45045682280E+02  0.00000000000E+00 0. -1.
         11    1    3    3    0    0  0.41013294572E+01 -0.90330658705E+01 -0.15332106070E+01  0.10038322438E+02  0.51100000000E-03 0. -1.
        -11    1    3    3    0    0  0.21474917081E+02 -0.24615436104E+02  0.21806048374E+01  0.32739071397E+02  0.51100000000E-03 0.  1.
        -12    1    3    3    0    0  0.10950435035E+01 -0.25640376776E+01  0.18839594660E+01  0.33649238857E+01  0.00000000000E+00 0.  1.
</event>
<event>
 7    1  0.2312612E-008  0.4614232E+02  0.7816164E-02  0.1320468E+00
        -11   -1    0    0    0    0  0.00000000000E+00  0.00000000000E+00  0.45593999997E+02  0.45594000000E+02  0.51100000000E-03 0.  1.
         11   -1    0    0    0    0 -0.00000000000E+00 -0.00000000000E+00 -0.45593999997E+02  0.45594000000E+02  0.51100000000E-03 0. -1.
    9900012    2    1    2    0    0 -0.15948515163E+02  0.29108007167E+02  0.30454593751E+02  0.46142317658E+02  0.99999990592E+01 0.  0.
         12    1    1    2    0    0  0.15948515163E+02 -0.29108007167E+02 -0.30454593751E+02  0.45045682342E+02  0.00000000000E+00 0. -1.
         11    1    3    3    0    0 -0.68765801461E+01  0.10762991917E+02  0.15330025629E+02  0.19953421650E+02  0.51100000000E-03 0. -1.
        -11    1    3    3    0    0 -0.46024797207E+01  0.55719355324E+01  0.24040209289E+01  0.76163378368E+01  0.51100000000E-03 0.  1.
        -12    1    3    3    0    0 -0.44694552957E+01  0.12773079718E+02  0.12720547193E+02  0.18572558171E+02  0.00000000000E+00 0.  1.
</event>
<event>
 7    1  0.2312612E-008  0.4614232E+02  0.7816164E-02  0.1320468E+00
        -11   -1    0    0    0    0  0.00000000000E+00  0.00000000000E+00  0.45593999997E+02  0.45594000000E+02  0.51100000000E-03 0.  1.
         11   -1    0    0    0    0 -0.00000000000E+00 -0.00000000000E+00 -0.45593999997E+02  0.45594000000E+02  0.51100000000E-03 0. -1.
    9900012    2    1    2    0    0  0.15458326772E+02  0.38119342449E+02  0.18359449746E+02  0.46142317296E+02  0.99999957570E+01 0.  0.
         12    1    1    2    0    0 -0.15458326772E+02 -0.38119342449E+02 -0.18359449746E+02  0.45045682704E+02  0.00000000000E+00 0. -1.
         11    1    3    3    0    0 -0.17835505281E+00  0.55337378934E-01 -0.19962043919E+00  0.27335202803E+00  0.51100000000E-03 0. -1.
        -11    1    3    3    0    0  0.11670480531E+02  0.34264460067E+02  0.17756817624E+02  0.40318208193E+02  0.51100000000E-03 0.  1.
        -12    1    3    3    0    0  0.39662012937E+01  0.37995450027E+01  0.80225256129E+00  0.55507570746E+01  0.00000000000E+00 0.  1.
</event>
<event>
 7    1  0.2312612E-008  0.4614232E+02  0.7816164E-02  0.1320468E+00
        -11   -1    0    0    0    0  0.00000000000E+00  0.00000000000E+00  0.45593999997E+02  0.45594000000E+02  0.51100000000E-03 0.  1.
         11   -1    0    0    0    0 -0.00000000000E+00 -0.00000000000E+00 -0.45593999997E+02  0.45594000000E+02  0.51100000000E-03 0. -1.
    9900012    2    1    2    0    0  0.26539187122E+02  0.11887786549E+02  0.34401535825E+02  0.46142316641E+02  0.99999897857E+01 0.  0.
         12    1    1    2    0    0 -0.26539187122E+02 -0.11887786549E+02 -0.34401535825E+02  0.45045683359E+02  0.00000000000E+00 0. -1.
         11    1    3    3    0    0  0.19741759082E+01  0.32530772585E+01  0.32227887892E+01  0.49866070636E+01  0.51100000000E-03 0. -1.
        -11    1    3    3    0    0  0.22806303671E+01  0.20489704233E+00  0.55641553709E+00  0.23564499104E+01  0.51100000000E-03 0.  1.
         12    1    3    3    0    0  0.22284380847E+02  0.84298122486E+01  0.30622331499E+02  0.38799259667E+02  0.00000000000E+00 0. -1.
</event>
<event>
 7    1  0.2312612E-008  0.4614232E+02  0.7816164E-02  0.1320468E+00
        -11   -1    0    0    0    0  0.00000000000E+00  0.00000000000E+00  0.45593999997E+02  0.45594000000E+02  0.51100000000E-03 0. -1.
         11   -1    0    0    0    0 -0.00000000000E+00 -0.00000000000E+00 -0.45593999997E+02  0.45594000000E+02  0.51100000000E-03 0.  1.
    9900012    2    1    2    0    0  0.11638690649E+02  0.42926179535E+02 -0.71412507924E+01  0.46142317939E+02  0.10000001621E+02 0.  0.
         12    1    1    2    0    0 -0.11638690649E+02 -0.42926179535E+02  0.71412507924E+01  0.45045682061E+02  0.00000000000E+00 0. -1.
         11    1    3    3    0    0  0.44814462338E+00 -0.24039335856E+00  0.30848821700E+00  0.59480064850E+00  0.51100000000E-03 0. -1.
        -11    1    3    3    0    0  0.29508247451E+01  0.20846687631E+02 -0.49156363335E+01  0.21620713047E+02  0.51100000000E-03 0.  1.
         12    1    3    3    0    0  0.82397212804E+01  0.22319885263E+02 -0.25341026759E+01  0.23926804243E+02  0.00000000000E+00 0. -1.
</event>
<event>
 7    1  0.2312612E-008  0.4614232E+02  0.7816164E-02  0.1320468E+00
        -11   -1    0    0    0    0  0.00000000000E+00  0.00000000000E+00  0.45593999997E+02  0.45594000000E+02  0.51100000000E-03 0.  1.
         11   -1    0    0    0    0 -0.00000000000E+00 -0.00000000000E+00 -0.45593999997E+02  0.45594000000E+02  0.51100000000E-03 0. -1.
    9900012    2    1    2    0    0 -0.69504124039E+01 -0.13186449960E+02  0.42507916527E+02  0.46142315827E+02  0.99999823615E+01 0.  0.
         12    1    1    2    0    0  0.69504124039E+01  0.13186449960E+02 -0.42507916527E+02  0.45045684173E+02  0.00000000000E+00 0. -1.
         11    1    3    3    0    0 -0.52549955983E+01 -0.64030496122E+01  0.28433109174E+02  0.29615126551E+02  0.51100000000E-03 0. -1.
        -11    1    3    3    0    0 -0.12341796268E+01 -0.48075841048E+01  0.13551455897E+02  0.14431840543E+02  0.51100000000E-03 0.  1.
         12    1    3    3    0    0 -0.46123717884E+00 -0.19758162435E+01  0.52335145595E+00  0.20953487322E+01  0.00000000000E+00 0. -1.
</event>
<event>
 7    1  0.2312612E-008  0.4614232E+02  0.7816164E-02  0.1320468E+00
        -11   -1    0    0    0    0  0.00000000000E+00  0.00000000000E+00  0.45593999997E+02  0.45594000000E+02  0.51100000000E-03 0.  1.
         11   -1    0    0    0    0 -0.00000000000E+00 -0.00000000000E+00 -0.45593999997E+02  0.45594000000E+02  0.51100000000E-03 0. -1.
    9900012    2    1    2    0    0  0.17897314097E+02 -0.30210526774E+02  0.28215667200E+02  0.46142315907E+02  0.99999830950E+01 0.  0.
         12    1    1    2    0    0 -0.17897314097E+02  0.30210526774E+02 -0.28215667200E+02  0.45045684093E+02  0.00000000000E+00 0. -1.
         11    1    3    3    0    0  0.83354062948E+01 -0.83886764082E+01  0.76460586522E+01  0.14082297510E+02  0.51100000000E-03 0. -1.
        -11    1    3    3    0    0  0.42617069518E+00 -0.59167121602E+01  0.73769887800E+01  0.94662066304E+01  0.51100000000E-03 0.  1.
        -12    1    3    3    0    0  0.91357371070E+01 -0.15905138206E+02  0.13192619767E+02  0.22593811767E+02  0.00000000000E+00 0.  1.
</event>
<event>
 7    1  0.2312612E-008  0.4614232E+02  0.7816164E-02  0.1320468E+00
        -11   -1    0    0    0    0  0.00000000000E+00  0.00000000000E+00  0.45593999997E+02  0.45594000000E+02  0.51100000000E-03 0. -1.
         11   -1    0    0    0    0 -0.00000000000E+00 -0.00000000000E+00 -0.45593999997E+02  0.45594000000E+02  0.51100000000E-03 0.  1.
    9900012    2    1    2    0    0 -0.42655708526E+02  0.59541787369E+01 -0.13196655684E+02  0.46142318347E+02  0.10000005345E+02 0.  0.
         12    1    1    2    0    0  0.42655708526E+02 -0.59541787369E+01  0.13196655684E+02  0.45045681653E+02  0.00000000000E+00 0. -1.
         11    1    3    3    0    0 -0.65635415877E+01 -0.20430659525E+01 -0.13947107944E+01  0.70142294745E+01  0.51100000000E-03 0. -1.
        -11    1    3    3    0    0 -0.20097329274E+02  0.21090552999E+01 -0.53534552768E+01  0.20904789927E+02  0.51100000000E-03 0.  1.
        -12    1    3    3    0    0 -0.15994837664E+02  0.58881893894E+01 -0.64484896127E+01  0.18223298946E+02  0.00000000000E+00 0.  1.
</event>
<event>
 7    1  0.2312612E-008  0.4614232E+02  0.7816164E-02  0.1320468E+00
        -11   -1    0    0    0    0  0.00000000000E+00  0.00000000000E+00  0.45593999997E+02  0.45594000000E+02  0.51100000000E-03 0.  1.
         11   -1    0    0    0    0 -0.00000000000E+00 -0.00000000000E+00 -0.45593999997E+02  0.45594000000E+02  0.51100000000E-03 0. -1.
    9900012    2    1    2    0    0  0.41705073432E+02 -0.13389353692E+02 -0.10513110832E+02  0.46142318280E+02  0.10000004731E+02 0.  0.
         12    1    1    2    0    0 -0.41705073432E+02  0.13389353692E+02  0.10513110832E+02  0.45045681720E+02  0.00000000000E+00 0. -1.
         11    1    3    3    0    0  0.75556448666E+01 -0.17148711879E+01 -0.49064336229E+01  0.91706948319E+01  0.51100000000E-03 0. -1.
        -11    1    3    3    0    0  0.28699679207E+02 -0.11571635408E+02 -0.35578285313E+01  0.31148554970E+02  0.51100000000E-03 0.  1.
        -12    1    3    3    0    0  0.54497493587E+01 -0.10284709583E+00 -0.20488486780E+01  0.58230684783E+01  0.00000000000E+00 0.  1.
</event>
<event>
 7    1  0.2312612E-008  0.4614232E+02  0.7816164E-02  0.1320468E+00
        -11   -1    0    0    0    0  0.00000000000E+00  0.00000000000E+00  0.45593999997E+02  0.45594000000E+02  0.51100000000E-03 0. -1.
         11   -1    0    0    0    0 -0.00000000000E+00 -0.00000000000E+00 -0.45593999997E+02  0.45594000000E+02  0.51100000000E-03 0.  1.
    9900012    2    1    2    0    0 -0.36869080232E+02 -0.17465589676E+02 -0.19098103393E+02  0.46142318152E+02  0.10000003568E+02 0.  0.
         12    1    1    2    0    0  0.36869080232E+02  0.17465589676E+02  0.19098103393E+02  0.45045681848E+02  0.00000000000E+00 0. -1.
         11    1    3    3    0    0 -0.55093742185E+01 -0.58416643544E+01 -0.41065584849E+01  0.90189838430E+01  0.51100000000E-03 0. -1.
        -11    1    3    3    0    0 -0.13239707490E+02 -0.77095050407E+01 -0.82252359237E+01  0.17389100858E+02  0.51100000000E-03 0.  1.
        -12    1    3    3    0    0 -0.18119998524E+02 -0.39144202813E+01 -0.67663089844E+01  0.19734233451E+02  0.00000000000E+00 0.  1.
</event>
<event>
 7    1  0.2312612E-008  0.4614232E+02  0.7816164E-02  0.1320468E+00
        -11   -1    0    0    0    0  0.00000000000E+00  0.00000000000E+00  0.45593999997E+02  0.45594000000E+02  0.51100000000E-03 0. -1.
         11   -1    0    0    0    0 -0.00000000000E+00 -0.00000000000E+00 -0.45593999997E+02  0.45594000000E+02  0.51100000000E-03 0.  1.
    9900012    2    1    2    0    0  0.22573460985E+02  0.36780483550E+01 -0.38807528792E+02  0.46142317948E+02  0.10000001707E+02 0.  0.
         12    1    1    2    0    0 -0.22573460985E+02 -0.36780483550E+01  0.38807528792E+02  0.45045682052E+02  0.00000000000E+00 0. -1.
         11    1    3    3    0    0  0.45043381525E+01  0.25913499571E+01 -0.38350228971E+01  0.64584485502E+01  0.51100000000E-03 0. -1.
        -11    1    3    3    0    0  0.98347545558E+01  0.28681378752E+01 -0.17294292314E+02  0.20100775083E+02  0.51100000000E-03 0.  1.
        -12    1    3    3    0    0  0.82343682767E+01 -0.17814394773E+01 -0.17678213581E+02  0.19583094315E+02  0.00000000000E+00 0.  1.
</event>
<event>
 7    1  0.2312612E-008  0.4614232E+02  0.7816164E-02  0.1320468E+00
        -11   -1    0    0    0    0  0.00000000000E+00  0.00000000000E+00  0.45593999997E+02  0.45594000000E+02  0.51100000000E-03 0.  1.
         11   -1    0    0    0    0 -0.00000000000E+00 -0.00000000000E+00 -0.45593999997E+02  0.45594000000E+02  0.51100000000E-03 0. -1.
    9900012    2    1    2    0    0 -0.12773273462E+02  0.34989974022E+02  0.25330985916E+02  0.46142316028E+02  0.99999841989E+01 0.  0.
         12    1    1    2    0    0  0.12773273462E+02 -0.34989974022E+02 -0.25330985916E+02  0.45045683972E+02  0.00000000000E+00 0. -1.
         11    1    3    3    0    0 -0.73908033550E+00  0.64674291683E+00 -0.29503115117E-01  0.98254101070E+00  0.51100000000E-03 0. -1.
        -11    1    3    3    0    0 -0.53308914179E+01  0.56664688780E+01  0.69255984909E+01  0.10415910309E+02  0.51100000000E-03 0.  1.
         12    1    3    3    0    0 -0.67033017088E+01  0.28676762227E+02  0.18434890540E+02  0.34743864708E+02  0.00000000000E+00 0. -1.
</event>
<event>
 7    1  0.2312612E-008  0.4614232E+02  0.7816164E-02  0.1320468E+00
        -11   -1    0    0    0    0  0.00000000000E+00  0.00000000000E+00  0.45593999997E+02  0.45594000000E+02  0.51100000000E-03 0.  1.
         11   -1    0    0    0    0 -0.00000000000E+00 -0.00000000000E+00 -0.45593999997E+02  0.45594000000E+02  0.51100000000E-03 0. -1.
    9900012    2    1    2    0    0 -0.13431058174E+02  0.21193656948E+02  0.37410550399E+02  0.46142315416E+02  0.99999786135E+01 0.  0.
         12    1    1    2    0    0  0.13431058174E+02 -0.21193656948E+02 -0.37410550399E+02  0.45045684584E+02  0.00000000000E+00 0. -1.
         11    1    3    3    0    0 -0.23990672777E+01  0.33399792744E+01  0.41049866782E+01  0.58104992252E+01  0.51100000000E-03 0. -1.
        -11    1    3    3    0    0 -0.87413614976E+01  0.16213558476E+02  0.32573649797E+02  0.37421030727E+02  0.51100000000E-03 0.  1.
         12    1    3    3    0    0 -0.22906293987E+01  0.16401191982E+01  0.73191392365E+00  0.29107854641E+01  0.00000000000E+00 0. -1.
</event>
<event>
 7    1  0.2312612E-008  0.4614232E+02  0.7816164E-02  0.1320468E+00
        -11   -1    0    0    0    0  0.00000000000E+00  0.00000000000E+00  0.45593999997E+02  0.45594000000E+02  0.51100000000E-03 0.  1.
         11   -1    0    0    0    0 -0.00000000000E+00 -0.00000000000E+00 -0.45593999997E+02  0.45594000000E+02  0.51100000000E-03 0. -1.
    9900012    2    1    2    0    0 -0.26480323294E+02 -0.66287953573E+01  0.35832458243E+02  0.46142317484E+02  0.99999974728E+01 0.  0.
         12    1    1    2    0    0  0.26480323294E+02  0.66287953573E+01 -0.35832458243E+02  0.45045682516E+02  0.00000000000E+00 0. -1.
         11    1    3    3    0    0 -0.17356157812E+02 -0.43632109765E+00  0.24673956546E+02  0.30170030195E+02  0.51100000000E-03 0. -1.
        -11    1    3    3    0    0 -0.69085506651E+01 -0.31054766228E+01  0.66822648278E+01  0.10100728728E+02  0.51100000000E-03 0.  1.
         12    1    3    3    0    0 -0.22156148170E+01 -0.30869976369E+01  0.44762368688E+01  0.58715585608E+01  0.00000000000E+00 0. -1.
</event>
<event>
 7    1  0.2312612E-008  0.4614232E+02  0.7816164E-02  0.1320468E+00
        -11   -1    0    0    0    0  0.00000000000E+00  0.00000000000E+00  0.45593999997E+02  0.45594000000E+02  0.51100000000E-03 0.  1.
         11   -1    0    0    0    0 -0.00000000000E+00 -0.00000000000E+00 -0.45593999997E+02  0.45594000000E+02  0.51100000000E-03 0. -1.
    9900012    2    1    2    0    0 -0.31528848353E+02  0.20637347990E+02  0.24680864004E+02  0.46142318092E+02  0.10000003021E+02 0.  0.
         12    1    1    2    0    0  0.31528848353E+02 -0.20637347990E+02 -0.24680864004E+02  0.45045681908E+02  0.00000000000E+00 0. -1.
         11    1    3    3    0    0 -0.16110997802E+02  0.13993771438E+02  0.17895529108E+02  0.27850311516E+02  0.51100000000E-03 0. -1.
        -11    1    3    3    0    0 -0.11622263621E+01  0.71768494436E+00 -0.13708324202E+00  0.13728196795E+01  0.51100000000E-03 0.  1.
        -12    1    3    3    0    0 -0.14255624189E+02  0.59258916075E+01  0.69224181380E+01  0.16919186897E+02  0.00000000000E+00 0.  1.
</event>
<event>
 7    1  0.2312612E-008  0.4614232E+02  0.7816164E-02  0.1320468E+00
        -11   -1    0    0    0    0  0.00000000000E+00  0.00000000000E+00  0.45593999997E+02  0.45594000000E+02  0.51100000000E-03 0. -1.
         11   -1    0    0    0    0 -0.00000000000E+00 -0.00000000000E+00 -0.45593999997E+02  0.45594000000E+02  0.51100000000E-03 0.  1.
    9900012    2    1    2    0    0 -0.97709967404E+01  0.80281997553E+01 -0.43234119126E+02  0.46142318462E+02  0.10000006392E+02 0.  0.
         12    1    1    2    0    0  0.97709967404E+01 -0.80281997553E+01  0.43234119126E+02  0.45045681538E+02  0.00000000000E+00 0. -1.
         11    1    3    3    0    0 -0.44846326626E+01  0.34231593578E+01 -0.26673929137E+02  0.27264050432E+02  0.51100000000E-03 0. -1.
        -11    1    3    3    0    0 -0.36748327400E+01  0.29160961984E+01 -0.15707316220E+02  0.16392919075E+02  0.51100000000E-03 0.  1.
         12    1    3    3    0    0 -0.16115313378E+01  0.16889441991E+01 -0.85287376889E+00  0.24853489546E+01  0.00000000000E+00 0. -1.
</event>
<event>
 7    1  0.2312612E-008  0.4614232E+02  0.7816164E-02  0.1320468E+00
        -11   -1    0    0    0    0  0.00000000000E+00  0.00000000000E+00  0.45593999997E+02  0.45594000000E+02  0.51100000000E-03 0.  1.
         11   -1    0    0    0    0 -0.00000000000E+00 -0.00000000000E+00 -0.45593999997E+02  0.45594000000E+02  0.51100000000E-03 0. -1.
    9900012    2    1    2    0    0 -0.79790726965E+00  0.15903355586E+02  0.42137395166E+02  0.46142318228E+02  0.10000004262E+02 0.  0.
         12    1    1    2    0    0  0.79790726965E+00 -0.15903355586E+02 -0.42137395166E+02  0.45045681772E+02  0.00000000000E+00 0. -1.
         11    1    3    3    0    0 -0.37670707722E+01  0.62609904318E+01  0.25130136742E+02  0.26170873052E+02  0.51100000000E-03 0. -1.
        -11    1    3    3    0    0  0.18839504657E+01  0.20785096193E+01  0.51710125915E+01  0.58829281040E+01  0.51100000000E-03 0.  1.
         12    1    3    3    0    0  0.10852130369E+01  0.75638555346E+01  0.11836245832E+02  0.14088517072E+02  0.00000000000E+00 0. -1.
</event>
<event>
 7    1  0.2312612E-008  0.4614232E+02  0.7816164E-02  0.1320468E+00
        -11   -1    0    0    0    0  0.00000000000E+00  0.00000000000E+00  0.45593999997E+02  0.45594000000E+02  0.51100000000E-03 0.  1.
         11   -1    0    0    0    0 -0.00000000000E+00 -0.00000000000E+00 -0.45593999997E+02  0.45594000000E+02  0.51100000000E-03 0. -1.
    9900012    2    1    2    0    0 -0.36492990782E+02  0.26387231336E+02 -0.10435932596E+01  0.46142318290E+02  0.10000004826E+02 0.  0.
         12    1    1    2    0    0  0.36492990782E+02 -0.26387231336E+02  0.10435932596E+01  0.45045681710E+02  0.00000000000E+00 0. -1.
         11    1    3    3    0    0 -0.20281656130E+02  0.11741424992E+02 -0.17560501584E+01  0.23500858466E+02  0.51100000000E-03 0. -1.
        -11    1    3    3    0    0 -0.10722930711E+02  0.57277518407E+01  0.52629588513E+00  0.12168211528E+02  0.51100000000E-03 0.  1.
         12    1    3    3    0    0 -0.54884039409E+01  0.89180545033E+01  0.18616101375E+00  0.10473248296E+02  0.00000000000E+00 0. -1.
</event>
<event>
 7    1  0.2312612E-008  0.4614232E+02  0.7816164E-02  0.1320468E+00
        -11   -1    0    0    0    0  0.00000000000E+00  0.00000000000E+00  0.45593999997E+02  0.45594000000E+02  0.51100000000E-03 0. -1.
         11   -1    0    0    0    0 -0.00000000000E+00 -0.00000000000E+00 -0.45593999997E+02  0.45594000000E+02  0.51100000000E-03 0.  1.
    9900012    2    1    2    0    0 -0.79119595051E+01  0.42255441396E+02 -0.13453328494E+02  0.46142317872E+02  0.10000001011E+02 0.  0.
         12    1    1    2    0    0  0.79119595051E+01 -0.42255441396E+02  0.13453328494E+02  0.45045682128E+02  0.00000000000E+00 0. -1.
         11    1    3    3    0    0  0.21246892833E+01  0.73605305912E+01 -0.20137972011E+01  0.79213063672E+01  0.51100000000E-03 0. -1.
        -11    1    3    3    0    0 -0.31305873240E+01  0.14284540338E+02 -0.31611637569E+01  0.14961337715E+02  0.51100000000E-03 0.  1.
         12    1    3    3    0    0 -0.69060614644E+01  0.20610370467E+02 -0.82783675360E+01  0.23259673789E+02  0.00000000000E+00 0. -1.
</event>
<event>
 7    1  0.2312612E-008  0.4614231E+02  0.7816164E-02  0.1320468E+00
        -11   -1    0    0    0    0  0.00000000000E+00  0.00000000000E+00  0.45593999997E+02  0.45594000000E+02  0.51100000000E-03 0.  1.
         11   -1    0    0    0    0 -0.00000000000E+00 -0.00000000000E+00 -0.45593999997E+02  0.45594000000E+02  0.51100000000E-03 0. -1.
    9900012    2    1    2    0    0  0.10715332350E+02  0.53670195841E+01  0.43422239408E+02  0.46142310730E+02  0.99999358861E+01 0.  0.
         12    1    1    2    0    0 -0.10715332350E+02 -0.53670195841E+01 -0.43422239408E+02  0.45045689270E+02  0.00000000000E+00 0. -1.
         11    1    3    3    0    0  0.46323899530E+00  0.20997674968E+00 -0.17968488027E+00  0.53941405200E+00  0.51100000000E-03 0. -1.
        -11    1    3    3    0    0 -0.45387206919E+00 -0.50730383920E+00  0.53672971371E+00  0.86685413257E+00  0.51100000000E-03 0.  1.
        -12    1    3    3    0    0  0.10705965424E+02  0.56643466736E+01  0.43065194575E+02  0.44736042546E+02  0.00000000000E+00 0.  1.
</event>
<event>
 7    1  0.2312612E-008  0.4614232E+02  0.7816164E-02  0.1320468E+00
        -11   -1    0    0    0    0  0.00000000000E+00  0.00000000000E+00  0.45593999997E+02  0.45594000000E+02  0.51100000000E-03 0.  1.
         11   -1    0    0    0    0 -0.00000000000E+00 -0.00000000000E+00 -0.45593999997E+02  0.45594000000E+02  0.51100000000E-03 0. -1.
    9900012    2    1    2    0    0 -0.22502062374E+02  0.38843937903E+01  0.38828882392E+02  0.46142318365E+02  0.10000005504E+02 0.  0.
         12    1    1    2    0    0  0.22502062374E+02 -0.38843937903E+01 -0.38828882392E+02  0.45045681635E+02  0.00000000000E+00 0. -1.
         11    1    3    3    0    0 -0.10086930762E+02  0.35703924727E+01  0.13689044216E+02  0.17374803780E+02  0.51100000000E-03 0. -1.
        -11    1    3    3    0    0 -0.13705288573E+01 -0.21525284145E+01  0.33176877113E+01  0.41855441623E+01  0.51100000000E-03 0.  1.
        -12    1    3    3    0    0 -0.11044602755E+02  0.24665297321E+01  0.21822150465E+02  0.24581970422E+02  0.00000000000E+00 0.  1.
</event>
<event>
 7    1  0.2312612E-008  0.4614232E+02  0.7816164E-02  0.1320468E+00
        -11   -1    0    0    0    0  0.00000000000E+00  0.00000000000E+00  0.45593999997E+02  0.45594000000E+02  0.51100000000E-03 0.  1.
         11   -1    0    0    0    0 -0.00000000000E+00 -0.00000000000E+00 -0.45593999997E+02  0.45594000000E+02  0.51100000000E-03 0. -1.
    9900012    2    1    2    0    0  0.31324848905E+02  0.29128496416E+02  0.14120836665E+02  0.46142317738E+02  0.99999997860E+01 0.  0.
         12    1    1    2    0    0 -0.31324848905E+02 -0.29128496416E+02 -0.14120836665E+02  0.45045682262E+02  0.00000000000E+00 0. -1.
         11    1    3    3    0    0 -0.37404509985E+00 -0.21293007028E+00  0.53363812342E+00  0.68557921456E+00  0.51100000000E-03 0. -1.
        -11    1    3    3    0    0  0.21870789393E+02  0.18996402987E+02  0.10807979110E+02  0.30919365580E+02  0.51100000000E-03 0.  1.
         12    1    3    3    0    0  0.98281046111E+01  0.10345023499E+02  0.27792194308E+01  0.14537372943E+02  0.00000000000E+00 0. -1.
</event>
<event>
 7    1  0.2312612E-008  0.4614232E+02  0.7816164E-02  0.1320468E+00
        -11   -1    0    0    0    0  0.00000000000E+00  0.00000000000E+00  0.45593999997E+02  0.45594000000E+02  0.51100000000E-03 0.  1.
         11   -1    0    0    0    0 -0.00000000000E+00 -0.00000000000E+00 -0.45593999997E+02  0.45594000000E+02  0.51100000000E-03 0. -1.
    9900012    2    1    2    0    0 -0.29550578338E+02 -0.29312688830E+02  0.17223331864E+02  0.46142316888E+02  0.99999920339E+01 0.  0.
         12    1    1    2    0    0  0.29550578338E+02  0.29312688830E+02 -0.17223331864E+02  0.45045683112E+02  0.00000000000E+00 0. -1.
         11    1    3    3    0    0 -0.17851834990E+02 -0.16758271463E+02  0.13256363106E+02  0.27843470294E+02  0.51100000000E-03 0.  1.
        -11    1    3    3    0    0 -0.55274478852E+01 -0.88223647516E+01  0.38067951006E+01  0.11085057020E+02  0.51100000000E-03 0. -1.
         12    1    3    3    0    0 -0.61712954625E+01 -0.37320526154E+01  0.16017365705E+00  0.72137895734E+01  0.00000000000E+00 0. -1.
</event>
<event>
 7    1  0.2312612E-008  0.4614231E+02  0.7816164E-02  0.1320468E+00
        -11   -1    0    0    0    0  0.00000000000E+00  0.00000000000E+00  0.45593999997E+02  0.45594000000E+02  0.51100000000E-03 0.  1.
         11   -1    0    0    0    0 -0.00000000000E+00 -0.00000000000E+00 -0.45593999997E+02  0.45594000000E+02  0.51100000000E-03 0. -1.
    9900012    2    1    2    0    0  0.23047066596E+02  0.66584933164E-01  0.38703257867E+02  0.46142313395E+02  0.99999601854E+01 0.  0.
         12    1    1    2    0    0 -0.23047066596E+02 -0.66584933164E-01 -0.38703257867E+02  0.45045686605E+02  0.00000000000E+00 0. -1.
         11    1    3    3    0    0  0.15232550546E+01  0.17531928196E+01  0.26222078856E+01  0.35028510503E+01  0.51100000000E-03 0. -1.
        -11    1    3    3    0    0  0.53199111308E+00 -0.13283490748E+01  0.44541738058E+01  0.46783747565E+01  0.51100000000E-03 0.  1.
        -12    1    3    3    0    0  0.20991820428E+02 -0.35825881160E+00  0.31626876175E+02  0.37961087588E+02  0.00000000000E+00 0.  1.
</event>
<event>
 7    1  0.3452794E-008  0.4614232E+02  0.7816164E-02  0.1320468E+00
        -11   -1    0    0    0    0  0.00000000000E+00  0.00000000000E+00  0.45593999997E+02  0.45594000000E+02  0.51100000000E-03 0. -1.
         11   -1    0    0    0    0 -0.00000000000E+00 -0.00000000000E+00 -0.45593999997E+02  0.45594000000E+02  0.51100000000E-03 0.  1.
    9900012    2    1    2    0    0  0.10533024296E+02  0.30195299425E+02 -0.31724010080E+02  0.46142317369E+02  0.99999964208E+01 0.  0.
         12    1    1    2    0    0 -0.10533024296E+02 -0.30195299425E+02  0.31724010080E+02  0.45045682631E+02  0.00000000000E+00 0. -1.
         11    1    3    3    0    0  0.34985001690E+00  0.99931418942E+00  0.39620188073E+00  0.11304866540E+01  0.51100000000E-03 0. -1.
        -11    1    3    3    0    0  0.70591603455E+00  0.10184978758E+00 -0.17954500497E+01  0.19319244211E+01  0.51100000000E-03 0.  1.
        -12    1    3    3    0    0  0.94772582444E+01  0.29094135448E+02 -0.30324761911E+02  0.43079906293E+02  0.00000000000E+00 0.  1.
</event>
<event>
 7    1  0.2312612E-008  0.4614232E+02  0.7816164E-02  0.1320468E+00
        -11   -1    0    0    0    0  0.00000000000E+00  0.00000000000E+00  0.45593999997E+02  0.45594000000E+02  0.51100000000E-03 0.  1.
         11   -1    0    0    0    0 -0.00000000000E+00 -0.00000000000E+00 -0.45593999997E+02  0.45594000000E+02  0.51100000000E-03 0. -1.
    9900012    2    1    2    0    0 -0.33507488521E+02  0.29063056524E+02  0.78549721148E+01  0.46142316206E+02  0.99999858213E+01 0.  0.
         12    1    1    2    0    0  0.33507488521E+02 -0.29063056524E+02 -0.78549721148E+01  0.45045683794E+02  0.00000000000E+00 0. -1.
         11    1    3    3    0    0 -0.29194111661E+01  0.30402924434E+01  0.31903678914E+01  0.52862829325E+01  0.51100000000E-03 0. -1.
        -11    1    3    3    0    0 -0.12144288544E+02  0.12758563705E+02  0.43153599888E+01  0.18135242600E+02  0.51100000000E-03 0.  1.
         12    1    3    3    0    0 -0.18443788812E+02  0.13264200375E+02  0.34924423455E+00  0.22720790674E+02  0.00000000000E+00 0. -1.
</event>
<event>
 7    1  0.2312612E-008  0.4614232E+02  0.7816164E-02  0.1320468E+00
        -11   -1    0    0    0    0  0.00000000000E+00  0.00000000000E+00  0.45593999997E+02  0.45594000000E+02  0.51100000000E-03 0.  1.
         11   -1    0    0    0    0 -0.00000000000E+00 -0.00000000000E+00 -0.45593999997E+02  0.45594000000E+02  0.51100000000E-03 0. -1.
    9900012    2    1    2    0    0  0.10951908744E+02 -0.39947354293E+02  0.17702478969E+02  0.46142321164E+02  0.10000031026E+02 0.  0.
         12    1    1    2    0    0 -0.10951908744E+02  0.39947354293E+02 -0.17702478969E+02  0.45045678836E+02  0.00000000000E+00 0. -1.
         11    1    3    3    0    0  0.83387208817E+01 -0.19534462613E+02  0.85850863375E+01  0.22909238381E+02  0.51100000000E-03 0. -1.
        -11    1    3    3    0    0  0.31967354666E+01 -0.64212606808E+01  0.45890024982E+01  0.85153185827E+01  0.51100000000E-03 0.  1.
        -12    1    3    3    0    0 -0.58354760481E+00 -0.13991631000E+02  0.45283901336E+01  0.14717764200E+02  0.00000000000E+00 0.  1.
</event>
<event>
 7    1  0.2312612E-008  0.4614231E+02  0.7816164E-02  0.1320468E+00
        -11   -1    0    0    0    0  0.00000000000E+00  0.00000000000E+00  0.45593999997E+02  0.45594000000E+02  0.51100000000E-03 0. -1.
         11   -1    0    0    0    0 -0.00000000000E+00 -0.00000000000E+00 -0.45593999997E+02  0.45594000000E+02  0.51100000000E-03 0.  1.
    9900012    2    1    2    0    0 -0.23787439293E+02  0.15328642614E+02 -0.35047172948E+02  0.46142313368E+02  0.99999599398E+01 0.  0.
         12    1    1    2    0    0  0.23787439293E+02 -0.15328642614E+02  0.35047172948E+02  0.45045686632E+02  0.00000000000E+00 0. -1.
         11    1    3    3    0    0 -0.46486299576E+01  0.90248074599E+00 -0.90929483783E+01  0.10252118925E+02  0.51100000000E-03 0. -1.
        -11    1    3    3    0    0 -0.15386475432E+02  0.80201452695E+01 -0.18712707166E+02  0.25519243055E+02  0.51100000000E-03 0.  1.
        -12    1    3    3    0    0 -0.37523339031E+01  0.64060165984E+01 -0.72415174038E+01  0.10370951388E+02  0.00000000000E+00 0.  1.
</event>
<event>
 7    1  0.2312612E-008  0.4614232E+02  0.7816164E-02  0.1320468E+00
        -11   -1    0    0    0    0  0.00000000000E+00  0.00000000000E+00  0.45593999997E+02  0.45594000000E+02  0.51100000000E-03 0.  1.
         11   -1    0    0    0    0 -0.00000000000E+00 -0.00000000000E+00 -0.45593999997E+02  0.45594000000E+02  0.51100000000E-03 0. -1.
    9900012    2    1    2    0    0  0.17750592575E+02  0.13925784925E+02  0.38988489111E+02  0.46142319788E+02  0.10000018487E+02 0.  0.
         12    1    1    2    0    0 -0.17750592575E+02 -0.13925784925E+02 -0.38988489111E+02  0.45045680212E+02  0.00000000000E+00 0. -1.
         11    1    3    3    0    0  0.65963328859E+01  0.79720112755E+01  0.12842457829E+02  0.16492219216E+02  0.51100000000E-03 0. -1.
        -11    1    3    3    0    0  0.15852690752E+01  0.73035889506E+00  0.55145206938E+00  0.18304649143E+01  0.51100000000E-03 0.  1.
        -12    1    3    3    0    0  0.95689906136E+01  0.52234147548E+01  0.25594579213E+02  0.27819635658E+02  0.00000000000E+00 0.  1.
</event>
<event>
 7    1  0.2312612E-008  0.4614232E+02  0.7816164E-02  0.1320468E+00
        -11   -1    0    0    0    0  0.00000000000E+00  0.00000000000E+00  0.45593999997E+02  0.45594000000E+02  0.51100000000E-03 0.  1.
         11   -1    0    0    0    0 -0.00000000000E+00 -0.00000000000E+00 -0.45593999997E+02  0.45594000000E+02  0.51100000000E-03 0. -1.
    9900012    2    1    2    0    0  0.99275081784E+01  0.92704138522E+01  0.42949010492E+02  0.46142317700E+02  0.99999994398E+01 0.  0.
         12    1    1    2    0    0 -0.99275081784E+01 -0.92704138522E+01 -0.42949010492E+02  0.45045682300E+02  0.00000000000E+00 0. -1.
         11    1    3    3    0    0 -0.28402546729E-02  0.49775054933E+01  0.11106262130E+02  0.12170646153E+02  0.51100000000E-03 0. -1.
        -11    1    3    3    0    0  0.47214023486E-01  0.12266820766E+01  0.61886129905E+01  0.63091924276E+01  0.51100000000E-03 0.  1.
        -12    1    3    3    0    0  0.98831344096E+01  0.30662262823E+01  0.25654135372E+02  0.27662479119E+02  0.00000000000E+00 0.  1.
</event>
<event>
 7    1  0.2312612E-008  0.4614232E+02  0.7816164E-02  0.1320468E+00
        -11   -1    0    0    0    0  0.00000000000E+00  0.00000000000E+00  0.45593999997E+02  0.45594000000E+02  0.51100000000E-03 0.  1.
         11   -1    0    0    0    0 -0.00000000000E+00 -0.00000000000E+00 -0.45593999997E+02  0.45594000000E+02  0.51100000000E-03 0. -1.
    9900012    2    1    2    0    0  0.92667544698E+01 -0.18672419982E+01  0.44042641549E+02  0.46142316459E+02  0.99999881250E+01 0.  0.
         12    1    1    2    0    0 -0.92667544698E+01  0.18672419982E+01 -0.44042641549E+02  0.45045683541E+02  0.00000000000E+00 0. -1.
         11    1    3    3    0    0  0.37810990990E+01 -0.16883233439E+01  0.48418559717E+01  0.63710843364E+01  0.51100000000E-03 0. -1.
        -11    1    3    3    0    0  0.48707116037E+01 -0.14641046717E+01  0.34021414053E+02  0.34399477444E+02  0.51100000000E-03 0.  1.
         12    1    3    3    0    0  0.61494376711E+00  0.12851860174E+01  0.51793715246E+01  0.53717546785E+01  0.00000000000E+00 0. -1.
</event>
<event>
 7    1  0.2312612E-008  0.4614232E+02  0.7816164E-02  0.1320468E+00
        -11   -1    0    0    0    0  0.00000000000E+00  0.00000000000E+00  0.45593999997E+02  0.45594000000E+02  0.51100000000E-03 0.  1.
         11   -1    0    0    0    0 -0.00000000000E+00 -0.00000000000E+00 -0.45593999997E+02  0.45594000000E+02  0.51100000000E-03 0. -1.
    9900012    2    1    2    0    0  0.37765469122E+02 -0.16986988104E+02  0.17729214223E+02  0.46142318078E+02  0.10000002889E+02 0.  0.
         12    1    1    2    0    0 -0.37765469122E+02  0.16986988104E+02 -0.17729214223E+02  0.45045681922E+02  0.00000000000E+00 0. -1.
         11    1    3    3    0    0  0.12186838306E+02 -0.46115456334E+01  0.27943657973E+01  0.13326434688E+02  0.51100000000E-03 0. -1.
        -11    1    3    3    0    0  0.69126448169E+01 -0.19474458598E+01  0.89566962338E+00  0.72373633373E+01  0.51100000000E-03 0.  1.
        -12    1    3    3    0    0  0.18665986000E+02 -0.10427996611E+02  0.14039178802E+02  0.25578520053E+02  0.00000000000E+00 0.  1.
</event>
<event>
 7    1  0.2586883E-008  0.4614232E+02  0.7816164E-02  0.1320468E+00
        -11   -1    0    0    0    0  0.00000000000E+00  0.00000000000E+00  0.45593999997E+02  0.45594000000E+02  0.51100000000E-03 0.  1.
         11   -1    0    0    0    0 -0.00000000000E+00 -0.00000000000E+00 -0.45593999997E+02  0.45594000000E+02  0.51100000000E-03 0. -1.
    9900012    2    1    2    0    0  0.16361789884E+02  0.25887128430E+02  0.33034252257E+02  0.46142318644E+02  0.10000008055E+02 0.  0.
         12    1    1    2    0    0 -0.16361789884E+02 -0.25887128430E+02 -0.33034252257E+02  0.45045681356E+02  0.00000000000E+00 0. -1.
         11    1    3    3    0    0 -0.73944895655E+00  0.84558268616E+00  0.11492312358E+01  0.16070244344E+01  0.51100000000E-03 0. -1.
        -11    1    3    3    0    0  0.94604708336E+01  0.14083804947E+02  0.22630479414E+02  0.28284141651E+02  0.51100000000E-03 0.  1.
        -12    1    3    3    0    0  0.76407680071E+01  0.10957740797E+02  0.92545416074E+01  0.16251152559E+02  0.00000000000E+00 0.  1.
</event>
<event>
 7    1  0.2312612E-008  0.4614232E+02  0.7816164E-02  0.1320468E+00
        -11   -1    0    0    0    0  0.00000000000E+00  0.00000000000E+00  0.45593999997E+02  0.45594000000E+02  0.51100000000E-03 0.  1.
         11   -1    0    0    0    0 -0.00000000000E+00 -0.00000000000E+00 -0.45593999997E+02  0.45594000000E+02  0.51100000000E-03 0. -1.
    9900012    2    1    2    0    0  0.40407309732E+02  0.16819465932E+02  0.10652150975E+02  0.46142318360E+02  0.10000005465E+02 0.  0.
         12    1    1    2    0    0 -0.40407309732E+02 -0.16819465932E+02 -0.10652150975E+02  0.45045681640E+02  0.00000000000E+00 0. -1.
         11    1    3    3    0    0  0.81959454488E+01  0.22823348321E+01  0.24740518844E+01  0.88602204867E+01  0.51100000000E-03 0. -1.
        -11    1    3    3    0    0  0.71327693605E+01  0.64039373832E-01 -0.21063678631E+00  0.71361661912E+01  0.51100000000E-03 0.  1.
         12    1    3    3    0    0  0.25078594922E+02  0.14473091726E+02  0.83887358767E+01  0.30145931682E+02  0.00000000000E+00 0. -1.
</event>
<event>
 7    1  0.2312612E-008  0.4614231E+02  0.7816164E-02  0.1320468E+00
        -11   -1    0    0    0    0  0.00000000000E+00  0.00000000000E+00  0.45593999997E+02  0.45594000000E+02  0.51100000000E-03 0.  1.
         11   -1    0    0    0    0 -0.00000000000E+00 -0.00000000000E+00 -0.45593999997E+02  0.45594000000E+02  0.51100000000E-03 0. -1.
    9900012    2    1    2    0    0 -0.13978376864E+02 -0.38675160853E+02  0.18383436406E+02  0.46142314071E+02  0.99999663462E+01 0.  0.
         12    1    1    2    0    0  0.13978376864E+02  0.38675160853E+02 -0.18383436406E+02  0.45045685929E+02  0.00000000000E+00 0. -1.
         11    1    3    3    0    0 -0.10279576880E+00 -0.34750826013E+01  0.35006568269E+01  0.49336968428E+01  0.51100000000E-03 0. -1.
        -11    1    3    3    0    0 -0.11116967138E+02 -0.31156542059E+02  0.10693869926E+02  0.34766016822E+02  0.51100000000E-03 0.  1.
        -12    1    3    3    0    0 -0.27586139570E+01 -0.40435361932E+01  0.41889096527E+01  0.64426004057E+01  0.00000000000E+00 0.  1.
</event>
<event>
 7    1  0.2312612E-008  0.4614232E+02  0.7816164E-02  0.1320468E+00
        -11   -1    0    0    0    0  0.00000000000E+00  0.00000000000E+00  0.45593999997E+02  0.45594000000E+02  0.51100000000E-03 0.  1.
         11   -1    0    0    0    0 -0.00000000000E+00 -0.00000000000E+00 -0.45593999997E+02  0.45594000000E+02  0.51100000000E-03 0. -1.
    9900012    2    1    2    0    0 -0.13018818854E+02 -0.42624532755E+02  0.65401216273E+01  0.46142316213E+02  0.99999858845E+01 0.  0.
         12    1    1    2    0    0  0.13018818854E+02  0.42624532755E+02 -0.65401216273E+01  0.45045683787E+02  0.00000000000E+00 0. -1.
         11    1    3    3    0    0  0.15332822826E+00 -0.23765033681E+01  0.17011259252E+01  0.29266204876E+01  0.51100000000E-03 0. -1.
        -11    1    3    3    0    0 -0.10717839801E+01 -0.57637419892E+01  0.30928240172E+01  0.66283484580E+01  0.51100000000E-03 0.  1.
         12    1    3    3    0    0 -0.12100363102E+02 -0.34484287398E+02  0.17461716849E+01  0.36587347268E+02  0.00000000000E+00 0. -1.
</event>
<event>
 7    1  0.2312612E-008  0.4614232E+02  0.7816164E-02  0.1320468E+00
        -11   -1    0    0    0    0  0.00000000000E+00  0.00000000000E+00  0.45593999997E+02  0.45594000000E+02  0.51100000000E-03 0. -1.
         11   -1    0    0    0    0 -0.00000000000E+00 -0.00000000000E+00 -0.45593999997E+02  0.45594000000E+02  0.51100000000E-03 0.  1.
    9900012    2    1    2    0    0 -0.22817718145E+02  0.37352404688E+01 -0.38658934988E+02  0.46142317221E+02  0.99999950716E+01 0.  0.
         12    1    1    2    0    0  0.22817718145E+02 -0.37352404688E+01  0.38658934988E+02  0.45045682779E+02  0.00000000000E+00 0. -1.
         11    1    3    3    0    0 -0.12871802498E+02  0.84213640686E+00 -0.13956744406E+02  0.19004820650E+02  0.51100000000E-03 0. -1.
        -11    1    3    3    0    0 -0.21345858678E+01 -0.11529924204E+01 -0.58889878830E+01  0.63691464810E+01  0.51100000000E-03 0.  1.
         12    1    3    3    0    0 -0.78113297788E+01  0.40460964824E+01 -0.18813202699E+02  0.20768350089E+02  0.00000000000E+00 0. -1.
</event>
<event>
 7    1  0.2312612E-008  0.4614232E+02  0.7816164E-02  0.1320468E+00
        -11   -1    0    0    0    0  0.00000000000E+00  0.00000000000E+00  0.45593999997E+02  0.45594000000E+02  0.51100000000E-03 0.  1.
         11   -1    0    0    0    0 -0.00000000000E+00 -0.00000000000E+00 -0.45593999997E+02  0.45594000000E+02  0.51100000000E-03 0. -1.
    9900012    2    1    2    0    0 -0.39010352825E+02  0.18896388615E+02  0.12256932294E+02  0.46142317416E+02  0.99999968537E+01 0.  0.
         12    1    1    2    0    0  0.39010352825E+02 -0.18896388615E+02 -0.12256932294E+02  0.45045682584E+02  0.00000000000E+00 0. -1.
         11    1    3    3    0    0 -0.12003267027E+02  0.19850332831E+01  0.19336686681E+01  0.12319003662E+02  0.51100000000E-03 0.  1.
        -11    1    3    3    0    0 -0.63357797002E+01  0.61518844921E+01  0.18206599174E+01  0.90167948857E+01  0.51100000000E-03 0. -1.
        -12    1    3    3    0    0 -0.20671306098E+02  0.10759470840E+02  0.85026037082E+01  0.24806518868E+02  0.00000000000E+00 0.  1.
</event>
<event>
 7    1  0.2312612E-008  0.4614232E+02  0.7816164E-02  0.1320468E+00
        -11   -1    0    0    0    0  0.00000000000E+00  0.00000000000E+00  0.45593999997E+02  0.45594000000E+02  0.51100000000E-03 0. -1.
         11   -1    0    0    0    0 -0.00000000000E+00 -0.00000000000E+00 -0.45593999997E+02  0.45594000000E+02  0.51100000000E-03 0.  1.
    9900012    2    1    2    0    0  0.10428742647E+02  0.96294432071E+01 -0.42750775185E+02  0.46142316204E+02  0.99999858033E+01 0.  0.
         12    1    1    2    0    0 -0.10428742647E+02 -0.96294432071E+01  0.42750775185E+02  0.45045683796E+02  0.00000000000E+00 0. -1.
         11    1    3    3    0    0  0.10681583022E+01 -0.18989649022E+01 -0.82583887918E+01  0.85409610440E+01  0.51100000000E-03 0. -1.
        -11    1    3    3    0    0  0.44342842824E+01  0.45265354737E+01 -0.16534713935E+02  0.17707319550E+02  0.51100000000E-03 0.  1.
         12    1    3    3    0    0  0.49263000623E+01  0.70018726356E+01 -0.17957672459E+02  0.19894035610E+02  0.00000000000E+00 0. -1.
</event>
<event>
 7    1  0.2312612E-008  0.4614232E+02  0.7816164E-02  0.1320468E+00
        -11   -1    0    0    0    0  0.00000000000E+00  0.00000000000E+00  0.45593999997E+02  0.45594000000E+02  0.51100000000E-03 0.  1.
         11   -1    0    0    0    0 -0.00000000000E+00 -0.00000000000E+00 -0.45593999997E+02  0.45594000000E+02  0.51100000000E-03 0. -1.
    9900012    2    1    2    0    0  0.19471184485E+02  0.62263020427E+01  0.40139998959E+02  0.46142318977E+02  0.10000011087E+02 0.  0.
         12    1    1    2    0    0 -0.19471184485E+02 -0.62263020427E+01 -0.40139998959E+02  0.45045681023E+02  0.00000000000E+00 0. -1.
         11    1    3    3    0    0  0.78216281634E+01 -0.19860810528E+01  0.10422210683E+02  0.13181231386E+02  0.51100000000E-03 0. -1.
        -11    1    3    3    0    0  0.46104217364E+01  0.31729129046E+01  0.12051993274E+02  0.13288111492E+02  0.51100000000E-03 0.  1.
         12    1    3    3    0    0  0.70391345852E+01  0.50394701909E+01  0.17665795002E+02  0.19672976098E+02  0.00000000000E+00 0. -1.
</event>
<event>
 7    1  0.2312612E-008  0.4614232E+02  0.7816164E-02  0.1320468E+00
        -11   -1    0    0    0    0  0.00000000000E+00  0.00000000000E+00  0.45593999997E+02  0.45594000000E+02  0.51100000000E-03 0. -1.
         11   -1    0    0    0    0 -0.00000000000E+00 -0.00000000000E+00 -0.45593999997E+02  0.45594000000E+02  0.51100000000E-03 0.  1.
    9900012    2    1    2    0    0 -0.41939375166E+02  0.15444261970E+02 -0.56282423950E+01  0.46142317304E+02  0.99999958336E+01 0.  0.
         12    1    1    2    0    0  0.41939375166E+02 -0.15444261970E+02  0.56282423950E+01  0.45045682696E+02  0.00000000000E+00 0. -1.
         11    1    3    3    0    0 -0.25953408294E+01 -0.70864099234E+00 -0.92218793497E+00  0.28440107112E+01  0.51100000000E-03 0. -1.
        -11    1    3    3    0    0 -0.33000746527E+02  0.15199982940E+02 -0.57943885304E+01  0.36792168888E+02  0.51100000000E-03 0.  1.
        -12    1    3    3    0    0 -0.63432878087E+01  0.95292002182E+00  0.10883340704E+01  0.65061377053E+01  0.00000000000E+00 0.  1.
</event>
<event>
 7    1  0.2312612E-008  0.4614232E+02  0.7816164E-02  0.1320468E+00
        -11   -1    0    0    0    0  0.00000000000E+00  0.00000000000E+00  0.45593999997E+02  0.45594000000E+02  0.51100000000E-03 0.  1.
         11   -1    0    0    0    0 -0.00000000000E+00 -0.00000000000E+00 -0.45593999997E+02  0.45594000000E+02  0.51100000000E-03 0. -1.
    9900012    2    1    2    0    0  0.61109215839E+01 -0.23441863730E+02  0.37976956646E+02  0.46142316813E+02  0.99999913509E+01 0.  0.
         12    1    1    2    0    0 -0.61109215839E+01  0.23441863730E+02 -0.37976956646E+02  0.45045683187E+02  0.00000000000E+00 0. -1.
         11    1    3    3    0    0 -0.79534853265E+00 -0.46292403778E+01  0.10441084894E+02  0.11448960642E+02  0.51100000000E-03 0. -1.
        -11    1    3    3    0    0  0.36453777760E+00  0.10177068696E+00  0.30293650959E+01  0.30529163450E+01  0.51100000000E-03 0.  1.
         12    1    3    3    0    0  0.65417323390E+01 -0.18914394040E+02  0.24506506656E+02  0.31640439825E+02  0.00000000000E+00 0. -1.
</event>
<event>
 7    1  0.2312612E-008  0.4614232E+02  0.7816164E-02  0.1320468E+00
        -11   -1    0    0    0    0  0.00000000000E+00  0.00000000000E+00  0.45593999997E+02  0.45594000000E+02  0.51100000000E-03 0.  1.
         11   -1    0    0    0    0 -0.00000000000E+00 -0.00000000000E+00 -0.45593999997E+02  0.45594000000E+02  0.51100000000E-03 0. -1.
    9900012    2    1    2    0    0 -0.82224921064E+01  0.43268992967E+02  0.94497840342E+01  0.46142317109E+02  0.99999940564E+01 0.  0.
         12    1    1    2    0    0  0.82224921064E+01 -0.43268992967E+02 -0.94497840342E+01  0.45045682891E+02  0.00000000000E+00 0. -1.
         11    1    3    3    0    0 -0.16604734811E+01  0.25332519254E+02  0.53689061681E+01  0.25948388343E+02  0.51100000000E-03 0. -1.
        -11    1    3    3    0    0 -0.33664003086E+01  0.11642375815E+02  0.16241871175E+00  0.12120393795E+02  0.51100000000E-03 0.  1.
        -12    1    3    3    0    0 -0.31956183167E+01  0.62940978983E+01  0.39184591543E+01  0.80735349707E+01  0.00000000000E+00 0.  1.
</event>
<event>
 7    1  0.2312612E-008  0.4614232E+02  0.7816164E-02  0.1320468E+00
        -11   -1    0    0    0    0  0.00000000000E+00  0.00000000000E+00  0.45593999997E+02  0.45594000000E+02  0.51100000000E-03 0. -1.
         11   -1    0    0    0    0 -0.00000000000E+00 -0.00000000000E+00 -0.45593999997E+02  0.45594000000E+02  0.51100000000E-03 0.  1.
    9900012    2    1    2    0    0 -0.34407935238E+02  0.14806336167E+02 -0.25019591376E+02  0.46142317069E+02  0.99999936927E+01 0.  0.
         12    1    1    2    0    0  0.34407935238E+02 -0.14806336167E+02  0.25019591376E+02  0.45045682931E+02  0.00000000000E+00 0. -1.
         11    1    3    3    0    0 -0.63854990774E+01  0.55585195988E+01 -0.48701059797E+01  0.97667635946E+01  0.51100000000E-03 0. -1.
        -11    1    3    3    0    0 -0.31726671279E+01  0.27222809860E+01 -0.91098134275E+00  0.42786116603E+01  0.51100000000E-03 0.  1.
        -12    1    3    3    0    0 -0.24849769033E+02  0.65255355823E+01 -0.19238504054E+02  0.32096941815E+02  0.00000000000E+00 0.  1.
</event>
<event>
 7    1  0.2312612E-008  0.4614232E+02  0.7816164E-02  0.1320468E+00
        -11   -1    0    0    0    0  0.00000000000E+00  0.00000000000E+00  0.45593999997E+02  0.45594000000E+02  0.51100000000E-03 0.  1.
         11   -1    0    0    0    0 -0.00000000000E+00 -0.00000000000E+00 -0.45593999997E+02  0.45594000000E+02  0.51100000000E-03 0. -1.
    9900012    2    1    2    0    0 -0.39076234306E+02  0.22305824189E+02 -0.21474784814E+01  0.46142317142E+02  0.99999943543E+01 0.  0.
         12    1    1    2    0    0  0.39076234306E+02 -0.22305824189E+02  0.21474784814E+01  0.45045682858E+02  0.00000000000E+00 0. -1.
         11    1    3    3    0    0 -0.37283472618E+01  0.16084133180E+01 -0.16094163087E+01  0.43678127045E+01  0.51100000000E-03 0. -1.
        -11    1    3    3    0    0 -0.26625158328E+02  0.18413220582E+02  0.19191923465E+01  0.32428830502E+02  0.51100000000E-03 0.  1.
        -12    1    3    3    0    0 -0.87227287163E+01  0.22841902890E+01 -0.24572545191E+01  0.93456739354E+01  0.00000000000E+00 0.  1.
</event>
<event>
 7    1  0.3124931E-008  0.4614232E+02  0.7816164E-02  0.1320468E+00
        -11   -1    0    0    0    0  0.00000000000E+00  0.00000000000E+00  0.45593999997E+02  0.45594000000E+02  0.51100000000E-03 0. -1.
         11   -1    0    0    0    0 -0.00000000000E+00 -0.00000000000E+00 -0.45593999997E+02  0.45594000000E+02  0.51100000000E-03 0.  1.
    9900012    2    1    2    0    0  0.13281439371E+02 -0.13854118716E+02 -0.40752671923E+02  0.46142317566E+02  0.99999982171E+01 0.  0.
         12    1    1    2    0    0 -0.13281439371E+02  0.13854118716E+02  0.40752671923E+02  0.45045682434E+02  0.00000000000E+00 0. -1.
         11    1    3    3    0    0  0.40564279056E+01 -0.10708409950E+00 -0.52721209952E+01  0.66529192395E+01  0.51100000000E-03 0. -1.
        -11    1    3    3    0    0  0.37952741436E+01 -0.27170616823E+01 -0.64386982217E+01  0.79525697144E+01  0.51100000000E-03 0.  1.
        -12    1    3    3    0    0  0.54297373214E+01 -0.11029972934E+02 -0.29041852706E+02  0.31536828612E+02  0.00000000000E+00 0.  1.
</event>
<event>
 7    1  0.2312612E-008  0.4614232E+02  0.7816164E-02  0.1320468E+00
        -11   -1    0    0    0    0  0.00000000000E+00  0.00000000000E+00  0.45593999997E+02  0.45594000000E+02  0.51100000000E-03 0.  1.
         11   -1    0    0    0    0 -0.00000000000E+00 -0.00000000000E+00 -0.45593999997E+02  0.45594000000E+02  0.51100000000E-03 0. -1.
    9900012    2    1    2    0    0  0.14768293171E+01 -0.19595101738E+02  0.40533498464E+02  0.46142317247E+02  0.99999953113E+01 0.  0.
         12    1    1    2    0    0 -0.14768293171E+01  0.19595101738E+02 -0.40533498464E+02  0.45045682753E+02  0.00000000000E+00 0. -1.
         11    1    3    3    0    0 -0.34229326135E+01 -0.59796422751E+01  0.11504433575E+02  0.13409868812E+02  0.51100000000E-03 0. -1.
        -11    1    3    3    0    0  0.17011714851E+01 -0.10460342965E+02  0.19370863494E+02  0.22080378442E+02  0.51100000000E-03 0.  1.
         12    1    3    3    0    0  0.31985904455E+01 -0.31551164987E+01  0.96582013945E+01  0.10652069993E+02  0.00000000000E+00 0. -1.
</event>
<event>
 7    1  0.2312612E-008  0.4614232E+02  0.7816164E-02  0.1320468E+00
        -11   -1    0    0    0    0  0.00000000000E+00  0.00000000000E+00  0.45593999997E+02  0.45594000000E+02  0.51100000000E-03 0.  1.
         11   -1    0    0    0    0 -0.00000000000E+00 -0.00000000000E+00 -0.45593999997E+02  0.45594000000E+02  0.51100000000E-03 0. -1.
    9900012    2    1    2    0    0 -0.39239053899E+02 -0.18888353936E+01  0.22041833574E+02  0.46142317884E+02  0.10000001118E+02 0.  0.
         12    1    1    2    0    0  0.39239053899E+02  0.18888353936E+01 -0.22041833574E+02  0.45045682116E+02  0.00000000000E+00 0. -1.
         11    1    3    3    0    0 -0.96588018736E+00  0.26342268989E+00  0.16313916975E+00  0.10143622133E+01  0.51100000000E-03 0. -1.
        -11    1    3    3    0    0 -0.86975238923E+01 -0.44410964547E+01  0.45548159731E+01  0.10775741663E+02  0.51100000000E-03 0.  1.
        -12    1    3    3    0    0 -0.29575649819E+02  0.22888383713E+01  0.17323878431E+02  0.34352214007E+02  0.00000000000E+00 0.  1.
</event>
<event>
 7    1  0.2312612E-008  0.4614232E+02  0.7816164E-02  0.1320468E+00
        -11   -1    0    0    0    0  0.00000000000E+00  0.00000000000E+00  0.45593999997E+02  0.45594000000E+02  0.51100000000E-03 0.  1.
         11   -1    0    0    0    0 -0.00000000000E+00 -0.00000000000E+00 -0.45593999997E+02  0.45594000000E+02  0.51100000000E-03 0. -1.
    9900012    2    1    2    0    0 -0.31538945039E+02  0.64349998492E+01  0.31511893714E+02  0.46142315160E+02  0.99999762821E+01 0.  0.
         12    1    1    2    0    0  0.31538945039E+02 -0.64349998492E+01 -0.31511893714E+02  0.45045684840E+02  0.00000000000E+00 0. -1.
         11    1    3    3    0    0 -0.18958734050E+01  0.18567396573E+00  0.51976170489E+01  0.55357053785E+01  0.51100000000E-03 0. -1.
        -11    1    3    3    0    0 -0.55714219591E+01 -0.10978327767E+01  0.60212785830E+01  0.82765799390E+01  0.51100000000E-03 0.  1.
        -12    1    3    3    0    0 -0.24071649675E+02  0.73471586603E+01  0.20292998082E+02  0.32330029843E+02  0.00000000000E+00 0.  1.
</event>
<event>
 7    1  0.2312612E-008  0.4614232E+02  0.7816164E-02  0.1320468E+00
        -11   -1    0    0    0    0  0.00000000000E+00  0.00000000000E+00  0.45593999997E+02  0.45594000000E+02  0.51100000000E-03 0. -1.
         11   -1    0    0    0    0 -0.00000000000E+00 -0.00000000000E+00 -0.45593999997E+02  0.45594000000E+02  0.51100000000E-03 0.  1.
    9900012    2    1    2    0    0  0.14039581553E+02  0.42586247365E+02 -0.42912917153E+01  0.46142317639E+02  0.99999988827E+01 0.  0.
         12    1    1    2    0    0 -0.14039581553E+02 -0.42586247365E+02  0.42912917153E+01  0.45045682361E+02  0.00000000000E+00 0. -1.
         11    1    3    3    0    0  0.10245747801E+01  0.97642542076E+01 -0.25427480827E+01  0.10141793815E+02  0.51100000000E-03 0. -1.
        -11    1    3    3    0    0  0.12775892300E+00  0.53244673199E+01 -0.18334354898E+01  0.56327400561E+01  0.51100000000E-03 0.  1.
        -12    1    3    3    0    0  0.12887247850E+02  0.27497525838E+02  0.84891857185E-01  0.30367783768E+02  0.00000000000E+00 0.  1.
</event>
<event>
 7    1  0.2312612E-008  0.4614232E+02  0.7816164E-02  0.1320468E+00
        -11   -1    0    0    0    0  0.00000000000E+00  0.00000000000E+00  0.45593999997E+02  0.45594000000E+02  0.51100000000E-03 0. -1.
         11   -1    0    0    0    0 -0.00000000000E+00 -0.00000000000E+00 -0.45593999997E+02  0.45594000000E+02  0.51100000000E-03 0.  1.
    9900012    2    1    2    0    0 -0.41825893988E+02  0.13757914346E+02 -0.95093570585E+01  0.46142317779E+02  0.10000000165E+02 0.  0.
         12    1    1    2    0    0  0.41825893988E+02 -0.13757914346E+02  0.95093570585E+01  0.45045682221E+02  0.00000000000E+00 0. -1.
         11    1    3    3    0    0 -0.14425738845E+02  0.53830858309E+01 -0.66254958551E+01  0.16762361107E+02  0.51100000000E-03 0. -1.
        -11    1    3    3    0    0 -0.95740160338E+01  0.53083372015E+01 -0.27677339413E+01  0.11291615398E+02  0.51100000000E-03 0.  1.
        -12    1    3    3    0    0 -0.17826139109E+02  0.30664913134E+01 -0.11612726213E+00  0.18088341274E+02  0.00000000000E+00 0.  1.
</event>
<event>
 7    1  0.2312612E-008  0.4614232E+02  0.7816164E-02  0.1320468E+00
        -11   -1    0    0    0    0  0.00000000000E+00  0.00000000000E+00  0.45593999997E+02  0.45594000000E+02  0.51100000000E-03 0.  1.
         11   -1    0    0    0    0 -0.00000000000E+00 -0.00000000000E+00 -0.45593999997E+02  0.45594000000E+02  0.51100000000E-03 0. -1.
    9900012    2    1    2    0    0  0.19527037801E+02  0.26241276076E+02  0.30971011986E+02  0.46142319200E+02  0.10000013117E+02 0.  0.
         12    1    1    2    0    0 -0.19527037801E+02 -0.26241276076E+02 -0.30971011986E+02  0.45045680800E+02  0.00000000000E+00 0. -1.
         11    1    3    3    0    0  0.82756663745E+01  0.11676794005E+02  0.15149747238E+02  0.20841041572E+02  0.51100000000E-03 0.  1.
        -11    1    3    3    0    0  0.10801407883E+02  0.90344646678E+01  0.10082815897E+02  0.17319213052E+02  0.51100000000E-03 0. -1.
         12    1    3    3    0    0  0.44996354392E+00  0.55300174032E+01  0.57384488507E+01  0.79820645751E+01  0.00000000000E+00 0. -1.
</event>
<event>
 7    1  0.2312612E-008  0.4614232E+02  0.7816164E-02  0.1320468E+00
        -11   -1    0    0    0    0  0.00000000000E+00  0.00000000000E+00  0.45593999997E+02  0.45594000000E+02  0.51100000000E-03 0. -1.
         11   -1    0    0    0    0 -0.00000000000E+00 -0.00000000000E+00 -0.45593999997E+02  0.45594000000E+02  0.51100000000E-03 0.  1.
    9900012    2    1    2    0    0  0.98770077289E+01  0.34127771709E+02  0.27692117966E+02  0.46142317843E+02  0.10000000749E+02 0.  0.
         12    1    1    2    0    0 -0.98770077289E+01 -0.34127771709E+02 -0.27692117966E+02  0.45045682157E+02  0.00000000000E+00 0. -1.
         11    1    3    3    0    0  0.51052315539E+01  0.85088681648E+01  0.86061570573E+01  0.13135073895E+02  0.51100000000E-03 0.  1.
        -11    1    3    3    0    0 -0.14251161544E+01  0.23725560488E+01  0.11409336466E+01  0.29936112148E+01  0.51100000000E-03 0. -1.
        -12    1    3    3    0    0  0.61968923293E+01  0.23246347496E+02  0.17945027262E+02  0.30013632734E+02  0.00000000000E+00 0.  1.
</event>
<event>
 7    1  0.2312612E-008  0.4614232E+02  0.7816164E-02  0.1320468E+00
        -11   -1    0    0    0    0  0.00000000000E+00  0.00000000000E+00  0.45593999997E+02  0.45594000000E+02  0.51100000000E-03 0.  1.
         11   -1    0    0    0    0 -0.00000000000E+00 -0.00000000000E+00 -0.45593999997E+02  0.45594000000E+02  0.51100000000E-03 0. -1.
    9900012    2    1    2    0    0 -0.37382229861E+02  0.61033823994E+01  0.24380958547E+02  0.46142317346E+02  0.99999962132E+01 0.  0.
         12    1    1    2    0    0  0.37382229861E+02 -0.61033823994E+01 -0.24380958547E+02  0.45045682654E+02  0.00000000000E+00 0. -1.
         11    1    3    3    0    0 -0.56775380584E+01  0.43285165112E+00  0.33900580981E+01  0.66267860329E+01  0.51100000000E-03 0.  1.
        -11    1    3    3    0    0 -0.10349805072E+02  0.62758467384E+01  0.70883499051E+01  0.14026739534E+02  0.51100000000E-03 0. -1.
         12    1    3    3    0    0 -0.21354886731E+02 -0.60531599012E+00  0.13902550544E+02  0.25488791779E+02  0.00000000000E+00 0. -1.
</event>
<event>
 7    1  0.2312612E-008  0.4614232E+02  0.7816164E-02  0.1320468E+00
        -11   -1    0    0    0    0  0.00000000000E+00  0.00000000000E+00  0.45593999997E+02  0.45594000000E+02  0.51100000000E-03 0. -1.
         11   -1    0    0    0    0 -0.00000000000E+00 -0.00000000000E+00 -0.45593999997E+02  0.45594000000E+02  0.51100000000E-03 0.  1.
    9900012    2    1    2    0    0  0.23996943914E+02  0.25934929268E+02  0.27939925612E+02  0.46142319668E+02  0.10000017391E+02 0.  0.
         12    1    1    2    0    0 -0.23996943914E+02 -0.25934929268E+02 -0.27939925612E+02  0.45045680332E+02  0.00000000000E+00 0. -1.
         11    1    3    3    0    0  0.19836011994E+01  0.40076604450E+01  0.12287724923E+01  0.46374452083E+01  0.51100000000E-03 0. -1.
        -11    1    3    3    0    0  0.27377624511E+01  0.57710995353E+01  0.35172607268E+01  0.72919171941E+01  0.51100000000E-03 0.  1.
        -12    1    3    3    0    0  0.19275580263E+02  0.16156169288E+02  0.23193892393E+02  0.34212957266E+02  0.00000000000E+00 0.  1.
</event>
<event>
 7    1  0.2312612E-008  0.4614232E+02  0.7816164E-02  0.1320468E+00
        -11   -1    0    0    0    0  0.00000000000E+00  0.00000000000E+00  0.45593999997E+02  0.45594000000E+02  0.51100000000E-03 0. -1.
         11   -1    0    0    0    0 -0.00000000000E+00 -0.00000000000E+00 -0.45593999997E+02  0.45594000000E+02  0.51100000000E-03 0.  1.
    9900012    2    1    2    0    0 -0.42253956011E+02 -0.79140691235E+01  0.13456755392E+02  0.46142317029E+02  0.99999933233E+01 0.  0.
         12    1    1    2    0    0  0.42253956011E+02  0.79140691235E+01 -0.13456755392E+02  0.45045682971E+02  0.00000000000E+00 0. -1.
         11    1    3    3    0    0 -0.32916783148E+02 -0.42453268005E+01  0.82811242518E+01  0.34206935431E+02  0.51100000000E-03 0. -1.
        -11    1    3    3    0    0 -0.63572999081E+01 -0.16247456066E+01  0.14002426363E+01  0.67093770284E+01  0.51100000000E-03 0.  1.
         12    1    3    3    0    0 -0.29798729545E+01 -0.20439967163E+01  0.37753885040E+01  0.52260045692E+01  0.00000000000E+00 0. -1.
</event>
<event>
 7    1  0.2312612E-008  0.4614232E+02  0.7816164E-02  0.1320468E+00
        -11   -1    0    0    0    0  0.00000000000E+00  0.00000000000E+00  0.45593999997E+02  0.45594000000E+02  0.51100000000E-03 0. -1.
         11   -1    0    0    0    0 -0.00000000000E+00 -0.00000000000E+00 -0.45593999997E+02  0.45594000000E+02  0.51100000000E-03 0.  1.
    9900012    2    1    2    0    0  0.18009269478E+02 -0.18497281648E+02 -0.36913821863E+02  0.46142318076E+02  0.10000002871E+02 0.  0.
         12    1    1    2    0    0 -0.18009269478E+02  0.18497281648E+02  0.36913821863E+02  0.45045681924E+02  0.00000000000E+00 0. -1.
         11    1    3    3    0    0  0.26289046751E+01 -0.17215559287E+01 -0.62901382299E+01  0.70314105142E+01  0.51100000000E-03 0. -1.
        -11    1    3    3    0    0  0.16318380212E+02 -0.14392430383E+02 -0.27704116802E+02  0.35227115594E+02  0.51100000000E-03 0.  1.
        -12    1    3    3    0    0 -0.93801540888E+00 -0.23832953357E+01 -0.29195668314E+01  0.38837919676E+01  0.00000000000E+00 0.  1.
</event>
<event>
 7    1  0.2312612E-008  0.4614232E+02  0.7816164E-02  0.1320468E+00
        -11   -1    0    0    0    0  0.00000000000E+00  0.00000000000E+00  0.45593999997E+02  0.45594000000E+02  0.51100000000E-03 0.  1.
         11   -1    0    0    0    0 -0.00000000000E+00 -0.00000000000E+00 -0.45593999997E+02  0.45594000000E+02  0.51100000000E-03 0. -1.
    9900012    2    1    2    0    0 -0.38932897948E+02  0.10783669344E+01  0.22631398602E+02  0.46142316294E+02  0.99999866241E+01 0.  0.
         12    1    1    2    0    0  0.38932897948E+02 -0.10783669344E+01 -0.22631398602E+02  0.45045683706E+02  0.00000000000E+00 0. -1.
         11    1    3    3    0    0 -0.11703837556E+02  0.22192985659E+01  0.10407696600E+02  0.15818509679E+02  0.51100000000E-03 0. -1.
        -11    1    3    3    0    0 -0.63004659841E+01  0.13946530300E+01  0.45207630504E+01  0.78789737599E+01  0.51100000000E-03 0.  1.
         12    1    3    3    0    0 -0.20928594407E+02 -0.25355846615E+01  0.77029389513E+01  0.22444832856E+02  0.00000000000E+00 0. -1.
</event>
<event>
 7    1  0.2312612E-008  0.4614232E+02  0.7816164E-02  0.1320468E+00
        -11   -1    0    0    0    0  0.00000000000E+00  0.00000000000E+00  0.45593999997E+02  0.45594000000E+02  0.51100000000E-03 0. -1.
         11   -1    0    0    0    0 -0.00000000000E+00 -0.00000000000E+00 -0.45593999997E+02  0.45594000000E+02  0.51100000000E-03 0.  1.
    9900012    2    1    2    0    0 -0.30590021059E+02  0.23502272706E+02 -0.23259562431E+02  0.46142318129E+02  0.10000003356E+02 0.  0.
         12    1    1    2    0    0  0.30590021059E+02 -0.23502272706E+02  0.23259562431E+02  0.45045681871E+02  0.00000000000E+00 0. -1.
         11    1    3    3    0    0 -0.96112913081E-01  0.15501312421E+01 -0.89655989355E+00  0.17933110337E+01  0.51100000000E-03 0. -1.
        -11    1    3    3    0    0 -0.27644444861E+02  0.16919507013E+02 -0.17764419035E+02  0.36960243954E+02  0.51100000000E-03 0.  1.
        -12    1    3    3    0    0 -0.28494632848E+01  0.50326344507E+01 -0.45985835030E+01  0.73887631414E+01  0.00000000000E+00 0.  1.
</event>
<event>
 7    1  0.2312612E-008  0.4614232E+02  0.7816164E-02  0.1320468E+00
        -11   -1    0    0    0    0  0.00000000000E+00  0.00000000000E+00  0.45593999997E+02  0.45594000000E+02  0.51100000000E-03 0. -1.
         11   -1    0    0    0    0 -0.00000000000E+00 -0.00000000000E+00 -0.45593999997E+02  0.45594000000E+02  0.51100000000E-03 0.  1.
    9900012    2    1    2    0    0 -0.29128142951E+02 -0.21274016430E+02  0.26982975247E+02  0.46142318298E+02  0.10000004897E+02 0.  0.
         12    1    1    2    0    0  0.29128142951E+02  0.21274016430E+02 -0.26982975247E+02  0.45045681702E+02  0.00000000000E+00 0. -1.
         11    1    3    3    0    0 -0.13165972321E+01 -0.21972241900E+01  0.52948396190E+01  0.58818831393E+01  0.51100000000E-03 0. -1.
        -11    1    3    3    0    0 -0.99050029584E+01 -0.72830698060E+01  0.59215857965E+01  0.13646148468E+02  0.51100000000E-03 0.  1.
        -12    1    3    3    0    0 -0.17906542760E+02 -0.11793722434E+02  0.15766549832E+02  0.26614286691E+02  0.00000000000E+00 0.  1.
</event>
<event>
 7    1  0.2312612E-008  0.4614232E+02  0.7816164E-02  0.1320468E+00
        -11   -1    0    0    0    0  0.00000000000E+00  0.00000000000E+00  0.45593999997E+02  0.45594000000E+02  0.51100000000E-03 0.  1.
         11   -1    0    0    0    0 -0.00000000000E+00 -0.00000000000E+00 -0.45593999997E+02  0.45594000000E+02  0.51100000000E-03 0. -1.
    9900012    2    1    2    0    0  0.12081825267E+02  0.42772086511E+02  0.73274491142E+01  0.46142318777E+02  0.10000009266E+02 0.  0.
         12    1    1    2    0    0 -0.12081825267E+02 -0.42772086511E+02 -0.73274491142E+01  0.45045681223E+02  0.00000000000E+00 0. -1.
         11    1    3    3    0    0 -0.89905779030E+00  0.41540782009E+01  0.23900844632E+00  0.42569702733E+01  0.51100000000E-03 0. -1.
        -11    1    3    3    0    0  0.65453456911E+01  0.10449465422E+02  0.11191162912E+01  0.12380844049E+02  0.51100000000E-03 0.  1.
        -12    1    3    3    0    0  0.64355373660E+01  0.28168542888E+02  0.59693243767E+01  0.29504504455E+02  0.00000000000E+00 0.  1.
</event>
<event>
 7    1  0.2312612E-008  0.4614232E+02  0.7816164E-02  0.1320468E+00
        -11   -1    0    0    0    0  0.00000000000E+00  0.00000000000E+00  0.45593999997E+02  0.45594000000E+02  0.51100000000E-03 0. -1.
         11   -1    0    0    0    0 -0.00000000000E+00 -0.00000000000E+00 -0.45593999997E+02  0.45594000000E+02  0.51100000000E-03 0.  1.
    9900012    2    1    2    0    0 -0.32757436088E+02 -0.82285779249E+01 -0.29805273856E+02  0.46142318039E+02  0.10000002534E+02 0.  0.
         12    1    1    2    0    0  0.32757436088E+02  0.82285779249E+01  0.29805273856E+02  0.45045681961E+02  0.00000000000E+00 0. -1.
         11    1    3    3    0    0 -0.16930950290E+02 -0.49505586377E+01 -0.14388036364E+02  0.22763582741E+02  0.51100000000E-03 0. -1.
        -11    1    3    3    0    0 -0.12243642789E+02 -0.46785972634E+01 -0.90094730577E+01  0.15904925845E+02  0.51100000000E-03 0.  1.
         12    1    3    3    0    0 -0.35828430089E+01  0.14005779762E+01 -0.64077644335E+01  0.74738094523E+01  0.00000000000E+00 0. -1.
</event>
<event>
 7    1  0.2312612E-008  0.4614232E+02  0.7816164E-02  0.1320468E+00
        -11   -1    0    0    0    0  0.00000000000E+00  0.00000000000E+00  0.45593999997E+02  0.45594000000E+02  0.51100000000E-03 0. -1.
         11   -1    0    0    0    0 -0.00000000000E+00 -0.00000000000E+00 -0.45593999997E+02  0.45594000000E+02  0.51100000000E-03 0.  1.
    9900012    2    1    2    0    0 -0.43236236175E+02 -0.11167399824E+02 -0.59186599235E+01  0.46142317935E+02  0.10000001582E+02 0.  0.
         12    1    1    2    0    0  0.43236236175E+02  0.11167399824E+02  0.59186599235E+01  0.45045682065E+02  0.00000000000E+00 0. -1.
         11    1    3    3    0    0 -0.10958378514E+02  0.11991034015E+01 -0.20893499881E+01  0.11220039761E+02  0.51100000000E-03 0. -1.
        -11    1    3    3    0    0 -0.12724304339E+02 -0.56033258894E+01 -0.13002872873E+00  0.13904031418E+02  0.51100000000E-03 0.  1.
         12    1    3    3    0    0 -0.19553553322E+02 -0.67631773359E+01 -0.36992812066E+01  0.21018246755E+02  0.00000000000E+00 0. -1.
</event>
<event>
 7    1  0.2312612E-008  0.4614232E+02  0.7816164E-02  0.1320468E+00
        -11   -1    0    0    0    0  0.00000000000E+00  0.00000000000E+00  0.45593999997E+02  0.45594000000E+02  0.51100000000E-03 0. -1.
         11   -1    0    0    0    0 -0.00000000000E+00 -0.00000000000E+00 -0.45593999997E+02  0.45594000000E+02  0.51100000000E-03 0.  1.
    9900012    2    1    2    0    0 -0.42922952431E+01  0.18463015610E+01 -0.44802688148E+02  0.46142317708E+02  0.99999995115E+01 0.  0.
         12    1    1    2    0    0  0.42922952431E+01 -0.18463015610E+01  0.44802688148E+02  0.45045682292E+02  0.00000000000E+00 0. -1.
         11    1    3    3    0    0  0.59877425824E-01 -0.97530920780E+00 -0.16300115385E+02  0.16329377673E+02  0.51100000000E-03 0. -1.
        -11    1    3    3    0    0 -0.63754872449E-01 -0.58249471432E+00 -0.17628304064E+02  0.17638040401E+02  0.51100000000E-03 0.  1.
        -12    1    3    3    0    0 -0.42884177965E+01  0.34041054832E+01 -0.10874268699E+02  0.12174899633E+02  0.00000000000E+00 0.  1.
</event>
<event>
 7    1  0.2312612E-008  0.4614233E+02  0.7816164E-02  0.1320468E+00
        -11   -1    0    0    0    0  0.00000000000E+00  0.00000000000E+00  0.45593999997E+02  0.45594000000E+02  0.51100000000E-03 0. -1.
         11   -1    0    0    0    0 -0.00000000000E+00 -0.00000000000E+00 -0.45593999997E+02  0.45594000000E+02  0.51100000000E-03 0.  1.
    9900012    2    1    2    0    0  0.13924450298E+02 -0.23237402805E+02 -0.35989520001E+02  0.46142325900E+02  0.10000074214E+02 0.  0.
         12    1    1    2    0    0 -0.13924450298E+02  0.23237402805E+02  0.35989520001E+02  0.45045674100E+02  0.00000000000E+00 0. -1.
         11    1    3    3    0    0  0.14882061251E+01 -0.13770895541E+00 -0.49416178774E+00  0.15741401973E+01  0.51100000000E-03 0. -1.
        -11    1    3    3    0    0  0.32383565350E+01 -0.85734375686E+01 -0.81365456242E+01  0.12255372689E+02  0.51100000000E-03 0.  1.
        -12    1    3    3    0    0  0.91978876382E+01 -0.14526256281E+02 -0.27358812589E+02  0.32312813013E+02  0.00000000000E+00 0.  1.
</event>
<event>
 7    1  0.2312612E-008  0.4614232E+02  0.7816164E-02  0.1320468E+00
        -11   -1    0    0    0    0  0.00000000000E+00  0.00000000000E+00  0.45593999997E+02  0.45594000000E+02  0.51100000000E-03 0. -1.
         11   -1    0    0    0    0 -0.00000000000E+00 -0.00000000000E+00 -0.45593999997E+02  0.45594000000E+02  0.51100000000E-03 0.  1.
    9900012    2    1    2    0    0  0.15823774678E+02  0.68834808747E+00 -0.42169275420E+02  0.46142318103E+02  0.10000003118E+02 0.  0.
         12    1    1    2    0    0 -0.15823774678E+02 -0.68834808747E+00  0.42169275420E+02  0.45045681897E+02  0.00000000000E+00 0. -1.
         11    1    3    3    0    0  0.51274667841E+01 -0.38636498850E+01 -0.13958761109E+02  0.15364430286E+02  0.51100000000E-03 0.  1.
        -11    1    3    3    0    0  0.51471301436E+01  0.26098452802E+01 -0.90303274209E+01  0.10716858434E+02  0.51100000000E-03 0. -1.
        -12    1    3    3    0    0  0.55491777505E+01  0.19421526923E+01 -0.19180186890E+02  0.20061029384E+02  0.00000000000E+00 0.  1.
</event>
<event>
 7    1  0.2312612E-008  0.4614232E+02  0.7816164E-02  0.1320468E+00
        -11   -1    0    0    0    0  0.00000000000E+00  0.00000000000E+00  0.45593999997E+02  0.45594000000E+02  0.51100000000E-03 0.  1.
         11   -1    0    0    0    0 -0.00000000000E+00 -0.00000000000E+00 -0.45593999997E+02  0.45594000000E+02  0.51100000000E-03 0. -1.
    9900012    2    1    2    0    0 -0.11846297932E+02 -0.28589882074E+02  0.32732206196E+02  0.46142318141E+02  0.10000003462E+02 0.  0.
         12    1    1    2    0    0  0.11846297932E+02  0.28589882074E+02 -0.32732206196E+02  0.45045681859E+02  0.00000000000E+00 0. -1.
         11    1    3    3    0    0 -0.57305757686E+01 -0.19738850761E+02  0.25222097950E+02  0.32536378921E+02  0.51100000000E-03 0. -1.
        -11    1    3    3    0    0 -0.53004936778E+01 -0.78425720550E+01  0.78136445703E+01  0.12274127725E+02  0.51100000000E-03 0.  1.
         12    1    3    3    0    0 -0.81522848606E+00 -0.10084592580E+01 -0.30353632440E+00  0.13318114956E+01  0.00000000000E+00 0. -1.
</event>
<event>
 7    1  0.2312612E-008  0.4614232E+02  0.7816164E-02  0.1320468E+00
        -11   -1    0    0    0    0  0.00000000000E+00  0.00000000000E+00  0.45593999997E+02  0.45594000000E+02  0.51100000000E-03 0. -1.
         11   -1    0    0    0    0 -0.00000000000E+00 -0.00000000000E+00 -0.45593999997E+02  0.45594000000E+02  0.51100000000E-03 0.  1.
    9900012    2    1    2    0    0 -0.16036427768E+02 -0.40532009462E+02  0.11362338144E+02  0.46142317247E+02  0.99999953114E+01 0.  0.
         12    1    1    2    0    0  0.16036427768E+02  0.40532009462E+02 -0.11362338144E+02  0.45045682753E+02  0.00000000000E+00 0. -1.
         11    1    3    3    0    0  0.36348526674E+00 -0.21165434521E+01  0.25396736494E+01  0.33259314831E+01  0.51100000000E-03 0. -1.
        -11    1    3    3    0    0 -0.11659903395E+02 -0.28340814529E+02  0.50397497184E+01  0.31057272785E+02  0.51100000000E-03 0.  1.
         12    1    3    3    0    0 -0.47400096403E+01 -0.10074651481E+02  0.37829147763E+01  0.11759112979E+02  0.00000000000E+00 0. -1.
</event>
<event>
 7    1  0.2312612E-008  0.4614232E+02  0.7816164E-02  0.1320468E+00
        -11   -1    0    0    0    0  0.00000000000E+00  0.00000000000E+00  0.45593999997E+02  0.45594000000E+02  0.51100000000E-03 0.  1.
         11   -1    0    0    0    0 -0.00000000000E+00 -0.00000000000E+00 -0.45593999997E+02  0.45594000000E+02  0.51100000000E-03 0. -1.
    9900012    2    1    2    0    0  0.15065317274E+02  0.40059849580E+02  0.14048422211E+02  0.46142317637E+02  0.99999988687E+01 0.  0.
         12    1    1    2    0    0 -0.15065317274E+02 -0.40059849580E+02 -0.14048422211E+02  0.45045682363E+02  0.00000000000E+00 0. -1.
         11    1    3    3    0    0  0.69318858189E+01  0.14598133178E+02  0.51601249948E+01  0.16964180603E+02  0.51100000000E-03 0.  1.
        -11    1    3    3    0    0  0.16753505882E+01  0.16069830127E+02  0.70697606900E+01  0.17635979031E+02  0.51100000000E-03 0. -1.
        -12    1    3    3    0    0  0.64580808673E+01  0.93918862743E+01  0.18185365264E+01  0.11542158003E+02  0.00000000000E+00 0.  1.
</event>
<event>
 7    1  0.2312612E-008  0.4614232E+02  0.7816164E-02  0.1320468E+00
        -11   -1    0    0    0    0  0.00000000000E+00  0.00000000000E+00  0.45593999997E+02  0.45594000000E+02  0.51100000000E-03 0.  1.
         11   -1    0    0    0    0 -0.00000000000E+00 -0.00000000000E+00 -0.45593999997E+02  0.45594000000E+02  0.51100000000E-03 0. -1.
    9900012    2    1    2    0    0 -0.35336062013E+02 -0.12837805601E+01  0.27907492456E+02  0.46142317562E+02  0.99999981863E+01 0.  0.
         12    1    1    2    0    0  0.35336062013E+02  0.12837805601E+01 -0.27907492456E+02  0.45045682438E+02  0.00000000000E+00 0. -1.
         11    1    3    3    0    0 -0.73752588394E+01 -0.46844342080E+00  0.69642100926E+01  0.10154511542E+02  0.51100000000E-03 0.  1.
        -11    1    3    3    0    0 -0.13761912201E+02 -0.99820382106E+00  0.50955525693E+01  0.14708884884E+02  0.51100000000E-03 0. -1.
         12    1    3    3    0    0 -0.14198890973E+02  0.18286668173E+00  0.15847729794E+02  0.21278921136E+02  0.00000000000E+00 0. -1.
</event>
<event>
 7    1  0.2312612E-008  0.4614232E+02  0.7816164E-02  0.1320468E+00
        -11   -1    0    0    0    0  0.00000000000E+00  0.00000000000E+00  0.45593999997E+02  0.45594000000E+02  0.51100000000E-03 0.  1.
         11   -1    0    0    0    0 -0.00000000000E+00 -0.00000000000E+00 -0.45593999997E+02  0.45594000000E+02  0.51100000000E-03 0. -1.
    9900012    2    1    2    0    0 -0.41403784813E+02  0.51816934232E+01  0.16970270201E+02  0.46142318583E+02  0.10000007498E+02 0.  0.
         12    1    1    2    0    0  0.41403784813E+02 -0.51816934232E+01 -0.16970270201E+02  0.45045681417E+02  0.00000000000E+00 0. -1.
         11    1    3    3    0    0 -0.98096547837E+01  0.46749910717E+01  0.23004855548E+01  0.11107524591E+02  0.51100000000E-03 0. -1.
        -11    1    3    3    0    0 -0.12368793532E+01  0.63789193856E+00  0.11389033290E+01  0.17982985607E+01  0.51100000000E-03 0.  1.
         12    1    3    3    0    0 -0.30357250676E+02 -0.13118958705E+00  0.13530881318E+02  0.33236495431E+02  0.00000000000E+00 0. -1.
</event>
<event>
 7    1  0.2312612E-008  0.4614231E+02  0.7816164E-02  0.1320468E+00
        -11   -1    0    0    0    0  0.00000000000E+00  0.00000000000E+00  0.45593999997E+02  0.45594000000E+02  0.51100000000E-03 0.  1.
         11   -1    0    0    0    0 -0.00000000000E+00 -0.00000000000E+00 -0.45593999997E+02  0.45594000000E+02  0.51100000000E-03 0. -1.
    9900012    2    1    2    0    0 -0.15675690939E+02 -0.33897851395E+02 -0.25185752746E+02  0.46142314779E+02  0.99999728074E+01 0.  0.
         12    1    1    2    0    0  0.15675690939E+02  0.33897851395E+02  0.25185752746E+02  0.45045685221E+02  0.00000000000E+00 0. -1.
         11    1    3    3    0    0 -0.62038056886E+01 -0.79446022248E+01 -0.83948358068E+01  0.13117819103E+02  0.51100000000E-03 0. -1.
        -11    1    3    3    0    0 -0.94496165064E+01 -0.16830942541E+02 -0.10937233838E+02  0.22185557537E+02  0.51100000000E-03 0.  1.
        -12    1    3    3    0    0 -0.22268744377E-01 -0.91223066290E+01 -0.58536831010E+01  0.10838938139E+02  0.00000000000E+00 0.  1.
</event>
<event>
 7    1  0.2312612E-008  0.4614232E+02  0.7816164E-02  0.1320468E+00
        -11   -1    0    0    0    0  0.00000000000E+00  0.00000000000E+00  0.45593999997E+02  0.45594000000E+02  0.51100000000E-03 0. -1.
         11   -1    0    0    0    0 -0.00000000000E+00 -0.00000000000E+00 -0.45593999997E+02  0.45594000000E+02  0.51100000000E-03 0.  1.
    9900012    2    1    2    0    0  0.25441710784E+02 -0.30447568915E+02 -0.21325533084E+02  0.46142318057E+02  0.10000002695E+02 0.  0.
         12    1    1    2    0    0 -0.25441710784E+02  0.30447568915E+02  0.21325533084E+02  0.45045681943E+02  0.00000000000E+00 0. -1.
         11    1    3    3    0    0  0.22608782992E+01 -0.30314118490E+01 -0.35631352262E+01  0.51958600234E+01  0.51100000000E-03 0. -1.
        -11    1    3    3    0    0  0.22697168832E+02 -0.24846952321E+02 -0.14196710401E+02  0.36525047557E+02  0.51100000000E-03 0.  1.
         12    1    3    3    0    0  0.48366365279E+00 -0.25692047448E+01 -0.35656874577E+01  0.44214104758E+01  0.00000000000E+00 0. -1.
</event>
<event>
 7    1  0.2312612E-008  0.4614232E+02  0.7816164E-02  0.1320468E+00
        -11   -1    0    0    0    0  0.00000000000E+00  0.00000000000E+00  0.45593999997E+02  0.45594000000E+02  0.51100000000E-03 0.  1.
         11   -1    0    0    0    0 -0.00000000000E+00 -0.00000000000E+00 -0.45593999997E+02  0.45594000000E+02  0.51100000000E-03 0. -1.
    9900012    2    1    2    0    0 -0.44067357605E+01 -0.94415005185E+01  0.43824106616E+02  0.46142316824E+02  0.99999914527E+01 0.  0.
         12    1    1    2    0    0  0.44067357605E+01  0.94415005185E+01 -0.43824106616E+02  0.45045683176E+02  0.00000000000E+00 0. -1.
         11    1    3    3    0    0  0.25815758373E+01 -0.18783910643E+01  0.15222772020E+02  0.15553960108E+02  0.51100000000E-03 0. -1.
        -11    1    3    3    0    0 -0.40772220099E+00 -0.11341489502E+01  0.12727348823E+01  0.17528221747E+01  0.51100000000E-03 0.  1.
        -12    1    3    3    0    0 -0.65805893968E+01 -0.64289605040E+01  0.27328599713E+02  0.28835534541E+02  0.00000000000E+00 0.  1.
</event>
<event>
 7    1  0.2312612E-008  0.4614232E+02  0.7816164E-02  0.1320468E+00
        -11   -1    0    0    0    0  0.00000000000E+00  0.00000000000E+00  0.45593999997E+02  0.45594000000E+02  0.51100000000E-03 0.  1.
         11   -1    0    0    0    0 -0.00000000000E+00 -0.00000000000E+00 -0.45593999997E+02  0.45594000000E+02  0.51100000000E-03 0. -1.
    9900012    2    1    2    0    0  0.37504998678E+02 -0.16175875732E+02  0.18995516209E+02  0.46142317436E+02  0.99999970399E+01 0.  0.
         12    1    1    2    0    0 -0.37504998678E+02  0.16175875732E+02 -0.18995516209E+02  0.45045682564E+02  0.00000000000E+00 0. -1.
         11    1    3    3    0    0  0.60218206456E+01 -0.30669824264E+01  0.74734153065E+01  0.10075745218E+02  0.51100000000E-03 0. -1.
        -11    1    3    3    0    0  0.10020629469E+02 -0.42166883175E+01  0.47817466682E+01  0.11876808358E+02  0.51100000000E-03 0.  1.
         12    1    3    3    0    0  0.21462548564E+02 -0.88922049884E+01  0.67403542340E+01  0.24189763860E+02  0.00000000000E+00 0. -1.
</event>
<event>
 7    1  0.2312612E-008  0.4614232E+02  0.7816164E-02  0.1320468E+00
        -11   -1    0    0    0    0  0.00000000000E+00  0.00000000000E+00  0.45593999997E+02  0.45594000000E+02  0.51100000000E-03 0.  1.
         11   -1    0    0    0    0 -0.00000000000E+00 -0.00000000000E+00 -0.45593999997E+02  0.45594000000E+02  0.51100000000E-03 0. -1.
    9900012    2    1    2    0    0 -0.44816176303E+02  0.98902179800E+00  0.44323457516E+01  0.46142317505E+02  0.99999976676E+01 0.  0.
         12    1    1    2    0    0  0.44816176303E+02 -0.98902179800E+00 -0.44323457516E+01  0.45045682495E+02  0.00000000000E+00 0. -1.
         11    1    3    3    0    0 -0.53677575654E+01  0.14496816503E+01  0.33506215935E+01  0.64916148601E+01  0.51100000000E-03 0. -1.
        -11    1    3    3    0    0 -0.27639265353E+02 -0.22506386109E+00  0.25064020978E+01  0.27753588862E+02  0.51100000000E-03 0.  1.
        -12    1    3    3    0    0 -0.11809153385E+02 -0.23559599119E+00 -0.14246779396E+01  0.11897113783E+02  0.00000000000E+00 0.  1.
</event>
<event>
 7    1  0.2312612E-008  0.4614232E+02  0.7816164E-02  0.1320468E+00
        -11   -1    0    0    0    0  0.00000000000E+00  0.00000000000E+00  0.45593999997E+02  0.45594000000E+02  0.51100000000E-03 0. -1.
         11   -1    0    0    0    0 -0.00000000000E+00 -0.00000000000E+00 -0.45593999997E+02  0.45594000000E+02  0.51100000000E-03 0.  1.
    9900012    2    1    2    0    0 -0.16722150566E+02 -0.13840544537E+02 -0.39470524739E+02  0.46142319677E+02  0.10000017468E+02 0.  0.
         12    1    1    2    0    0  0.16722150566E+02  0.13840544537E+02  0.39470524739E+02  0.45045680323E+02  0.00000000000E+00 0. -1.
         11    1    3    3    0    0 -0.13349200652E+02 -0.10305712335E+02 -0.21813248660E+02  0.27572208510E+02  0.51100000000E-03 0. -1.
        -11    1    3    3    0    0 -0.35074369231E+00 -0.23827141233E+01 -0.58129747023E+01  0.62921397697E+01  0.51100000000E-03 0.  1.
         12    1    3    3    0    0 -0.30222062213E+01 -0.11521180788E+01 -0.11844301377E+02  0.12277971397E+02  0.00000000000E+00 0. -1.
</event>
<event>
 7    1  0.2312612E-008  0.4614232E+02  0.7816164E-02  0.1320468E+00
        -11   -1    0    0    0    0  0.00000000000E+00  0.00000000000E+00  0.45593999997E+02  0.45594000000E+02  0.51100000000E-03 0.  1.
         11   -1    0    0    0    0 -0.00000000000E+00 -0.00000000000E+00 -0.45593999997E+02  0.45594000000E+02  0.51100000000E-03 0. -1.
    9900012    2    1    2    0    0  0.26832795650E+02 -0.16567214481E+02 -0.32165847804E+02  0.46142320041E+02  0.10000020786E+02 0.  0.
         12    1    1    2    0    0 -0.26832795650E+02  0.16567214481E+02  0.32165847804E+02  0.45045679959E+02  0.00000000000E+00 0. -1.
         11    1    3    3    0    0  0.11466429836E+01 -0.12845309972E+01 -0.30815214613E+01  0.35299553527E+01  0.51100000000E-03 0. -1.
        -11    1    3    3    0    0  0.12635256209E+02 -0.10549424370E+02 -0.20497969161E+02  0.26288910096E+02  0.51100000000E-03 0.  1.
         12    1    3    3    0    0  0.13050896458E+02 -0.47332591134E+01 -0.85863571812E+01  0.16323454592E+02  0.00000000000E+00 0. -1.
</event>
<event>
 7    1  0.2312612E-008  0.4614232E+02  0.7816164E-02  0.1320468E+00
        -11   -1    0    0    0    0  0.00000000000E+00  0.00000000000E+00  0.45593999997E+02  0.45594000000E+02  0.51100000000E-03 0.  1.
         11   -1    0    0    0    0 -0.00000000000E+00 -0.00000000000E+00 -0.45593999997E+02  0.45594000000E+02  0.51100000000E-03 0. -1.
    9900012    2    1    2    0    0  0.34533217123E+02 -0.27223571884E+02  0.97697264323E+01  0.46142317570E+02  0.99999982596E+01 0.  0.
         12    1    1    2    0    0 -0.34533217123E+02  0.27223571884E+02 -0.97697264323E+01  0.45045682430E+02  0.00000000000E+00 0. -1.
         11    1    3    3    0    0  0.64399065763E+01 -0.19257827064E+01  0.21824739795E+01  0.70671230834E+01  0.51100000000E-03 0. -1.
        -11    1    3    3    0    0  0.87877025960E+01 -0.98787568178E+01  0.53628178946E+01  0.14267913976E+02  0.51100000000E-03 0.  1.
         12    1    3    3    0    0  0.19305607951E+02 -0.15419032360E+02  0.22244345582E+01  0.24807280511E+02  0.00000000000E+00 0. -1.
</event>
<event>
 7    1  0.2312612E-008  0.4614232E+02  0.7816164E-02  0.1320468E+00
        -11   -1    0    0    0    0  0.00000000000E+00  0.00000000000E+00  0.45593999997E+02  0.45594000000E+02  0.51100000000E-03 0.  1.
         11   -1    0    0    0    0 -0.00000000000E+00 -0.00000000000E+00 -0.45593999997E+02  0.45594000000E+02  0.51100000000E-03 0. -1.
    9900012    2    1    2    0    0 -0.27867680565E+01  0.43483365117E+02  0.11425600784E+02  0.46142317950E+02  0.10000001721E+02 0.  0.
         12    1    1    2    0    0  0.27867680565E+01 -0.43483365117E+02 -0.11425600784E+02  0.45045682050E+02  0.00000000000E+00 0. -1.
         11    1    3    3    0    0  0.10161028379E+01  0.18239352608E+02  0.62911185286E+01  0.19320575073E+02  0.51100000000E-03 0. -1.
        -11    1    3    3    0    0  0.23956269685E+00  0.12743164462E+02  0.49767068432E+01  0.13682589011E+02  0.51100000000E-03 0.  1.
         12    1    3    3    0    0 -0.40424335913E+01  0.12500848047E+02  0.15777541244E+00  0.13139153866E+02  0.00000000000E+00 0. -1.
</event>
<event>
 7    1  0.2312612E-008  0.4614232E+02  0.7816164E-02  0.1320468E+00
        -11   -1    0    0    0    0  0.00000000000E+00  0.00000000000E+00  0.45593999997E+02  0.45594000000E+02  0.51100000000E-03 0.  1.
         11   -1    0    0    0    0 -0.00000000000E+00 -0.00000000000E+00 -0.45593999997E+02  0.45594000000E+02  0.51100000000E-03 0. -1.
    9900012    2    1    2    0    0 -0.36854369600E+02  0.14957168055E+02  0.21145968833E+02  0.46142318379E+02  0.10000005635E+02 0.  0.
         12    1    1    2    0    0  0.36854369600E+02 -0.14957168055E+02 -0.21145968833E+02  0.45045681621E+02  0.00000000000E+00 0. -1.
         11    1    3    3    0    0 -0.52897426957E+01  0.32728574243E+01  0.52110125558E+01  0.81146549911E+01  0.51100000000E-03 0. -1.
        -11    1    3    3    0    0 -0.81794825625E+01  0.35793532321E+01  0.68015521117E+00  0.89542345246E+01  0.51100000000E-03 0.  1.
        -12    1    3    3    0    0 -0.23385144341E+02  0.81049573982E+01  0.15254801066E+02  0.29073428863E+02  0.00000000000E+00 0.  1.
</event>
<event>
 7    1  0.2312612E-008  0.4614232E+02  0.7816164E-02  0.1320468E+00
        -11   -1    0    0    0    0  0.00000000000E+00  0.00000000000E+00  0.45593999997E+02  0.45594000000E+02  0.51100000000E-03 0.  1.
         11   -1    0    0    0    0 -0.00000000000E+00 -0.00000000000E+00 -0.45593999997E+02  0.45594000000E+02  0.51100000000E-03 0. -1.
    9900012    2    1    2    0    0 -0.31217003829E+02 -0.25866719939E+02  0.19634788903E+02  0.46142318034E+02  0.10000002491E+02 0.  0.
         12    1    1    2    0    0  0.31217003829E+02  0.25866719939E+02 -0.19634788903E+02  0.45045681966E+02  0.00000000000E+00 0. -1.
         11    1    3    3    0    0 -0.98440313710E+00 -0.54570511655E+00 -0.57056225115E+00  0.12618974420E+01  0.51100000000E-03 0. -1.
        -11    1    3    3    0    0 -0.25577424216E+02 -0.17668551676E+02  0.14941131789E+02  0.34490864983E+02  0.51100000000E-03 0.  1.
         12    1    3    3    0    0 -0.46551764756E+01 -0.76524631470E+01  0.52642193652E+01  0.10389555609E+02  0.00000000000E+00 0. -1.
</event>
<event>
 7    1  0.2312612E-008  0.4614232E+02  0.7816164E-02  0.1320468E+00
        -11   -1    0    0    0    0  0.00000000000E+00  0.00000000000E+00  0.45593999997E+02  0.45594000000E+02  0.51100000000E-03 0.  1.
         11   -1    0    0    0    0 -0.00000000000E+00 -0.00000000000E+00 -0.45593999997E+02  0.45594000000E+02  0.51100000000E-03 0. -1.
    9900012    2    1    2    0    0 -0.28501168267E+02 -0.95147325201E+01  0.33559898599E+02  0.46142317394E+02  0.99999966502E+01 0.  0.
         12    1    1    2    0    0  0.28501168267E+02  0.95147325201E+01 -0.33559898599E+02  0.45045682606E+02  0.00000000000E+00 0. -1.
         11    1    3    3    0    0 -0.10125791812E+02 -0.69943188030E+01  0.10928316593E+02  0.16458440362E+02  0.51100000000E-03 0. -1.
        -11    1    3    3    0    0 -0.12160407343E+02 -0.28473379290E+01  0.18076699136E+02  0.21971570084E+02  0.51100000000E-03 0.  1.
        -12    1    3    3    0    0 -0.62149691117E+01  0.32692421189E+00  0.45548828702E+01  0.77123069480E+01  0.00000000000E+00 0.  1.
</event>
<event>
 7    1  0.2312612E-008  0.4614232E+02  0.7816164E-02  0.1320468E+00
        -11   -1    0    0    0    0  0.00000000000E+00  0.00000000000E+00  0.45593999997E+02  0.45594000000E+02  0.51100000000E-03 0.  1.
         11   -1    0    0    0    0 -0.00000000000E+00 -0.00000000000E+00 -0.45593999997E+02  0.45594000000E+02  0.51100000000E-03 0. -1.
    9900012    2    1    2    0    0  0.19494168280E+02  0.23302748892E+02  0.33257672413E+02  0.46142317885E+02  0.10000001132E+02 0.  0.
         12    1    1    2    0    0 -0.19494168280E+02 -0.23302748892E+02 -0.33257672413E+02  0.45045682115E+02  0.00000000000E+00 0. -1.
         11    1    3    3    0    0  0.70272842995E+00  0.95187175133E-01  0.40889953230E+01  0.41500326333E+01  0.51100000000E-03 0. -1.
        -11    1    3    3    0    0  0.14807663242E+02  0.14988495885E+02  0.19988694105E+02  0.29042551400E+02  0.51100000000E-03 0.  1.
         12    1    3    3    0    0  0.39837766081E+01  0.82190658323E+01  0.91799829851E+01  0.12949733852E+02  0.00000000000E+00 0. -1.
</event>
<event>
 7    1  0.2312612E-008  0.4614232E+02  0.7816164E-02  0.1320468E+00
        -11   -1    0    0    0    0  0.00000000000E+00  0.00000000000E+00  0.45593999997E+02  0.45594000000E+02  0.51100000000E-03 0.  1.
         11   -1    0    0    0    0 -0.00000000000E+00 -0.00000000000E+00 -0.45593999997E+02  0.45594000000E+02  0.51100000000E-03 0. -1.
    9900012    2    1    2    0    0  0.22141967625E+02  0.35520969312E+02  0.16646545731E+02  0.46142317899E+02  0.10000001257E+02 0.  0.
         12    1    1    2    0    0 -0.22141967625E+02 -0.35520969312E+02 -0.16646545731E+02  0.45045682101E+02  0.00000000000E+00 0. -1.
         11    1    3    3    0    0  0.79028066177E+01  0.11430982911E+02  0.82928931111E+01  0.16183133169E+02  0.51100000000E-03 0.  1.
        -11    1    3    3    0    0  0.36955598623E+00  0.16317941020E+01 -0.10070044453E+01  0.19527882200E+01  0.51100000000E-03 0. -1.
        -12    1    3    3    0    0  0.13869605021E+02  0.22458192298E+02  0.93606570655E+01  0.28006396510E+02  0.00000000000E+00 0.  1.
</event>
<event>
 7    1  0.2312612E-008  0.4614232E+02  0.7816164E-02  0.1320468E+00
        -11   -1    0    0    0    0  0.00000000000E+00  0.00000000000E+00  0.45593999997E+02  0.45594000000E+02  0.51100000000E-03 0. -1.
         11   -1    0    0    0    0 -0.00000000000E+00 -0.00000000000E+00 -0.45593999997E+02  0.45594000000E+02  0.51100000000E-03 0.  1.
    9900012    2    1    2    0    0  0.14824208333E+02 -0.28715612503E+01 -0.42439491602E+02  0.46142318030E+02  0.10000002448E+02 0.  0.
         12    1    1    2    0    0 -0.14824208333E+02  0.28715612503E+01  0.42439491602E+02  0.45045681970E+02  0.00000000000E+00 0. -1.
         11    1    3    3    0    0  0.10456824334E+02 -0.54761977524E+00 -0.18097338482E+02  0.20908340990E+02  0.51100000000E-03 0. -1.
        -11    1    3    3    0    0  0.22938514167E+01 -0.26435673422E+01 -0.76761613849E+01  0.84364480963E+01  0.51100000000E-03 0.  1.
        -12    1    3    3    0    0  0.20735325826E+01  0.31962586710E+00 -0.16665991736E+02  0.16797528943E+02  0.00000000000E+00 0.  1.
</event>
<event>
 7    1  0.2312612E-008  0.4614232E+02  0.7816164E-02  0.1320468E+00
        -11   -1    0    0    0    0  0.00000000000E+00  0.00000000000E+00  0.45593999997E+02  0.45594000000E+02  0.51100000000E-03 0. -1.
         11   -1    0    0    0    0 -0.00000000000E+00 -0.00000000000E+00 -0.45593999997E+02  0.45594000000E+02  0.51100000000E-03 0.  1.
    9900012    2    1    2    0    0  0.18311121303E+02 -0.40098770932E+02  0.92684857292E+01  0.46142318505E+02  0.10000006786E+02 0.  0.
         12    1    1    2    0    0 -0.18311121303E+02  0.40098770932E+02 -0.92684857292E+01  0.45045681495E+02  0.00000000000E+00 0. -1.
         11    1    3    3    0    0  0.75599187334E+01 -0.11152914466E+02  0.47978080109E+01  0.14302406591E+02  0.51100000000E-03 0. -1.
        -11    1    3    3    0    0  0.57597970425E+01 -0.76548089451E+01  0.34576921539E+00  0.95859750974E+01  0.51100000000E-03 0.  1.
         12    1    3    3    0    0  0.49914055271E+01 -0.21291047521E+02  0.41249085029E+01  0.22253936817E+02  0.00000000000E+00 0. -1.
</event>
<event>
 7    1  0.2312612E-008  0.4614232E+02  0.7816164E-02  0.1320468E+00
        -11   -1    0    0    0    0  0.00000000000E+00  0.00000000000E+00  0.45593999997E+02  0.45594000000E+02  0.51100000000E-03 0.  1.
         11   -1    0    0    0    0 -0.00000000000E+00 -0.00000000000E+00 -0.45593999997E+02  0.45594000000E+02  0.51100000000E-03 0. -1.
    9900012    2    1    2    0    0 -0.21853335595E+02  0.19330240895E+02  0.34320356895E+02  0.46142318886E+02  0.10000010253E+02 0.  0.
         12    1    1    2    0    0  0.21853335595E+02 -0.19330240895E+02 -0.34320356895E+02  0.45045681114E+02  0.00000000000E+00 0. -1.
         11    1    3    3    0    0 -0.55978794065E+01  0.64116371964E+01  0.84069069693E+01  0.11963336927E+02  0.51100000000E-03 0. -1.
        -11    1    3    3    0    0 -0.12733101127E+02  0.13508573252E+02  0.20141715885E+02  0.27391643520E+02  0.51100000000E-03 0.  1.
         12    1    3    3    0    0 -0.35223550609E+01 -0.58996955360E+00  0.57717340401E+01  0.67873384385E+01  0.00000000000E+00 0. -1.
</event>
<event>
 7    1  0.2312612E-008  0.4614231E+02  0.7816164E-02  0.1320468E+00
        -11   -1    0    0    0    0  0.00000000000E+00  0.00000000000E+00  0.45593999997E+02  0.45594000000E+02  0.51100000000E-03 0. -1.
         11   -1    0    0    0    0 -0.00000000000E+00 -0.00000000000E+00 -0.45593999997E+02  0.45594000000E+02  0.51100000000E-03 0.  1.
    9900012    2    1    2    0    0  0.38920899780E+02  0.34734251559E+01 -0.22410117298E+02  0.46142306761E+02  0.99998996959E+01 0.  0.
         12    1    1    2    0    0 -0.38920899780E+02 -0.34734251559E+01  0.22410117298E+02  0.45045693239E+02  0.00000000000E+00 0. -1.
         11    1    3    3    0    0  0.18868215382E+02  0.23963189114E+01 -0.75773607225E+01  0.20473599874E+02  0.51100000000E-03 0. -1.
        -11    1    3    3    0    0  0.16191802183E+02  0.72153627282E+00 -0.14550872714E+02  0.21781252708E+02  0.51100000000E-03 0.  1.
        -12    1    3    3    0    0  0.38608822152E+01  0.35556997165E+00 -0.28188386177E+00  0.38874541793E+01  0.00000000000E+00 0.  1.
</event>
<event>
 7    1  0.2312612E-008  0.4614232E+02  0.7816164E-02  0.1320468E+00
        -11   -1    0    0    0    0  0.00000000000E+00  0.00000000000E+00  0.45593999997E+02  0.45594000000E+02  0.51100000000E-03 0.  1.
         11   -1    0    0    0    0 -0.00000000000E+00 -0.00000000000E+00 -0.45593999997E+02  0.45594000000E+02  0.51100000000E-03 0. -1.
    9900012    2    1    2    0    0 -0.37681674702E+02  0.24664333988E+02 -0.93566973771E+00  0.46142318106E+02  0.10000003148E+02 0.  0.
         12    1    1    2    0    0  0.37681674702E+02 -0.24664333988E+02  0.93566973771E+00  0.45045681894E+02  0.00000000000E+00 0. -1.
         11    1    3    3    0    0 -0.16998712460E+02  0.84818254126E+01 -0.30029296149E+01  0.19233178993E+02  0.51100000000E-03 0. -1.
        -11    1    3    3    0    0 -0.77528087909E+01  0.84971568395E+01 -0.10413490767E+01  0.11549550929E+02  0.51100000000E-03 0.  1.
         12    1    3    3    0    0 -0.12930153451E+02  0.76853517354E+01  0.31086089538E+01  0.15359588184E+02  0.00000000000E+00 0. -1.
</event>
<event>
 7    1  0.2312612E-008  0.4614232E+02  0.7816164E-02  0.1320468E+00
        -11   -1    0    0    0    0  0.00000000000E+00  0.00000000000E+00  0.45593999997E+02  0.45594000000E+02  0.51100000000E-03 0.  1.
         11   -1    0    0    0    0 -0.00000000000E+00 -0.00000000000E+00 -0.45593999997E+02  0.45594000000E+02  0.51100000000E-03 0. -1.
    9900012    2    1    2    0    0  0.13186823150E+02 -0.41485818005E+02  0.11582238298E+02  0.46142316030E+02  0.99999842139E+01 0.  0.
         12    1    1    2    0    0 -0.13186823150E+02  0.41485818005E+02 -0.11582238298E+02  0.45045683970E+02  0.00000000000E+00 0. -1.
         11    1    3    3    0    0 -0.88725124642E+00 -0.58909156835E+01  0.14855201696E+01  0.61397779113E+01  0.51100000000E-03 0. -1.
        -11    1    3    3    0    0  0.25646042195E+01 -0.22873315842E+01  0.44858678918E+00  0.34655895526E+01  0.51100000000E-03 0.  1.
        -12    1    3    3    0    0  0.11509470177E+02 -0.33307570737E+02  0.96481313390E+01  0.36536948566E+02  0.00000000000E+00 0.  1.
</event>
<event>
 7    1  0.2312612E-008  0.4614232E+02  0.7816164E-02  0.1320468E+00
        -11   -1    0    0    0    0  0.00000000000E+00  0.00000000000E+00  0.45593999997E+02  0.45594000000E+02  0.51100000000E-03 0.  1.
         11   -1    0    0    0    0 -0.00000000000E+00 -0.00000000000E+00 -0.45593999997E+02  0.45594000000E+02  0.51100000000E-03 0. -1.
    9900012    2    1    2    0    0  0.39735294069E+02 -0.63562602047E+01  0.20243962012E+02  0.46142316117E+02  0.99999850038E+01 0.  0.
         12    1    1    2    0    0 -0.39735294069E+02  0.63562602047E+01 -0.20243962012E+02  0.45045683883E+02  0.00000000000E+00 0. -1.
         11    1    3    3    0    0  0.15975397349E+00 -0.66482200923E+00  0.29825322165E+00  0.74596573739E+00  0.51100000000E-03 0. -1.
        -11    1    3    3    0    0  0.53613147223E+01  0.17418192747E+01  0.40696836144E+01  0.69526940764E+01  0.51100000000E-03 0.  1.
        -12    1    3    3    0    0  0.34214225374E+02 -0.74332574701E+01  0.15876025176E+02  0.38443656303E+02  0.00000000000E+00 0.  1.
</event>
<event>
 7    1  0.2312612E-008  0.4614232E+02  0.7816164E-02  0.1320468E+00
        -11   -1    0    0    0    0  0.00000000000E+00  0.00000000000E+00  0.45593999997E+02  0.45594000000E+02  0.51100000000E-03 0. -1.
         11   -1    0    0    0    0 -0.00000000000E+00 -0.00000000000E+00 -0.45593999997E+02  0.45594000000E+02  0.51100000000E-03 0.  1.
    9900012    2    1    2    0    0  0.13850600328E+02 -0.45995016375E+00 -0.42860969224E+02  0.46142319115E+02  0.10000012344E+02 0.  0.
         12    1    1    2    0    0 -0.13850600328E+02  0.45995016375E+00  0.42860969224E+02  0.45045680885E+02  0.00000000000E+00 0. -1.
         11    1    3    3    0    0  0.11259438321E+02  0.62209379311E+00 -0.37064750563E+02  0.38742195170E+02  0.51100000000E-03 0. -1.
        -11    1    3    3    0    0  0.49380172371E+00  0.32599832294E+00 -0.45408291118E+01  0.45792187470E+01  0.51100000000E-03 0.  1.
         12    1    3    3    0    0  0.20973602829E+01 -0.14080422798E+01 -0.12553895492E+01  0.28209051984E+01  0.00000000000E+00 0. -1.
</event>
<event>
 7    1  0.2312612E-008  0.4614232E+02  0.7816164E-02  0.1320468E+00
        -11   -1    0    0    0    0  0.00000000000E+00  0.00000000000E+00  0.45593999997E+02  0.45594000000E+02  0.51100000000E-03 0.  1.
         11   -1    0    0    0    0 -0.00000000000E+00 -0.00000000000E+00 -0.45593999997E+02  0.45594000000E+02  0.51100000000E-03 0. -1.
    9900012    2    1    2    0    0 -0.13885010982E+01 -0.33299192630E+02  0.30304279414E+02  0.46142317456E+02  0.99999972152E+01 0.  0.
         12    1    1    2    0    0  0.13885010982E+01  0.33299192630E+02 -0.30304279414E+02  0.45045682544E+02  0.00000000000E+00 0. -1.
         11    1    3    3    0    0 -0.61341849495E+00 -0.13024810061E+01  0.16797971699E+01  0.22123421558E+01  0.51100000000E-03 0. -1.
        -11    1    3    3    0    0  0.25643479035E+01 -0.23985791130E+02  0.17408421230E+02  0.29748061891E+02  0.51100000000E-03 0.  1.
        -12    1    3    3    0    0 -0.33394305068E+01 -0.80109204938E+01  0.11216061014E+02  0.14181913409E+02  0.00000000000E+00 0.  1.
</event>
<event>
 7    1  0.2312612E-008  0.4614232E+02  0.7816164E-02  0.1320468E+00
        -11   -1    0    0    0    0  0.00000000000E+00  0.00000000000E+00  0.45593999997E+02  0.45594000000E+02  0.51100000000E-03 0.  1.
         11   -1    0    0    0    0 -0.00000000000E+00 -0.00000000000E+00 -0.45593999997E+02  0.45594000000E+02  0.51100000000E-03 0. -1.
    9900012    2    1    2    0    0  0.21828318307E+02 -0.15372720946E+02  0.36281090845E+02  0.46142316719E+02  0.99999904932E+01 0.  0.
         12    1    1    2    0    0 -0.21828318307E+02  0.15372720946E+02 -0.36281090845E+02  0.45045683281E+02  0.00000000000E+00 0. -1.
         11    1    3    3    0    0  0.76603678083E+01 -0.22245169732E+01  0.79233531989E+01  0.11243186243E+02  0.51100000000E-03 0.  1.
        -11    1    3    3    0    0  0.70152430679E+00 -0.29691485842E+00 -0.22062283969E+00  0.79307596400E+00  0.51100000000E-03 0. -1.
        -12    1    3    3    0    0  0.13466426192E+02 -0.12851289115E+02  0.28578360486E+02  0.34106054511E+02  0.00000000000E+00 0.  1.
</event>
<event>
 7    1  0.2312612E-008  0.4614232E+02  0.7816164E-02  0.1320468E+00
        -11   -1    0    0    0    0  0.00000000000E+00  0.00000000000E+00  0.45593999997E+02  0.45594000000E+02  0.51100000000E-03 0.  1.
         11   -1    0    0    0    0 -0.00000000000E+00 -0.00000000000E+00 -0.45593999997E+02  0.45594000000E+02  0.51100000000E-03 0. -1.
    9900012    2    1    2    0    0  0.35476902240E+02 -0.12066187663E+02  0.24998199493E+02  0.46142318130E+02  0.10000003361E+02 0.  0.
         12    1    1    2    0    0 -0.35476902240E+02  0.12066187663E+02 -0.24998199493E+02  0.45045681870E+02  0.00000000000E+00 0. -1.
         11    1    3    3    0    0  0.79551967993E+01 -0.78951500417E+00  0.20257291632E+01  0.82469430070E+01  0.51100000000E-03 0.  1.
        -11    1    3    3    0    0  0.78593536162E+01 -0.41502807530E+01  0.95434668593E+01  0.13041166725E+02  0.51100000000E-03 0. -1.
        -12    1    3    3    0    0  0.19662351825E+02 -0.71263919056E+01  0.13429003470E+02  0.24854208398E+02  0.00000000000E+00 0.  1.
</event>
<event>
 7    1  0.2312612E-008  0.4614232E+02  0.7816164E-02  0.1320468E+00
        -11   -1    0    0    0    0  0.00000000000E+00  0.00000000000E+00  0.45593999997E+02  0.45594000000E+02  0.51100000000E-03 0.  1.
         11   -1    0    0    0    0 -0.00000000000E+00 -0.00000000000E+00 -0.45593999997E+02  0.45594000000E+02  0.51100000000E-03 0. -1.
    9900012    2    1    2    0    0 -0.18382976342E+02 -0.31839919399E+02  0.26026892463E+02  0.46142318544E+02  0.10000007138E+02 0.  0.
         12    1    1    2    0    0  0.18382976342E+02  0.31839919399E+02 -0.26026892463E+02  0.45045681456E+02  0.00000000000E+00 0. -1.
         11    1    3    3    0    0  0.20389848648E+00 -0.32642587758E+01  0.85291833136E+00  0.33800044215E+01  0.51100000000E-03 0. -1.
        -11    1    3    3    0    0 -0.12334251389E+02 -0.23037249698E+02  0.20314781148E+02  0.33098926936E+02  0.51100000000E-03 0.  1.
        -12    1    3    3    0    0 -0.62526234395E+01 -0.55384109257E+01  0.48591929834E+01  0.96633871861E+01  0.00000000000E+00 0.  1.
</event>
<event>
 7    1  0.2312612E-008  0.4614232E+02  0.7816164E-02  0.1320468E+00
        -11   -1    0    0    0    0  0.00000000000E+00  0.00000000000E+00  0.45593999997E+02  0.45594000000E+02  0.51100000000E-03 0.  1.
         11   -1    0    0    0    0 -0.00000000000E+00 -0.00000000000E+00 -0.45593999997E+02  0.45594000000E+02  0.51100000000E-03 0. -1.
    9900012    2    1    2    0    0  0.18339638890E+02  0.59812865877E+01  0.40706203258E+02  0.46142321766E+02  0.10000036519E+02 0.  0.
         12    1    1    2    0    0 -0.18339638890E+02 -0.59812865877E+01 -0.40706203258E+02  0.45045678234E+02  0.00000000000E+00 0. -1.
         11    1    3    3    0    0  0.68304559682E+01 -0.46974891833E+00  0.11663895847E+02  0.13524875577E+02  0.51100000000E-03 0. -1.
        -11    1    3    3    0    0 -0.24064022997E-01  0.71324836857E+00  0.73798120560E+01  0.74142382317E+01  0.51100000000E-03 0.  1.
        -12    1    3    3    0    0  0.11533246945E+02  0.57377871375E+01  0.21662495355E+02  0.25203207957E+02  0.00000000000E+00 0.  1.
</event>
<event>
 7    1  0.2312612E-008  0.4614232E+02  0.7816164E-02  0.1320468E+00
        -11   -1    0    0    0    0  0.00000000000E+00  0.00000000000E+00  0.45593999997E+02  0.45594000000E+02  0.51100000000E-03 0.  1.
         11   -1    0    0    0    0 -0.00000000000E+00 -0.00000000000E+00 -0.45593999997E+02  0.45594000000E+02  0.51100000000E-03 0. -1.
    9900012    2    1    2    0    0 -0.19458870699E+02 -0.15941545573E+02  0.37367536763E+02  0.46142319543E+02  0.10000016245E+02 0.  0.
         12    1    1    2    0    0  0.19458870699E+02  0.15941545573E+02 -0.37367536763E+02  0.45045680457E+02  0.00000000000E+00 0. -1.
         11    1    3    3    0    0 -0.34736122163E+01 -0.44479886438E+01  0.69758608955E+01  0.89729159307E+01  0.51100000000E-03 0.  1.
        -11    1    3    3    0    0 -0.19949122320E+00  0.91992888609E+00  0.29213127647E+00  0.98559973996E+00  0.51100000000E-03 0. -1.
         12    1    3    3    0    0 -0.15785767259E+02 -0.12413485815E+02  0.30099544591E+02  0.36183803872E+02  0.00000000000E+00 0. -1.
</event>
<event>
 7    1  0.2312612E-008  0.4614232E+02  0.7816164E-02  0.1320468E+00
        -11   -1    0    0    0    0  0.00000000000E+00  0.00000000000E+00  0.45593999997E+02  0.45594000000E+02  0.51100000000E-03 0.  1.
         11   -1    0    0    0    0 -0.00000000000E+00 -0.00000000000E+00 -0.45593999997E+02  0.45594000000E+02  0.51100000000E-03 0. -1.
    9900012    2    1    2    0    0 -0.11540416077E+02 -0.31750564865E+02  0.29796541745E+02  0.46142317938E+02  0.10000001610E+02 0.  0.
         12    1    1    2    0    0  0.11540416077E+02  0.31750564865E+02 -0.29796541745E+02  0.45045682062E+02  0.00000000000E+00 0. -1.
         11    1    3    3    0    0 -0.13170016569E+01 -0.59140109731E+00  0.12084247601E+01  0.18826946869E+01  0.51100000000E-03 0. -1.
        -11    1    3    3    0    0 -0.25237175317E+01 -0.80120317221E+01  0.12419827925E+02  0.14993796332E+02  0.51100000000E-03 0.  1.
        -12    1    3    3    0    0 -0.76996968883E+01 -0.23147132046E+02  0.16168289060E+02  0.29265826919E+02  0.00000000000E+00 0.  1.
</event>
<event>
 7    1  0.2312612E-008  0.4614231E+02  0.7816164E-02  0.1320468E+00
        -11   -1    0    0    0    0  0.00000000000E+00  0.00000000000E+00  0.45593999997E+02  0.45594000000E+02  0.51100000000E-03 0.  1.
         11   -1    0    0    0    0 -0.00000000000E+00 -0.00000000000E+00 -0.45593999997E+02  0.45594000000E+02  0.51100000000E-03 0. -1.
    9900012    2    1    2    0    0  0.23878663314E+02 -0.22689908057E+02  0.30726074597E+02  0.46142310424E+02  0.99999330906E+01 0.  0.
         12    1    1    2    0    0 -0.23878663314E+02  0.22689908057E+02 -0.30726074597E+02  0.45045689576E+02  0.00000000000E+00 0. -1.
         11    1    3    3    0    0  0.20040664214E+02 -0.19167869512E+02  0.21348870497E+02  0.34997281545E+02  0.51100000000E-03 0.  1.
        -11    1    3    3    0    0  0.28147789333E+01 -0.20845461246E+01  0.32835008154E+01  0.48010093579E+01  0.51100000000E-03 0. -1.
         12    1    3    3    0    0  0.10232201673E+01 -0.14374924200E+01  0.60937032841E+01  0.63440195210E+01  0.00000000000E+00 0. -1.
</event>
<event>
 7    1  0.2312612E-008  0.4614232E+02  0.7816164E-02  0.1320468E+00
        -11   -1    0    0    0    0  0.00000000000E+00  0.00000000000E+00  0.45593999997E+02  0.45594000000E+02  0.51100000000E-03 0.  1.
         11   -1    0    0    0    0 -0.00000000000E+00 -0.00000000000E+00 -0.45593999997E+02  0.45594000000E+02  0.51100000000E-03 0. -1.
    9900012    2    1    2    0    0 -0.14584134378E+02  0.34474237949E+02  0.25058800266E+02  0.46142317316E+02  0.99999959412E+01 0.  0.
         12    1    1    2    0    0  0.14584134378E+02 -0.34474237949E+02 -0.25058800266E+02  0.45045682684E+02  0.00000000000E+00 0. -1.
         11    1    3    3    0    0 -0.19252905091E+01  0.14116830055E+01  0.74706234835E+00  0.25015384998E+01  0.51100000000E-03 0. -1.
        -11    1    3    3    0    0 -0.11001911323E+02  0.30480258712E+02  0.19162937258E+02  0.37647129884E+02  0.51100000000E-03 0.  1.
        -12    1    3    3    0    0 -0.16569325463E+01  0.25822962315E+01  0.51488006598E+01  0.59936489324E+01  0.00000000000E+00 0.  1.
</event>
<event>
 7    1  0.2312612E-008  0.4614232E+02  0.7816164E-02  0.1320468E+00
        -11   -1    0    0    0    0  0.00000000000E+00  0.00000000000E+00  0.45593999997E+02  0.45594000000E+02  0.51100000000E-03 0. -1.
         11   -1    0    0    0    0 -0.00000000000E+00 -0.00000000000E+00 -0.45593999997E+02  0.45594000000E+02  0.51100000000E-03 0.  1.
    9900012    2    1    2    0    0 -0.31391940270E+02  0.93674860711E+01 -0.30917790488E+02  0.46142317878E+02  0.10000001066E+02 0.  0.
         12    1    1    2    0    0  0.31391940270E+02 -0.93674860711E+01  0.30917790488E+02  0.45045682122E+02  0.00000000000E+00 0. -1.
         11    1    3    3    0    0 -0.12140110620E+02  0.41420675049E+01 -0.68953500944E+01  0.14563133669E+02  0.51100000000E-03 0. -1.
        -11    1    3    3    0    0 -0.12627985226E+02  0.55442324873E+01 -0.17455887053E+02  0.22246629359E+02  0.51100000000E-03 0.  1.
        -12    1    3    3    0    0 -0.66238444231E+01 -0.31881392106E+00 -0.65665533406E+01  0.93325548502E+01  0.00000000000E+00 0.  1.
</event>
<event>
 7    1  0.2312612E-008  0.4614232E+02  0.7816164E-02  0.1320468E+00
        -11   -1    0    0    0    0  0.00000000000E+00  0.00000000000E+00  0.45593999997E+02  0.45594000000E+02  0.51100000000E-03 0.  1.
         11   -1    0    0    0    0 -0.00000000000E+00 -0.00000000000E+00 -0.45593999997E+02  0.45594000000E+02  0.51100000000E-03 0. -1.
    9900012    2    1    2    0    0  0.27216932857E+02  0.34286199739E+02  0.10621137332E+02  0.46142317799E+02  0.10000000350E+02 0.  0.
         12    1    1    2    0    0 -0.27216932857E+02 -0.34286199739E+02 -0.10621137332E+02  0.45045682201E+02  0.00000000000E+00 0. -1.
         11    1    3    3    0    0  0.26244990472E+01  0.50764183123E+01  0.27015205846E+01  0.63210941981E+01  0.51100000000E-03 0. -1.
        -11    1    3    3    0    0  0.24165143442E+02  0.29200338751E+02  0.87389790885E+01  0.38897091107E+02  0.51100000000E-03 0.  1.
         12    1    3    3    0    0  0.42729036751E+00  0.94426752360E-02 -0.81936234096E+00  0.92413249486E+00  0.00000000000E+00 0. -1.
</event>
<event>
 7    1  0.2312612E-008  0.4614232E+02  0.7816164E-02  0.1320468E+00
        -11   -1    0    0    0    0  0.00000000000E+00  0.00000000000E+00  0.45593999997E+02  0.45594000000E+02  0.51100000000E-03 0.  1.
         11   -1    0    0    0    0 -0.00000000000E+00 -0.00000000000E+00 -0.45593999997E+02  0.45594000000E+02  0.51100000000E-03 0. -1.
    9900012    2    1    2    0    0  0.39495565512E+02  0.63946028707E+01  0.20695961689E+02  0.46142317951E+02  0.10000001733E+02 0.  0.
         12    1    1    2    0    0 -0.39495565512E+02 -0.63946028707E+01 -0.20695961689E+02  0.45045682049E+02  0.00000000000E+00 0. -1.
         11    1    3    3    0    0  0.69581745613E+01  0.89372474428E+00  0.78595043550E+01  0.10535024732E+02  0.51100000000E-03 0. -1.
        -11    1    3    3    0    0  0.58828973624E+01  0.24728173001E+01  0.22105624754E+01  0.67535097168E+01  0.51100000000E-03 0.  1.
         12    1    3    3    0    0  0.26654493589E+02  0.30280608263E+01  0.10625894859E+02  0.28853783502E+02  0.00000000000E+00 0. -1.
</event>
<event>
 7    1  0.2312612E-008  0.4614232E+02  0.7816164E-02  0.1320468E+00
        -11   -1    0    0    0    0  0.00000000000E+00  0.00000000000E+00  0.45593999997E+02  0.45594000000E+02  0.51100000000E-03 0.  1.
         11   -1    0    0    0    0 -0.00000000000E+00 -0.00000000000E+00 -0.45593999997E+02  0.45594000000E+02  0.51100000000E-03 0. -1.
    9900012    2    1    2    0    0  0.22355968169E+02  0.21515064691E+02  0.32656180680E+02  0.46142318098E+02  0.10000003070E+02 0.  0.
         12    1    1    2    0    0 -0.22355968169E+02 -0.21515064691E+02 -0.32656180680E+02  0.45045681902E+02  0.00000000000E+00 0. -1.
         11    1    3    3    0    0  0.92133040938E+01  0.39922883118E+01  0.13211356939E+02  0.16594073964E+02  0.51100000000E-03 0. -1.
        -11    1    3    3    0    0  0.77830554620E+01  0.12415281036E+02  0.11032670395E+02  0.18342163772E+02  0.51100000000E-03 0.  1.
        -12    1    3    3    0    0  0.53596086134E+01  0.51074953440E+01  0.84121533449E+01  0.11206080362E+02  0.00000000000E+00 0.  1.
</event>
<event>
 7    1  0.2312612E-008  0.4614232E+02  0.7816164E-02  0.1320468E+00
        -11   -1    0    0    0    0  0.00000000000E+00  0.00000000000E+00  0.45593999997E+02  0.45594000000E+02  0.51100000000E-03 0. -1.
         11   -1    0    0    0    0 -0.00000000000E+00 -0.00000000000E+00 -0.45593999997E+02  0.45594000000E+02  0.51100000000E-03 0.  1.
    9900012    2    1    2    0    0 -0.45513836698E+01  0.32897849423E+02 -0.30432381420E+02  0.46142318422E+02  0.10000006027E+02 0.  0.
         12    1    1    2    0    0  0.45513836698E+01 -0.32897849423E+02  0.30432381420E+02  0.45045681578E+02  0.00000000000E+00 0. -1.
         11    1    3    3    0    0 -0.20058803210E+01  0.12673507582E+02 -0.15905833932E+02  0.20436166559E+02  0.51100000000E-03 0. -1.
        -11    1    3    3    0    0 -0.28658234628E+00 -0.18538911860E+00  0.23688379198E+00  0.41546691628E+00  0.51100000000E-03 0.  1.
        -12    1    3    3    0    0 -0.22589210025E+01  0.20409730959E+02 -0.14763431279E+02  0.25290684947E+02  0.00000000000E+00 0.  1.
</event>
<event>
 7    1  0.2312612E-008  0.4614232E+02  0.7816164E-02  0.1320468E+00
        -11   -1    0    0    0    0  0.00000000000E+00  0.00000000000E+00  0.45593999997E+02  0.45594000000E+02  0.51100000000E-03 0.  1.
         11   -1    0    0    0    0 -0.00000000000E+00 -0.00000000000E+00 -0.45593999997E+02  0.45594000000E+02  0.51100000000E-03 0. -1.
    9900012    2    1    2    0    0  0.25276403255E+00  0.10702035739E+02  0.43755182768E+02  0.46142317880E+02  0.10000001080E+02 0.  0.
         12    1    1    2    0    0 -0.25276403255E+00 -0.10702035739E+02 -0.43755182768E+02  0.45045682120E+02  0.00000000000E+00 0. -1.
         11    1    3    3    0    0  0.89920637966E+00  0.24764141703E+01  0.18835131855E+01  0.32386450002E+01  0.51100000000E-03 0. -1.
        -11    1    3    3    0    0  0.76095760975E-01  0.43916853092E+01  0.12005669717E+02  0.12783927254E+02  0.51100000000E-03 0.  1.
        -12    1    3    3    0    0 -0.72253810809E+00  0.38339362597E+01  0.29865999865E+02  0.30119745625E+02  0.00000000000E+00 0.  1.
</event>
<event>
 7    1  0.2312612E-008  0.4614232E+02  0.7816164E-02  0.1320468E+00
        -11   -1    0    0    0    0  0.00000000000E+00  0.00000000000E+00  0.45593999997E+02  0.45594000000E+02  0.51100000000E-03 0.  1.
         11   -1    0    0    0    0 -0.00000000000E+00 -0.00000000000E+00 -0.45593999997E+02  0.45594000000E+02  0.51100000000E-03 0. -1.
    9900012    2    1    2    0    0  0.21527719023E+02 -0.34097358287E+01  0.39421371310E+02  0.46142317624E+02  0.99999987493E+01 0.  0.
         12    1    1    2    0    0 -0.21527719023E+02  0.34097358287E+01 -0.39421371310E+02  0.45045682376E+02  0.00000000000E+00 0. -1.
         11    1    3    3    0    0  0.60380131466E+01  0.16367583687E+01  0.15040757405E+02  0.16289903753E+02  0.51100000000E-03 0. -1.
        -11    1    3    3    0    0  0.19871059813E+01  0.10867057787E+01  0.46249837791E+01  0.51497567757E+01  0.51100000000E-03 0.  1.
        -12    1    3    3    0    0  0.13502599895E+02 -0.61331999761E+01  0.19755630126E+02  0.24702657095E+02  0.00000000000E+00 0.  1.
</event>
<event>
 7    1  0.2312612E-008  0.4614232E+02  0.7816164E-02  0.1320468E+00
        -11   -1    0    0    0    0  0.00000000000E+00  0.00000000000E+00  0.45593999997E+02  0.45594000000E+02  0.51100000000E-03 0.  1.
         11   -1    0    0    0    0 -0.00000000000E+00 -0.00000000000E+00 -0.45593999997E+02  0.45594000000E+02  0.51100000000E-03 0. -1.
    9900012    2    1    2    0    0 -0.42895095494E+02 -0.92462077930E+01  0.10179973532E+02  0.46142318330E+02  0.10000005192E+02 0.  0.
         12    1    1    2    0    0  0.42895095494E+02  0.92462077930E+01 -0.10179973532E+02  0.45045681670E+02  0.00000000000E+00 0. -1.
         11    1    3    3    0    0 -0.28503200148E+02 -0.49353570931E+01  0.93723954732E+01  0.30407761600E+02  0.51100000000E-03 0. -1.
        -11    1    3    3    0    0 -0.29452397793E+00 -0.46330111266E+00  0.97689153292E+00  0.11205845005E+01  0.51100000000E-03 0.  1.
         12    1    3    3    0    0 -0.14097371367E+02 -0.38475495872E+01 -0.16931347438E+00  0.14613972230E+02  0.00000000000E+00 0. -1.
</event>
<event>
 7    1  0.2312612E-008  0.4614232E+02  0.7816164E-02  0.1320468E+00
        -11   -1    0    0    0    0  0.00000000000E+00  0.00000000000E+00  0.45593999997E+02  0.45594000000E+02  0.51100000000E-03 0.  1.
         11   -1    0    0    0    0 -0.00000000000E+00 -0.00000000000E+00 -0.45593999997E+02  0.45594000000E+02  0.51100000000E-03 0. -1.
    9900012    2    1    2    0    0  0.12888124678E+02  0.78820714410E+01  0.42436807690E+02  0.46142318133E+02  0.10000003390E+02 0.  0.
         12    1    1    2    0    0 -0.12888124678E+02 -0.78820714410E+01 -0.42436807690E+02  0.45045681867E+02  0.00000000000E+00 0. -1.
         11    1    3    3    0    0  0.17603527189E+01  0.38277777315E+01  0.82504190194E+01  0.92639159276E+01  0.51100000000E-03 0. -1.
        -11    1    3    3    0    0  0.53073550745E+01  0.56676886892E+01  0.20358773124E+02  0.21789225694E+02  0.51100000000E-03 0.  1.
        -12    1    3    3    0    0  0.58204168849E+01 -0.16133949797E+01  0.13827615547E+02  0.15089176511E+02  0.00000000000E+00 0.  1.
</event>
<event>
 7    1  0.2312612E-008  0.4614232E+02  0.7816164E-02  0.1320468E+00
        -11   -1    0    0    0    0  0.00000000000E+00  0.00000000000E+00  0.45593999997E+02  0.45594000000E+02  0.51100000000E-03 0. -1.
         11   -1    0    0    0    0 -0.00000000000E+00 -0.00000000000E+00 -0.45593999997E+02  0.45594000000E+02  0.51100000000E-03 0.  1.
    9900012    2    1    2    0    0 -0.11035346558E+01  0.29368484485E+02 -0.34137776961E+02  0.46142317792E+02  0.10000000283E+02 0.  0.
         12    1    1    2    0    0  0.11035346558E+01 -0.29368484485E+02  0.34137776961E+02  0.45045682208E+02  0.00000000000E+00 0. -1.
         11    1    3    3    0    0  0.52281554017E-01  0.74822953959E+01 -0.10151560560E+02  0.12611172024E+02  0.51100000000E-03 0. -1.
        -11    1    3    3    0    0  0.11958589458E+00  0.21201444470E+02 -0.24076125591E+02  0.32080763272E+02  0.51100000000E-03 0.  1.
         12    1    3    3    0    0 -0.12754021044E+01  0.68474461999E+00  0.89909189859E-01  0.14503824961E+01  0.00000000000E+00 0. -1.
</event>
<event>
 7    1  0.2312612E-008  0.4614232E+02  0.7816164E-02  0.1320468E+00
        -11   -1    0    0    0    0  0.00000000000E+00  0.00000000000E+00  0.45593999997E+02  0.45594000000E+02  0.51100000000E-03 0.  1.
         11   -1    0    0    0    0 -0.00000000000E+00 -0.00000000000E+00 -0.45593999997E+02  0.45594000000E+02  0.51100000000E-03 0. -1.
    9900012    2    1    2    0    0  0.23088358464E+02  0.22881075648E+02  0.31184893026E+02  0.46142317938E+02  0.10000001613E+02 0.  0.
         12    1    1    2    0    0 -0.23088358464E+02 -0.22881075648E+02 -0.31184893026E+02  0.45045682062E+02  0.00000000000E+00 0. -1.
         11    1    3    3    0    0  0.15910991914E+01  0.18116133830E+01  0.62959350694E+01  0.67418349390E+01  0.51100000000E-03 0. -1.
        -11    1    3    3    0    0  0.32388320375E+01  0.36601255152E+01  0.67267068366E+01  0.83147541684E+01  0.51100000000E-03 0.  1.
        -12    1    3    3    0    0  0.18258427235E+02  0.17409336750E+02  0.18162251120E+02  0.31085728831E+02  0.00000000000E+00 0.  1.
</event>
<event>
 7    1  0.2312612E-008  0.4614232E+02  0.7816164E-02  0.1320468E+00
        -11   -1    0    0    0    0  0.00000000000E+00  0.00000000000E+00  0.45593999997E+02  0.45594000000E+02  0.51100000000E-03 0.  1.
         11   -1    0    0    0    0 -0.00000000000E+00 -0.00000000000E+00 -0.45593999997E+02  0.45594000000E+02  0.51100000000E-03 0. -1.
    9900012    2    1    2    0    0 -0.12330177635E+02 -0.31768572705E+02  0.29459088450E+02  0.46142318914E+02  0.10000010514E+02 0.  0.
         12    1    1    2    0    0  0.12330177635E+02  0.31768572705E+02 -0.29459088450E+02  0.45045681086E+02  0.00000000000E+00 0. -1.
         11    1    3    3    0    0 -0.56498233322E+01 -0.11587370477E+02  0.63383971594E+01  0.14365338042E+02  0.51100000000E-03 0. -1.
        -11    1    3    3    0    0 -0.58220288284E+01 -0.14494232072E+02  0.13896943789E+02  0.20907028244E+02  0.51100000000E-03 0.  1.
        -12    1    3    3    0    0 -0.85832547400E+00 -0.56869701554E+01  0.92237475014E+01  0.10869952628E+02  0.00000000000E+00 0.  1.
</event>
<event>
 7    1  0.2312612E-008  0.4614232E+02  0.7816164E-02  0.1320468E+00
        -11   -1    0    0    0    0  0.00000000000E+00  0.00000000000E+00  0.45593999997E+02  0.45594000000E+02  0.51100000000E-03 0. -1.
         11   -1    0    0    0    0 -0.00000000000E+00 -0.00000000000E+00 -0.45593999997E+02  0.45594000000E+02  0.51100000000E-03 0.  1.
    9900012    2    1    2    0    0  0.36660261905E+02  0.73720986537E+01 -0.25115544520E+02  0.46142320762E+02  0.10000027363E+02 0.  0.
         12    1    1    2    0    0 -0.36660261905E+02 -0.73720986537E+01  0.25115544520E+02  0.45045679238E+02  0.00000000000E+00 0. -1.
         11    1    3    3    0    0  0.94002970648E+01  0.32366181558E+01 -0.40106006432E+01  0.10720363789E+02  0.51100000000E-03 0. -1.
        -11    1    3    3    0    0  0.15049955161E+02  0.29667936798E+01 -0.74049956685E+01  0.17033407651E+02  0.51100000000E-03 0.  1.
         12    1    3    3    0    0  0.12210009678E+02  0.11686868181E+01 -0.13699948209E+02  0.18388549321E+02  0.00000000000E+00 0. -1.
</event>
<event>
 7    1  0.2312612E-008  0.4614232E+02  0.7816164E-02  0.1320468E+00
        -11   -1    0    0    0    0  0.00000000000E+00  0.00000000000E+00  0.45593999997E+02  0.45594000000E+02  0.51100000000E-03 0. -1.
         11   -1    0    0    0    0 -0.00000000000E+00 -0.00000000000E+00 -0.45593999997E+02  0.45594000000E+02  0.51100000000E-03 0.  1.
    9900012    2    1    2    0    0  0.53938327314E+01  0.23474287189E+02 -0.38065440977E+02  0.46142318883E+02  0.10000010228E+02 0.  0.
         12    1    1    2    0    0 -0.53938327314E+01 -0.23474287189E+02  0.38065440977E+02  0.45045681117E+02  0.00000000000E+00 0. -1.
         11    1    3    3    0    0 -0.20274268032E+00  0.10835975085E+01 -0.14354712314E-01  0.11024946593E+01  0.51100000000E-03 0. -1.
        -11    1    3    3    0    0  0.52802184258E+01  0.14467524964E+02 -0.30096257833E+02  0.33807909149E+02  0.51100000000E-03 0.  1.
         12    1    3    3    0    0  0.31635698600E+00  0.79231647168E+01 -0.79548284313E+01  0.11231915075E+02  0.00000000000E+00 0. -1.
</event>
<event>
 7    1  0.2312612E-008  0.4614232E+02  0.7816164E-02  0.1320468E+00
        -11   -1    0    0    0    0  0.00000000000E+00  0.00000000000E+00  0.45593999997E+02  0.45594000000E+02  0.51100000000E-03 0.  1.
         11   -1    0    0    0    0 -0.00000000000E+00 -0.00000000000E+00 -0.45593999997E+02  0.45594000000E+02  0.51100000000E-03 0. -1.
    9900012    2    1    2    0    0  0.22740824297E+02  0.85472584780E+01  0.37933004030E+02  0.46142317500E+02  0.99999976189E+01 0.  0.
         12    1    1    2    0    0 -0.22740824297E+02 -0.85472584780E+01 -0.37933004030E+02  0.45045682500E+02  0.00000000000E+00 0. -1.
         11    1    3    3    0    0  0.12213052314E+02  0.64691595551E+01  0.16047117946E+02  0.21178259296E+02  0.51100000000E-03 0. -1.
        -11    1    3    3    0    0  0.52258586997E+01 -0.16977793171E+01  0.10380538232E+02  0.11745110813E+02  0.51100000000E-03 0.  1.
        -12    1    3    3    0    0  0.53019132830E+01  0.37758782400E+01  0.11505347852E+02  0.13218947391E+02  0.00000000000E+00 0.  1.
</event>
<event>
 7    1  0.2312612E-008  0.4614232E+02  0.7816164E-02  0.1320468E+00
        -11   -1    0    0    0    0  0.00000000000E+00  0.00000000000E+00  0.45593999997E+02  0.45594000000E+02  0.51100000000E-03 0.  1.
         11   -1    0    0    0    0 -0.00000000000E+00 -0.00000000000E+00 -0.45593999997E+02  0.45594000000E+02  0.51100000000E-03 0. -1.
    9900012    2    1    2    0    0 -0.23724826792E+02  0.87802109763E+01  0.37271353772E+02  0.46142319595E+02  0.10000016727E+02 0.  0.
         12    1    1    2    0    0  0.23724826792E+02 -0.87802109763E+01 -0.37271353772E+02  0.45045680405E+02  0.00000000000E+00 0. -1.
         11    1    3    3    0    0 -0.22068834395E+01  0.47279434518E+01  0.62166248749E+01  0.81160463832E+01  0.51100000000E-03 0. -1.
        -11    1    3    3    0    0 -0.12568084968E+02  0.25644284746E+01  0.19386334669E+02  0.23245709826E+02  0.51100000000E-03 0.  1.
         12    1    3    3    0    0 -0.89498583841E+01  0.14878390499E+01  0.11668394229E+02  0.14780563386E+02  0.00000000000E+00 0. -1.
</event>
<event>
 7    1  0.2660614E-008  0.4614232E+02  0.7816164E-02  0.1320468E+00
        -11   -1    0    0    0    0  0.00000000000E+00  0.00000000000E+00  0.45593999997E+02  0.45594000000E+02  0.51100000000E-03 0. -1.
         11   -1    0    0    0    0 -0.00000000000E+00 -0.00000000000E+00 -0.45593999997E+02  0.45594000000E+02  0.51100000000E-03 0.  1.
    9900012    2    1    2    0    0  0.35637056125E+02 -0.44448370539E+00 -0.27548426027E+02  0.46142321943E+02  0.10000038134E+02 0.  0.
         12    1    1    2    0    0 -0.35637056125E+02  0.44448370539E+00  0.27548426027E+02  0.45045678057E+02  0.00000000000E+00 0. -1.
         11    1    3    3    0    0  0.22375687582E+01 -0.44367224340E+00  0.33497778404E+00  0.23055952343E+01  0.51100000000E-03 0. -1.
        -11    1    3    3    0    0  0.20687226590E+01 -0.67484761580E+00 -0.52889297872E+00  0.22393661578E+01  0.51100000000E-03 0.  1.
        -12    1    3    3    0    0  0.31330764708E+02  0.67403615382E+00 -0.27354510833E+02  0.41597360551E+02  0.00000000000E+00 0.  1.
</event>
<event>
 7    1  0.2312612E-008  0.4614232E+02  0.7816164E-02  0.1320468E+00
        -11   -1    0    0    0    0  0.00000000000E+00  0.00000000000E+00  0.45593999997E+02  0.45594000000E+02  0.51100000000E-03 0. -1.
         11   -1    0    0    0    0 -0.00000000000E+00 -0.00000000000E+00 -0.45593999997E+02  0.45594000000E+02  0.51100000000E-03 0.  1.
    9900012    2    1    2    0    0 -0.39509292043E+02  0.92905122511E+01 -0.19540106055E+02  0.46142317407E+02  0.99999967730E+01 0.  0.
         12    1    1    2    0    0  0.39509292043E+02 -0.92905122511E+01  0.19540106055E+02  0.45045682593E+02  0.00000000000E+00 0. -1.
         11    1    3    3    0    0 -0.46787961608E+01  0.13682250960E+01 -0.39280041302E+01  0.62603825870E+01  0.51100000000E-03 0. -1.
        -11    1    3    3    0    0 -0.27545628088E+02  0.26337400082E+01 -0.11130226280E+02  0.29825830256E+02  0.51100000000E-03 0.  1.
        -12    1    3    3    0    0 -0.72848677945E+01  0.52885471469E+01 -0.44818756444E+01  0.10056104564E+02  0.00000000000E+00 0.  1.
</event>
<event>
 7    1  0.2312612E-008  0.4614231E+02  0.7816164E-02  0.1320468E+00
        -11   -1    0    0    0    0  0.00000000000E+00  0.00000000000E+00  0.45593999997E+02  0.45594000000E+02  0.51100000000E-03 0.  1.
         11   -1    0    0    0    0 -0.00000000000E+00 -0.00000000000E+00 -0.45593999997E+02  0.45594000000E+02  0.51100000000E-03 0. -1.
    9900012    2    1    2    0    0 -0.39847853576E+02 -0.19507551052E+02  0.77921603683E+01  0.46142314903E+02  0.99999739396E+01 0.  0.
         12    1    1    2    0    0  0.39847853576E+02  0.19507551052E+02 -0.77921603683E+01  0.45045685097E+02  0.00000000000E+00 0. -1.
         11    1    3    3    0    0 -0.12127437901E+02 -0.71352700388E+01  0.24079563967E+01  0.14275331269E+02  0.51100000000E-03 0.  1.
        -11    1    3    3    0    0 -0.15486881106E+02 -0.49443788396E+01  0.65072735092E+01  0.17510995896E+02  0.51100000000E-03 0. -1.
         12    1    3    3    0    0 -0.12233534569E+02 -0.74279021737E+01 -0.11230695376E+01  0.14355987738E+02  0.00000000000E+00 0. -1.
</event>
<event>
 7    1  0.2312612E-008  0.4614232E+02  0.7816164E-02  0.1320468E+00
        -11   -1    0    0    0    0  0.00000000000E+00  0.00000000000E+00  0.45593999997E+02  0.45594000000E+02  0.51100000000E-03 0. -1.
         11   -1    0    0    0    0 -0.00000000000E+00 -0.00000000000E+00 -0.45593999997E+02  0.45594000000E+02  0.51100000000E-03 0.  1.
    9900012    2    1    2    0    0  0.63844301917E+01 -0.35224590007E+02 -0.27341924229E+02  0.46142317515E+02  0.99999977521E+01 0.  0.
         12    1    1    2    0    0 -0.63844301917E+01  0.35224590007E+02  0.27341924229E+02  0.45045682485E+02  0.00000000000E+00 0. -1.
         11    1    3    3    0    0  0.59872867902E+01 -0.14305170937E+02 -0.89925405840E+01  0.17926274154E+02  0.51100000000E-03 0. -1.
        -11    1    3    3    0    0  0.14142749184E+01 -0.19447990584E+02 -0.17631276451E+02  0.26288522607E+02  0.51100000000E-03 0.  1.
        -12    1    3    3    0    0 -0.10171315169E+01 -0.14714284867E+01 -0.71810719385E+00  0.19275207537E+01  0.00000000000E+00 0.  1.
</event>
<event>
 7    1  0.2312612E-008  0.4614232E+02  0.7816164E-02  0.1320468E+00
        -11   -1    0    0    0    0  0.00000000000E+00  0.00000000000E+00  0.45593999997E+02  0.45594000000E+02  0.51100000000E-03 0. -1.
         11   -1    0    0    0    0 -0.00000000000E+00 -0.00000000000E+00 -0.45593999997E+02  0.45594000000E+02  0.51100000000E-03 0.  1.
    9900012    2    1    2    0    0 -0.32726104206E+02 -0.45203023491E+01  0.30621601254E+02  0.46142317707E+02  0.99999995110E+01 0.  0.
         12    1    1    2    0    0  0.32726104206E+02  0.45203023491E+01 -0.30621601254E+02  0.45045682293E+02  0.00000000000E+00 0. -1.
         11    1    3    3    0    0 -0.39477125096E+01 -0.24051562063E+00  0.77921146833E+01  0.87383827635E+01  0.51100000000E-03 0. -1.
        -11    1    3    3    0    0 -0.18387414857E+02 -0.16949448395E+01  0.17511388974E+02  0.25448351757E+02  0.51100000000E-03 0.  1.
         12    1    3    3    0    0 -0.10390976840E+02 -0.25848418890E+01  0.53180975968E+01  0.11955583187E+02  0.00000000000E+00 0. -1.
</event>
<event>
 7    1  0.2312612E-008  0.4614232E+02  0.7816164E-02  0.1320468E+00
        -11   -1    0    0    0    0  0.00000000000E+00  0.00000000000E+00  0.45593999997E+02  0.45594000000E+02  0.51100000000E-03 0. -1.
         11   -1    0    0    0    0 -0.00000000000E+00 -0.00000000000E+00 -0.45593999997E+02  0.45594000000E+02  0.51100000000E-03 0.  1.
    9900012    2    1    2    0    0 -0.40620819621E+02  0.88534170154E+01 -0.17340111785E+02  0.46142318118E+02  0.10000003253E+02 0.  0.
         12    1    1    2    0    0  0.40620819621E+02 -0.88534170154E+01  0.17340111785E+02  0.45045681882E+02  0.00000000000E+00 0. -1.
         11    1    3    3    0    0 -0.22882863982E+02  0.69353992407E+01 -0.90712282455E+01  0.25573666315E+02  0.51100000000E-03 0. -1.
        -11    1    3    3    0    0 -0.41541785441E+01 -0.10646361453E+01  0.18676482264E+00  0.42924970423E+01  0.51100000000E-03 0.  1.
         12    1    3    3    0    0 -0.13583777094E+02  0.29826539200E+01 -0.84556483626E+01  0.16276154760E+02  0.00000000000E+00 0. -1.
</event>
<event>
 7    1  0.2312612E-008  0.4614232E+02  0.7816164E-02  0.1320468E+00
        -11   -1    0    0    0    0  0.00000000000E+00  0.00000000000E+00  0.45593999997E+02  0.45594000000E+02  0.51100000000E-03 0.  1.
         11   -1    0    0    0    0 -0.00000000000E+00 -0.00000000000E+00 -0.45593999997E+02  0.45594000000E+02  0.51100000000E-03 0. -1.
    9900012    2    1    2    0    0 -0.59879920449E+01  0.34885343333E+02  0.27861626529E+02  0.46142318064E+02  0.10000002766E+02 0.  0.
         12    1    1    2    0    0  0.59879920449E+01 -0.34885343333E+02 -0.27861626529E+02  0.45045681936E+02  0.00000000000E+00 0. -1.
         11    1    3    3    0    0 -0.18172135639E+01  0.96620467763E+00  0.76044944805E+00  0.21941057951E+01  0.51100000000E-03 0. -1.
        -11    1    3    3    0    0  0.10779430630E+01  0.67892878339E+01  0.41739001061E+01  0.80422529738E+01  0.51100000000E-03 0.  1.
         12    1    3    3    0    0 -0.52487215440E+01  0.27129850822E+02  0.22927276975E+02  0.35905959296E+02  0.00000000000E+00 0. -1.
</event>
<event>
 7    1  0.2312612E-008  0.4614232E+02  0.7816164E-02  0.1320468E+00
        -11   -1    0    0    0    0  0.00000000000E+00  0.00000000000E+00  0.45593999997E+02  0.45594000000E+02  0.51100000000E-03 0. -1.
         11   -1    0    0    0    0 -0.00000000000E+00 -0.00000000000E+00 -0.45593999997E+02  0.45594000000E+02  0.51100000000E-03 0.  1.
    9900012    2    1    2    0    0  0.23651883187E+02 -0.73279149164E+01 -0.37629822131E+02  0.46142318421E+02  0.10000006018E+02 0.  0.
         12    1    1    2    0    0 -0.23651883187E+02  0.73279149164E+01  0.37629822131E+02  0.45045681579E+02  0.00000000000E+00 0. -1.
         11    1    3    3    0    0  0.12272082375E+02 -0.30779251347E+01 -0.19941986832E+02  0.23616952979E+02  0.51100000000E-03 0.  1.
        -11    1    3    3    0    0  0.17571484688E+00  0.92732428809E+00  0.15864722474E-01  0.94395868196E+00  0.51100000000E-03 0. -1.
         12    1    3    3    0    0  0.11204085965E+02 -0.51773140698E+01 -0.17703700021E+02  0.21581406760E+02  0.00000000000E+00 0. -1.
</event>
<event>
 7    1  0.2312612E-008  0.4614232E+02  0.7816164E-02  0.1320468E+00
        -11   -1    0    0    0    0  0.00000000000E+00  0.00000000000E+00  0.45593999997E+02  0.45594000000E+02  0.51100000000E-03 0. -1.
         11   -1    0    0    0    0 -0.00000000000E+00 -0.00000000000E+00 -0.45593999997E+02  0.45594000000E+02  0.51100000000E-03 0.  1.
    9900012    2    1    2    0    0 -0.39736268143E+02  0.47525856253E+00 -0.21211239239E+02  0.46142317114E+02  0.99999940966E+01 0.  0.
         12    1    1    2    0    0  0.39736268143E+02 -0.47525856253E+00  0.21211239239E+02  0.45045682886E+02  0.00000000000E+00 0. -1.
         11    1    3    3    0    0 -0.11377170621E+02 -0.87470510247E+00 -0.71050650704E+01  0.13441989074E+02  0.51100000000E-03 0.  1.
        -11    1    3    3    0    0  0.30807669737E-01 -0.52557697305E+00  0.49327339604E+00  0.72145628522E+00  0.51100000000E-03 0. -1.
         12    1    3    3    0    0 -0.28389905192E+02  0.18755406380E+01 -0.14599447565E+02  0.31978871755E+02  0.00000000000E+00 0. -1.
</event>
<event>
 7    1  0.2312612E-008  0.4614232E+02  0.7816164E-02  0.1320468E+00
        -11   -1    0    0    0    0  0.00000000000E+00  0.00000000000E+00  0.45593999997E+02  0.45594000000E+02  0.51100000000E-03 0. -1.
         11   -1    0    0    0    0 -0.00000000000E+00 -0.00000000000E+00 -0.45593999997E+02  0.45594000000E+02  0.51100000000E-03 0.  1.
    9900012    2    1    2    0    0  0.13258834464E+02 -0.14123286268E+02 -0.40667549540E+02  0.46142317722E+02  0.99999996421E+01 0.  0.
         12    1    1    2    0    0 -0.13258834464E+02  0.14123286268E+02  0.40667549540E+02  0.45045682278E+02  0.00000000000E+00 0. -1.
         11    1    3    3    0    0 -0.52502928436E+00  0.19052751754E+00 -0.14989842849E+01  0.15996595363E+01  0.51100000000E-03 0. -1.
        -11    1    3    3    0    0  0.31091368790E+01 -0.63123570152E+00 -0.27413324924E+01  0.41928623562E+01  0.51100000000E-03 0.  1.
        -12    1    3    3    0    0  0.10674726870E+02 -0.13682578084E+02 -0.36427232762E+02  0.40349795829E+02  0.00000000000E+00 0.  1.
</event>
<event>
 7    1  0.2312612E-008  0.4614232E+02  0.7816164E-02  0.1320468E+00
        -11   -1    0    0    0    0  0.00000000000E+00  0.00000000000E+00  0.45593999997E+02  0.45594000000E+02  0.51100000000E-03 0.  1.
         11   -1    0    0    0    0 -0.00000000000E+00 -0.00000000000E+00 -0.45593999997E+02  0.45594000000E+02  0.51100000000E-03 0. -1.
    9900012    2    1    2    0    0 -0.71332644754E+01 -0.12862637777E+00  0.44477111391E+02  0.46142318248E+02  0.10000004440E+02 0.  0.
         12    1    1    2    0    0  0.71332644754E+01  0.12862637777E+00 -0.44477111391E+02  0.45045681752E+02  0.00000000000E+00 0. -1.
         11    1    3    3    0    0 -0.26957424112E+01  0.33023264536E+00  0.30288239393E+01  0.40681513571E+01  0.51100000000E-03 0. -1.
        -11    1    3    3    0    0 -0.89183262189E+00 -0.11372584869E+01  0.20354890774E+01  0.24963850538E+01  0.51100000000E-03 0.  1.
        -12    1    3    3    0    0 -0.35456894423E+01  0.67839946377E+00  0.39412798374E+02  0.39577781837E+02  0.00000000000E+00 0.  1.
</event>
<event>
 7    1  0.2312612E-008  0.4614233E+02  0.7816164E-02  0.1320468E+00
        -11   -1    0    0    0    0  0.00000000000E+00  0.00000000000E+00  0.45593999997E+02  0.45594000000E+02  0.51100000000E-03 0. -1.
         11   -1    0    0    0    0 -0.00000000000E+00 -0.00000000000E+00 -0.45593999997E+02  0.45594000000E+02  0.51100000000E-03 0.  1.
    9900012    2    1    2    0    0 -0.42414355946E+02  0.11877984275E+02  0.94365547456E+01  0.46142326887E+02  0.10000083213E+02 0.  0.
         12    1    1    2    0    0  0.42414355946E+02 -0.11877984275E+02 -0.94365547456E+01  0.45045673113E+02  0.00000000000E+00 0. -1.
         11    1    3    3    0    0 -0.90057381180E+01  0.26824650624E+00 -0.17235636097E+00  0.90113807052E+01  0.51100000000E-03 0. -1.
        -11    1    3    3    0    0 -0.84544644553E+01  0.26576578606E+01 -0.19627078693E+00  0.88645156107E+01  0.51100000000E-03 0.  1.
        -12    1    3    3    0    0 -0.24954153373E+02  0.89520799086E+01  0.98051818935E+01  0.28266430571E+02  0.00000000000E+00 0.  1.
</event>
<event>
 7    1  0.2312612E-008  0.4614232E+02  0.7816164E-02  0.1320468E+00
        -11   -1    0    0    0    0  0.00000000000E+00  0.00000000000E+00  0.45593999997E+02  0.45594000000E+02  0.51100000000E-03 0.  1.
         11   -1    0    0    0    0 -0.00000000000E+00 -0.00000000000E+00 -0.45593999997E+02  0.45594000000E+02  0.51100000000E-03 0. -1.
    9900012    2    1    2    0    0 -0.18874493441E+02 -0.27715189126E+02  0.30078819694E+02  0.46142316465E+02  0.99999881786E+01 0.  0.
         12    1    1    2    0    0  0.18874493441E+02  0.27715189126E+02 -0.30078819694E+02  0.45045683535E+02  0.00000000000E+00 0. -1.
         11    1    3    3    0    0 -0.24598577646E+01 -0.13240411538E+01  0.32814283779E+01  0.43094962187E+01  0.51100000000E-03 0. -1.
        -11    1    3    3    0    0 -0.82241364427E+01 -0.16788085187E+02  0.20443361886E+02  0.27702116705E+02  0.51100000000E-03 0.  1.
        -12    1    3    3    0    0 -0.81904992341E+01 -0.96030627860E+01  0.63540294303E+01  0.14130703541E+02  0.00000000000E+00 0.  1.
</event>
<event>
 7    1  0.2312612E-008  0.4614232E+02  0.7816164E-02  0.1320468E+00
        -11   -1    0    0    0    0  0.00000000000E+00  0.00000000000E+00  0.45593999997E+02  0.45594000000E+02  0.51100000000E-03 0.  1.
         11   -1    0    0    0    0 -0.00000000000E+00 -0.00000000000E+00 -0.45593999997E+02  0.45594000000E+02  0.51100000000E-03 0. -1.
    9900012    2    1    2    0    0 -0.12577156353E+01 -0.38541396893E+02  0.23282877747E+02  0.46142317419E+02  0.99999968770E+01 0.  0.
         12    1    1    2    0    0  0.12577156353E+01  0.38541396893E+02 -0.23282877747E+02  0.45045682581E+02  0.00000000000E+00 0. -1.
         11    1    3    3    0    0  0.91120442375E+00 -0.17605922017E+01  0.36147928375E+01  0.41227061406E+01  0.51100000000E-03 0. -1.
        -11    1    3    3    0    0 -0.23981870178E+01 -0.15577476827E+02  0.64310644102E+01  0.17022563702E+02  0.51100000000E-03 0.  1.
         12    1    3    3    0    0  0.22926695879E+00 -0.21203327864E+02  0.13237020499E+02  0.24997047576E+02  0.00000000000E+00 0. -1.
</event>
<event>
 7    1  0.2312612E-008  0.4614232E+02  0.7816164E-02  0.1320468E+00
        -11   -1    0    0    0    0  0.00000000000E+00  0.00000000000E+00  0.45593999997E+02  0.45594000000E+02  0.51100000000E-03 0.  1.
         11   -1    0    0    0    0 -0.00000000000E+00 -0.00000000000E+00 -0.45593999997E+02  0.45594000000E+02  0.51100000000E-03 0. -1.
    9900012    2    1    2    0    0  0.26110793692E+01 -0.44465654525E+02  0.67157507344E+01  0.46142317901E+02  0.10000001279E+02 0.  0.
         12    1    1    2    0    0 -0.26110793692E+01  0.44465654525E+02 -0.67157507344E+01  0.45045682099E+02  0.00000000000E+00 0. -1.
         11    1    3    3    0    0  0.26992131527E+01 -0.27515998676E+02  0.50696571727E+00  0.27652720468E+02  0.51100000000E-03 0. -1.
        -11    1    3    3    0    0 -0.19065265028E+01 -0.74009846692E+01  0.34513828033E+01  0.83857892232E+01  0.51100000000E-03 0.  1.
         12    1    3    3    0    0  0.18183927193E+01 -0.95486711801E+01  0.27574022139E+01  0.10103808211E+02  0.00000000000E+00 0. -1.
</event>
<event>
 7    1  0.2312612E-008  0.4614232E+02  0.7816164E-02  0.1320468E+00
        -11   -1    0    0    0    0  0.00000000000E+00  0.00000000000E+00  0.45593999997E+02  0.45594000000E+02  0.51100000000E-03 0.  1.
         11   -1    0    0    0    0 -0.00000000000E+00 -0.00000000000E+00 -0.45593999997E+02  0.45594000000E+02  0.51100000000E-03 0. -1.
    9900012    2    1    2    0    0  0.11395544903E+02 -0.93200268644E+01  0.42572199770E+02  0.46142317214E+02  0.99999950125E+01 0.  0.
         12    1    1    2    0    0 -0.11395544903E+02  0.93200268644E+01 -0.42572199770E+02  0.45045682786E+02  0.00000000000E+00 0. -1.
         11    1    3    3    0    0 -0.35159444851E+00 -0.19479878292E+01  0.68387885656E+01  0.71195017062E+01  0.51100000000E-03 0. -1.
        -11    1    3    3    0    0  0.88289225633E+01 -0.59046458606E+01  0.17285823629E+02  0.20288282706E+02  0.51100000000E-03 0.  1.
        -12    1    3    3    0    0  0.29182167881E+01 -0.14673931745E+01  0.18447587575E+02  0.18734532802E+02  0.00000000000E+00 0.  1.
</event>
<event>
 7    1  0.2312612E-008  0.4614232E+02  0.7816164E-02  0.1320468E+00
        -11   -1    0    0    0    0  0.00000000000E+00  0.00000000000E+00  0.45593999997E+02  0.45594000000E+02  0.51100000000E-03 0.  1.
         11   -1    0    0    0    0 -0.00000000000E+00 -0.00000000000E+00 -0.45593999997E+02  0.45594000000E+02  0.51100000000E-03 0. -1.
    9900012    2    1    2    0    0  0.18050576845E+02  0.18698262084E+02  0.36792188325E+02  0.46142318174E+02  0.10000003767E+02 0.  0.
         12    1    1    2    0    0 -0.18050576845E+02 -0.18698262084E+02 -0.36792188325E+02  0.45045681826E+02  0.00000000000E+00 0. -1.
         11    1    3    3    0    0  0.11382242411E+01 -0.83152225678E-01  0.36310506074E+00  0.11976285993E+01  0.51100000000E-03 0. -1.
        -11    1    3    3    0    0  0.70964954522E+01  0.29739312322E+01  0.11510578601E+02  0.13845502326E+02  0.51100000000E-03 0.  1.
        -12    1    3    3    0    0  0.98158571512E+01  0.15807483077E+02  0.24918504664E+02  0.31099187249E+02  0.00000000000E+00 0.  1.
</event>
<event>
 7    1  0.2312612E-008  0.4614232E+02  0.7816164E-02  0.1320468E+00
        -11   -1    0    0    0    0  0.00000000000E+00  0.00000000000E+00  0.45593999997E+02  0.45594000000E+02  0.51100000000E-03 0.  1.
         11   -1    0    0    0    0 -0.00000000000E+00 -0.00000000000E+00 -0.45593999997E+02  0.45594000000E+02  0.51100000000E-03 0. -1.
    9900012    2    1    2    0    0 -0.29345042558E+01 -0.43022810209E+02 -0.13020744454E+02  0.46142319856E+02  0.10000019107E+02 0.  0.
         12    1    1    2    0    0  0.29345042558E+01  0.43022810209E+02  0.13020744454E+02  0.45045680144E+02  0.00000000000E+00 0. -1.
         11    1    3    3    0    0  0.11765383094E+01 -0.32777725441E+01  0.76053498863E+00  0.35646106343E+01  0.51100000000E-03 0.  1.
        -11    1    3    3    0    0 -0.14358303504E+01 -0.23451093713E+01 -0.47079316276E+00  0.27897658005E+01  0.51100000000E-03 0. -1.
        -12    1    3    3    0    0 -0.26752122148E+01 -0.37399928293E+02 -0.13310486280E+02  0.39787943422E+02  0.00000000000E+00 0.  1.
</event>
<event>
 7    1  0.2312612E-008  0.4614232E+02  0.7816164E-02  0.1320468E+00
        -11   -1    0    0    0    0  0.00000000000E+00  0.00000000000E+00  0.45593999997E+02  0.45594000000E+02  0.51100000000E-03 0.  1.
         11   -1    0    0    0    0 -0.00000000000E+00 -0.00000000000E+00 -0.45593999997E+02  0.45594000000E+02  0.51100000000E-03 0. -1.
    9900012    2    1    2    0    0 -0.41048997661E+02  0.14386315980E+02  0.11710138080E+02  0.46142316185E+02  0.99999856280E+01 0.  0.
         12    1    1    2    0    0  0.41048997661E+02 -0.14386315980E+02 -0.11710138080E+02  0.45045683815E+02  0.00000000000E+00 0. -1.
         11    1    3    3    0    0 -0.14822726289E+02  0.67486984589E+01  0.26965783800E+01  0.16508472998E+02  0.51100000000E-03 0. -1.
        -11    1    3    3    0    0 -0.17031243660E+02  0.26874019430E+01  0.27592549437E+01  0.17461353840E+02  0.51100000000E-03 0.  1.
         12    1    3    3    0    0 -0.91950277126E+01  0.49502155785E+01  0.62543047566E+01  0.12172489347E+02  0.00000000000E+00 0. -1.
</event>
<event>
 7    1  0.2312612E-008  0.4614232E+02  0.7816164E-02  0.1320468E+00
        -11   -1    0    0    0    0  0.00000000000E+00  0.00000000000E+00  0.45593999997E+02  0.45594000000E+02  0.51100000000E-03 0.  1.
         11   -1    0    0    0    0 -0.00000000000E+00 -0.00000000000E+00 -0.45593999997E+02  0.45594000000E+02  0.51100000000E-03 0. -1.
    9900012    2    1    2    0    0 -0.24915360654E+02 -0.36847509052E+02 -0.71133219354E+01  0.46142317978E+02  0.10000001979E+02 0.  0.
         12    1    1    2    0    0  0.24915360654E+02  0.36847509052E+02  0.71133219354E+01  0.45045682022E+02  0.00000000000E+00 0. -1.
         11    1    3    3    0    0 -0.45597432529E+01 -0.13575053521E+02 -0.12078334260E+01  0.14371228148E+02  0.51100000000E-03 0.  1.
        -11    1    3    3    0    0 -0.11740151724E+01 -0.24147468962E+01  0.47007448370E+00  0.27258548162E+01  0.51100000000E-03 0. -1.
        -12    1    3    3    0    0 -0.19181602228E+02 -0.20857708635E+02 -0.63755629932E+01  0.29045235014E+02  0.00000000000E+00 0.  1.
</event>
<event>
 7    1  0.2312612E-008  0.4614231E+02  0.7816164E-02  0.1320468E+00
        -11   -1    0    0    0    0  0.00000000000E+00  0.00000000000E+00  0.45593999997E+02  0.45594000000E+02  0.51100000000E-03 0.  1.
         11   -1    0    0    0    0 -0.00000000000E+00 -0.00000000000E+00 -0.45593999997E+02  0.45594000000E+02  0.51100000000E-03 0. -1.
    9900012    2    1    2    0    0  0.24258407555E+02  0.28620080922E+02  0.24930591940E+02  0.46142314484E+02  0.99999701180E+01 0.  0.
         12    1    1    2    0    0 -0.24258407555E+02 -0.28620080922E+02 -0.24930591940E+02  0.45045685516E+02  0.00000000000E+00 0. -1.
         11    1    3    3    0    0  0.70911268405E+01  0.53354207415E+01  0.78545279398E+01  0.11850924174E+02  0.51100000000E-03 0. -1.
        -11    1    3    3    0    0  0.17217978653E+02  0.20871079027E+02  0.16831978460E+02  0.31864968661E+02  0.51100000000E-03 0.  1.
        -12    1    3    3    0    0 -0.50697938655E-01  0.24135811540E+01  0.24408554053E+00  0.24264216491E+01  0.00000000000E+00 0.  1.
</event>
<event>
 7    1  0.2312612E-008  0.4614232E+02  0.7816164E-02  0.1320468E+00
        -11   -1    0    0    0    0  0.00000000000E+00  0.00000000000E+00  0.45593999997E+02  0.45594000000E+02  0.51100000000E-03 0. -1.
         11   -1    0    0    0    0 -0.00000000000E+00 -0.00000000000E+00 -0.45593999997E+02  0.45594000000E+02  0.51100000000E-03 0.  1.
    9900012    2    1    2    0    0 -0.98269821252E+01  0.43292585802E+02  0.76351749504E+01  0.46142318080E+02  0.10000002904E+02 0.  0.
         12    1    1    2    0    0  0.98269821252E+01 -0.43292585802E+02 -0.76351749504E+01  0.45045681920E+02  0.00000000000E+00 0. -1.
         11    1    3    3    0    0  0.15588988037E+01  0.11578714005E+02  0.11734285961E+01  0.11741963993E+02  0.51100000000E-03 0. -1.
        -11    1    3    3    0    0 -0.18211027059E+00  0.21149455210E+01  0.67307456508E+00  0.22269235144E+01  0.51100000000E-03 0.  1.
        -12    1    3    3    0    0 -0.11203770658E+02  0.29598926277E+02  0.57886717892E+01  0.32173430572E+02  0.00000000000E+00 0.  1.
</event>
<event>
 7    1  0.2312612E-008  0.4614232E+02  0.7816164E-02  0.1320468E+00
        -11   -1    0    0    0    0  0.00000000000E+00  0.00000000000E+00  0.45593999997E+02  0.45594000000E+02  0.51100000000E-03 0.  1.
         11   -1    0    0    0    0 -0.00000000000E+00 -0.00000000000E+00 -0.45593999997E+02  0.45594000000E+02  0.51100000000E-03 0. -1.
    9900012    2    1    2    0    0  0.94545758711E+01 -0.25532513092E+02  0.35886142228E+02  0.46142318368E+02  0.10000005531E+02 0.  0.
         12    1    1    2    0    0 -0.94545758711E+01  0.25532513092E+02 -0.35886142228E+02  0.45045681632E+02  0.00000000000E+00 0. -1.
         11    1    3    3    0    0  0.50142994367E+01 -0.41262343464E+01  0.11719145590E+02  0.13398036511E+02  0.51100000000E-03 0.  1.
        -11    1    3    3    0    0  0.46828420712E-01 -0.65404285868E+01  0.61689316389E+01  0.89908351574E+01  0.51100000000E-03 0. -1.
         12    1    3    3    0    0  0.43934480137E+01 -0.14865850158E+02  0.17998064999E+02  0.23753446699E+02  0.00000000000E+00 0. -1.
</event>
<event>
 7    1  0.2312612E-008  0.4614232E+02  0.7816164E-02  0.1320468E+00
        -11   -1    0    0    0    0  0.00000000000E+00  0.00000000000E+00  0.45593999997E+02  0.45594000000E+02  0.51100000000E-03 0.  1.
         11   -1    0    0    0    0 -0.00000000000E+00 -0.00000000000E+00 -0.45593999997E+02  0.45594000000E+02  0.51100000000E-03 0. -1.
    9900012    2    1    2    0    0  0.17755491695E+02 -0.40570316381E+02  0.82404797777E+01  0.46142316926E+02  0.99999923887E+01 0.  0.
         12    1    1    2    0    0 -0.17755491695E+02  0.40570316381E+02 -0.82404797777E+01  0.45045683074E+02  0.00000000000E+00 0. -1.
         11    1    3    3    0    0  0.41154152335E+01 -0.66086515718E+01  0.13392204239E+01  0.78996474444E+01  0.51100000000E-03 0. -1.
        -11    1    3    3    0    0  0.82140792588E+01 -0.95869537853E+01  0.17466242403E+01  0.12744860825E+02  0.51100000000E-03 0.  1.
         12    1    3    3    0    0  0.54259972024E+01 -0.24374711024E+02  0.51546351135E+01  0.25497808657E+02  0.00000000000E+00 0. -1.
</event>
<event>
 7    1  0.2312612E-008  0.4614232E+02  0.7816164E-02  0.1320468E+00
        -11   -1    0    0    0    0  0.00000000000E+00  0.00000000000E+00  0.45593999997E+02  0.45594000000E+02  0.51100000000E-03 0.  1.
         11   -1    0    0    0    0 -0.00000000000E+00 -0.00000000000E+00 -0.45593999997E+02  0.45594000000E+02  0.51100000000E-03 0. -1.
    9900012    2    1    2    0    0  0.12017117596E+02 -0.31029623675E+02  0.30362227461E+02  0.46142317442E+02  0.99999970916E+01 0.  0.
         12    1    1    2    0    0 -0.12017117596E+02  0.31029623675E+02 -0.30362227461E+02  0.45045682558E+02  0.00000000000E+00 0. -1.
         11    1    3    3    0    0  0.58914236569E+01 -0.89632196285E+01  0.11548477531E+02  0.15761202757E+02  0.51100000000E-03 0. -1.
        -11    1    3    3    0    0  0.23536471579E+01 -0.12322994082E+02  0.14232974588E+02  0.18972965081E+02  0.51100000000E-03 0.  1.
         12    1    3    3    0    0  0.37720467816E+01 -0.97434099639E+01  0.45807753426E+01  0.11408149604E+02  0.00000000000E+00 0. -1.
</event>
<event>
 7    1  0.2312612E-008  0.4614232E+02  0.7816164E-02  0.1320468E+00
        -11   -1    0    0    0    0  0.00000000000E+00  0.00000000000E+00  0.45593999997E+02  0.45594000000E+02  0.51100000000E-03 0.  1.
         11   -1    0    0    0    0 -0.00000000000E+00 -0.00000000000E+00 -0.45593999997E+02  0.45594000000E+02  0.51100000000E-03 0. -1.
    9900012    2    1    2    0    0 -0.37037547858E+02 -0.45188950754E+01  0.25237137806E+02  0.46142317758E+02  0.99999999726E+01 0.  0.
         12    1    1    2    0    0  0.37037547858E+02  0.45188950754E+01 -0.25237137806E+02  0.45045682242E+02  0.00000000000E+00 0. -1.
         11    1    3    3    0    0 -0.11116603008E+01  0.26603238569E+00 -0.14337283230E+00  0.11520060264E+01  0.51100000000E-03 0. -1.
        -11    1    3    3    0    0 -0.25475243771E+01  0.33479971109E+00 -0.27092548294E+00  0.25836741623E+01  0.51100000000E-03 0.  1.
        -12    1    3    3    0    0 -0.33378363180E+02 -0.51197271722E+01  0.25651436121E+02  0.42406637569E+02  0.00000000000E+00 0.  1.
</event>
<event>
 7    1  0.2312612E-008  0.4614232E+02  0.7816164E-02  0.1320468E+00
        -11   -1    0    0    0    0  0.00000000000E+00  0.00000000000E+00  0.45593999997E+02  0.45594000000E+02  0.51100000000E-03 0.  1.
         11   -1    0    0    0    0 -0.00000000000E+00 -0.00000000000E+00 -0.45593999997E+02  0.45594000000E+02  0.51100000000E-03 0. -1.
    9900012    2    1    2    0    0  0.15535165630E+02  0.12298105126E+02  0.40454032416E+02  0.46142317637E+02  0.99999988691E+01 0.  0.
         12    1    1    2    0    0 -0.15535165630E+02 -0.12298105126E+02 -0.40454032416E+02  0.45045682363E+02  0.00000000000E+00 0. -1.
         11    1    3    3    0    0 -0.14633199038E-01  0.24130605857E+00 -0.29085645073E+00  0.37820692810E+00  0.51100000000E-03 0. -1.
        -11    1    3    3    0    0  0.30244386674E+01  0.61453001398E+01  0.11095576614E+02  0.13039316075E+02  0.51100000000E-03 0.  1.
        -12    1    3    3    0    0  0.12525360161E+02  0.59114989277E+01  0.29649312253E+02  0.32724794633E+02  0.00000000000E+00 0.  1.
</event>
<event>
 7    1  0.2312612E-008  0.4614232E+02  0.7816164E-02  0.1320468E+00
        -11   -1    0    0    0    0  0.00000000000E+00  0.00000000000E+00  0.45593999997E+02  0.45594000000E+02  0.51100000000E-03 0.  1.
         11   -1    0    0    0    0 -0.00000000000E+00 -0.00000000000E+00 -0.45593999997E+02  0.45594000000E+02  0.51100000000E-03 0. -1.
    9900012    2    1    2    0    0  0.74487134908E+01  0.25923728835E+02  0.36077559151E+02  0.46142319589E+02  0.10000016669E+02 0.  0.
         12    1    1    2    0    0 -0.74487134908E+01 -0.25923728835E+02 -0.36077559151E+02  0.45045680411E+02  0.00000000000E+00 0. -1.
         11    1    3    3    0    0  0.28220969338E+01  0.99286415130E+01  0.71257220601E+01  0.12542649981E+02  0.51100000000E-03 0. -1.
        -11    1    3    3    0    0  0.69788462417E+00  0.81838621491E+01  0.15785737019E+02  0.17794722142E+02  0.51100000000E-03 0.  1.
        -12    1    3    3    0    0  0.39287319329E+01  0.78112251725E+01  0.13166100073E+02  0.15804947467E+02  0.00000000000E+00 0.  1.
</event>
<event>
 7    1  0.2312612E-008  0.4614231E+02  0.7816164E-02  0.1320468E+00
        -11   -1    0    0    0    0  0.00000000000E+00  0.00000000000E+00  0.45593999997E+02  0.45594000000E+02  0.51100000000E-03 0.  1.
         11   -1    0    0    0    0 -0.00000000000E+00 -0.00000000000E+00 -0.45593999997E+02  0.45594000000E+02  0.51100000000E-03 0. -1.
    9900012    2    1    2    0    0 -0.19569490182E+02 -0.39051492261E+02  0.11005895945E+02  0.46142314975E+02  0.99999745965E+01 0.  0.
         12    1    1    2    0    0  0.19569490182E+02  0.39051492261E+02 -0.11005895945E+02  0.45045685025E+02  0.00000000000E+00 0. -1.
         11    1    3    3    0    0 -0.88374642495E+01 -0.15765329077E+02  0.71380360686E+01  0.19431879334E+02  0.51100000000E-03 0. -1.
        -11    1    3    3    0    0 -0.91136675244E+01 -0.14975195790E+02  0.32880208205E+00  0.17533497534E+02  0.51100000000E-03 0.  1.
         12    1    3    3    0    0 -0.16183584083E+01 -0.83109673939E+01  0.35390577946E+01  0.91769381078E+01  0.00000000000E+00 0. -1.
</event>
<event>
 7    1  0.2312612E-008  0.4614232E+02  0.7816164E-02  0.1320468E+00
        -11   -1    0    0    0    0  0.00000000000E+00  0.00000000000E+00  0.45593999997E+02  0.45594000000E+02  0.51100000000E-03 0.  1.
         11   -1    0    0    0    0 -0.00000000000E+00 -0.00000000000E+00 -0.45593999997E+02  0.45594000000E+02  0.51100000000E-03 0. -1.
    9900012    2    1    2    0    0  0.31151905889E+02  0.75539939993E+01  0.31648213668E+02  0.46142317696E+02  0.99999994079E+01 0.  0.
         12    1    1    2    0    0 -0.31151905889E+02 -0.75539939993E+01 -0.31648213668E+02  0.45045682304E+02  0.00000000000E+00 0. -1.
         11    1    3    3    0    0  0.73931291398E+01  0.40129749181E+01  0.12101811577E+02  0.14738255320E+02  0.51100000000E-03 0. -1.
        -11    1    3    3    0    0  0.19733069491E+02  0.41476820867E+01  0.18061489969E+02  0.27070550759E+02  0.51100000000E-03 0.  1.
         12    1    3    3    0    0  0.40257072575E+01 -0.60666300543E+00  0.14849121222E+01  0.43335116172E+01  0.00000000000E+00 0. -1.
</event>
<event>
 7    1  0.2312612E-008  0.4614232E+02  0.7816164E-02  0.1320468E+00
        -11   -1    0    0    0    0  0.00000000000E+00  0.00000000000E+00  0.45593999997E+02  0.45594000000E+02  0.51100000000E-03 0.  1.
         11   -1    0    0    0    0 -0.00000000000E+00 -0.00000000000E+00 -0.45593999997E+02  0.45594000000E+02  0.51100000000E-03 0. -1.
    9900012    2    1    2    0    0  0.42257339769E+01  0.43740026750E+02  0.99028665102E+01  0.46142317267E+02  0.99999954937E+01 0.  0.
         12    1    1    2    0    0 -0.42257339769E+01 -0.43740026750E+02 -0.99028665102E+01  0.45045682733E+02  0.00000000000E+00 0. -1.
         11    1    3    3    0    0  0.33894772027E+01  0.22241939731E+02  0.56216664339E+01  0.23190419842E+02  0.51100000000E-03 0. -1.
        -11    1    3    3    0    0  0.31417238268E+01  0.18072665503E+02  0.42179798306E+01  0.18822407421E+02  0.51100000000E-03 0.  1.
         12    1    3    3    0    0 -0.23054670526E+01  0.34254215161E+01  0.63220245706E-01  0.41294900040E+01  0.00000000000E+00 0. -1.
</event>
<event>
 7    1  0.2312612E-008  0.4614232E+02  0.7816164E-02  0.1320468E+00
        -11   -1    0    0    0    0  0.00000000000E+00  0.00000000000E+00  0.45593999997E+02  0.45594000000E+02  0.51100000000E-03 0. -1.
         11   -1    0    0    0    0 -0.00000000000E+00 -0.00000000000E+00 -0.45593999997E+02  0.45594000000E+02  0.51100000000E-03 0.  1.
    9900012    2    1    2    0    0 -0.28067905719E+02  0.35087953376E+02 -0.31845851911E+01  0.46142318893E+02  0.10000010318E+02 0.  0.
         12    1    1    2    0    0  0.28067905719E+02 -0.35087953376E+02  0.31845851911E+01  0.45045681107E+02  0.00000000000E+00 0. -1.
         11    1    3    3    0    0 -0.45648572089E+01  0.66574990912E+01  0.12838228184E+01  0.81736415860E+01  0.51100000000E-03 0. -1.
        -11    1    3    3    0    0 -0.70350348055E+01  0.89922541234E+01  0.22156447108E+01  0.11630194783E+02  0.51100000000E-03 0.  1.
         12    1    3    3    0    0 -0.16468013704E+02  0.19438200162E+02 -0.66840527203E+01  0.26338482524E+02  0.00000000000E+00 0. -1.
</event>
<event>
 7    1  0.2312612E-008  0.4614232E+02  0.7816164E-02  0.1320468E+00
        -11   -1    0    0    0    0  0.00000000000E+00  0.00000000000E+00  0.45593999997E+02  0.45594000000E+02  0.51100000000E-03 0.  1.
         11   -1    0    0    0    0 -0.00000000000E+00 -0.00000000000E+00 -0.45593999997E+02  0.45594000000E+02  0.51100000000E-03 0. -1.
    9900012    2    1    2    0    0  0.22371444589E+01 -0.12516234226E+02  0.43214029908E+02  0.46142319681E+02  0.10000017504E+02 0.  0.
         12    1    1    2    0    0 -0.22371444589E+01  0.12516234226E+02 -0.43214029908E+02  0.45045680319E+02  0.00000000000E+00 0. -1.
         11    1    3    3    0    0 -0.38294898913E+00  0.63193629198E+00  0.37382025173E+00  0.82809132776E+00  0.51100000000E-03 0. -1.
        -11    1    3    3    0    0  0.17723110307E+01 -0.75332825833E+00  0.28581639614E+01  0.34464026673E+01  0.51100000000E-03 0.  1.
        -12    1    3    3    0    0  0.84778241736E+00 -0.12394842260E+02  0.39982045695E+02  0.41867825686E+02  0.00000000000E+00 0.  1.
</event>
<event>
 7    1  0.2312612E-008  0.4614232E+02  0.7816164E-02  0.1320468E+00
        -11   -1    0    0    0    0  0.00000000000E+00  0.00000000000E+00  0.45593999997E+02  0.45594000000E+02  0.51100000000E-03 0.  1.
         11   -1    0    0    0    0 -0.00000000000E+00 -0.00000000000E+00 -0.45593999997E+02  0.45594000000E+02  0.51100000000E-03 0. -1.
    9900012    2    1    2    0    0  0.27167504443E+01  0.23989466799E+02  0.38029438461E+02  0.46142318298E+02  0.10000004900E+02 0.  0.
         12    1    1    2    0    0 -0.27167504443E+01 -0.23989466799E+02 -0.38029438461E+02  0.45045681702E+02  0.00000000000E+00 0. -1.
         11    1    3    3    0    0 -0.11504148691E+01  0.24890987353E+01  0.64732074198E+01  0.70300413545E+01  0.51100000000E-03 0. -1.
        -11    1    3    3    0    0 -0.16955273580E+01  0.44662578049E+01  0.99854803798E+01  0.11069421416E+02  0.51100000000E-03 0.  1.
        -12    1    3    3    0    0  0.55626926714E+01  0.17034110259E+02  0.21570750662E+02  0.28042855528E+02  0.00000000000E+00 0.  1.
</event>
<event>
 7    1  0.2312612E-008  0.4614232E+02  0.7816164E-02  0.1320468E+00
        -11   -1    0    0    0    0  0.00000000000E+00  0.00000000000E+00  0.45593999997E+02  0.45594000000E+02  0.51100000000E-03 0. -1.
         11   -1    0    0    0    0 -0.00000000000E+00 -0.00000000000E+00 -0.45593999997E+02  0.45594000000E+02  0.51100000000E-03 0.  1.
    9900012    2    1    2    0    0  0.24041032775E+02  0.25986298850E+02 -0.27854163660E+02  0.46142318542E+02  0.10000007125E+02 0.  0.
         12    1    1    2    0    0 -0.24041032775E+02 -0.25986298850E+02  0.27854163660E+02  0.45045681458E+02  0.00000000000E+00 0. -1.
         11    1    3    3    0    0  0.30158480078E+01  0.58107887067E+01 -0.80232433991E+01  0.10355338696E+02  0.51100000000E-03 0. -1.
        -11    1    3    3    0    0  0.12717554856E+02  0.79139276911E+01 -0.10036033258E+02  0.18030208452E+02  0.51100000000E-03 0.  1.
        -12    1    3    3    0    0  0.83076299114E+01  0.12261582452E+02 -0.97948870023E+01  0.17756771395E+02  0.00000000000E+00 0.  1.
</event>
<event>
 7    1  0.2312612E-008  0.4614232E+02  0.7816164E-02  0.1320468E+00
        -11   -1    0    0    0    0  0.00000000000E+00  0.00000000000E+00  0.45593999997E+02  0.45594000000E+02  0.51100000000E-03 0. -1.
         11   -1    0    0    0    0 -0.00000000000E+00 -0.00000000000E+00 -0.45593999997E+02  0.45594000000E+02  0.51100000000E-03 0.  1.
    9900012    2    1    2    0    0  0.20638722586E+02  0.34585799953E+02 -0.20173722127E+02  0.46142317712E+02  0.99999995490E+01 0.  0.
         12    1    1    2    0    0 -0.20638722586E+02 -0.34585799953E+02  0.20173722127E+02  0.45045682288E+02  0.00000000000E+00 0. -1.
         11    1    3    3    0    0  0.49132544699E+01  0.86415618659E+01 -0.25298383912E+01  0.10257521314E+02  0.51100000000E-03 0. -1.
        -11    1    3    3    0    0  0.56065182607E+01  0.14051535488E+02 -0.54782905457E+01  0.16090070358E+02  0.51100000000E-03 0.  1.
         12    1    3    3    0    0  0.10118949856E+02  0.11892702599E+02 -0.12165593190E+02  0.19794726039E+02  0.00000000000E+00 0. -1.
</event>
<event>
 7    1  0.2312612E-008  0.4614232E+02  0.7816164E-02  0.1320468E+00
        -11   -1    0    0    0    0  0.00000000000E+00  0.00000000000E+00  0.45593999997E+02  0.45594000000E+02  0.51100000000E-03 0. -1.
         11   -1    0    0    0    0 -0.00000000000E+00 -0.00000000000E+00 -0.45593999997E+02  0.45594000000E+02  0.51100000000E-03 0.  1.
    9900012    2    1    2    0    0 -0.41213612397E+02 -0.18012766747E+02 -0.24681461413E+01  0.46142319207E+02  0.10000013188E+02 0.  0.
         12    1    1    2    0    0  0.41213612397E+02  0.18012766747E+02  0.24681461413E+01  0.45045680793E+02  0.00000000000E+00 0. -1.
         11    1    3    3    0    0 -0.20843143196E+01 -0.86121752230E+00 -0.20401192946E+01  0.30410769147E+01  0.51100000000E-03 0. -1.
        -11    1    3    3    0    0 -0.13393224471E+02 -0.69189509360E+01 -0.26914765964E+01  0.15313209667E+02  0.51100000000E-03 0.  1.
        -12    1    3    3    0    0 -0.25736073607E+02 -0.10232598289E+02  0.22634497496E+01  0.27788032626E+02  0.00000000000E+00 0.  1.
</event>
<event>
 7    1  0.2312612E-008  0.4614232E+02  0.7816164E-02  0.1320468E+00
        -11   -1    0    0    0    0  0.00000000000E+00  0.00000000000E+00  0.45593999997E+02  0.45594000000E+02  0.51100000000E-03 0.  1.
         11   -1    0    0    0    0 -0.00000000000E+00 -0.00000000000E+00 -0.45593999997E+02  0.45594000000E+02  0.51100000000E-03 0. -1.
    9900012    2    1    2    0    0 -0.14442881764E+02 -0.24964280852E+02  0.34602045301E+02  0.46142315511E+02  0.99999794835E+01 0.  0.
         12    1    1    2    0    0  0.14442881764E+02  0.24964280852E+02 -0.34602045301E+02  0.45045684489E+02  0.00000000000E+00 0. -1.
         11    1    3    3    0    0 -0.31734920645E+01 -0.55843953363E+01  0.53105692960E+01  0.83341868028E+01  0.51100000000E-03 0. -1.
        -11    1    3    3    0    0 -0.68794393051E+01 -0.67804657987E+01  0.17561887686E+02  0.20042986328E+02  0.51100000000E-03 0.  1.
         12    1    3    3    0    0 -0.43899503941E+01 -0.12599419717E+02  0.11729588318E+02  0.17765142380E+02  0.00000000000E+00 0. -1.
</event>
<event>
 7    1  0.2312612E-008  0.4614232E+02  0.7816164E-02  0.1320468E+00
        -11   -1    0    0    0    0  0.00000000000E+00  0.00000000000E+00  0.45593999997E+02  0.45594000000E+02  0.51100000000E-03 0.  1.
         11   -1    0    0    0    0 -0.00000000000E+00 -0.00000000000E+00 -0.45593999997E+02  0.45594000000E+02  0.51100000000E-03 0. -1.
    9900012    2    1    2    0    0 -0.44401350959E+02  0.62143062532E+01 -0.43607152692E+01  0.46142318665E+02  0.10000008246E+02 0.  0.
         12    1    1    2    0    0  0.44401350959E+02 -0.62143062532E+01  0.43607152692E+01  0.45045681335E+02  0.00000000000E+00 0. -1.
         11    1    3    3    0    0 -0.18355357561E+01 -0.15883656808E+01 -0.84091772535E+00  0.25688985830E+01  0.51100000000E-03 0. -1.
        -11    1    3    3    0    0 -0.24940413912E+02  0.29850217454E+01 -0.11064097208E+01  0.25142767223E+02  0.51100000000E-03 0.  1.
        -12    1    3    3    0    0 -0.17625401292E+02  0.48176501886E+01 -0.24133878231E+01  0.18430652859E+02  0.00000000000E+00 0.  1.
</event>
<event>
 7    1  0.2312612E-008  0.4614232E+02  0.7816164E-02  0.1320468E+00
        -11   -1    0    0    0    0  0.00000000000E+00  0.00000000000E+00  0.45593999997E+02  0.45594000000E+02  0.51100000000E-03 0.  1.
         11   -1    0    0    0    0 -0.00000000000E+00 -0.00000000000E+00 -0.45593999997E+02  0.45594000000E+02  0.51100000000E-03 0. -1.
    9900012    2    1    2    0    0  0.42097676524E+02 -0.12422075986E+01  0.15979864038E+02  0.46142317598E+02  0.99999985095E+01 0.  0.
         12    1    1    2    0    0 -0.42097676524E+02  0.12422075986E+01 -0.15979864038E+02  0.45045682402E+02  0.00000000000E+00 0. -1.
         11    1    3    3    0    0  0.79552117801E+01 -0.17132873633E+01  0.98610248661E+00  0.81971425772E+01  0.51100000000E-03 0. -1.
        -11    1    3    3    0    0  0.29508556068E+02 -0.17215883591E+01  0.11383220549E+02  0.31674855296E+02  0.51100000000E-03 0.  1.
        -12    1    3    3    0    0  0.46339086756E+01  0.21926681238E+01  0.36105410026E+01  0.62703197244E+01  0.00000000000E+00 0.  1.
</event>
<event>
 7    1  0.2312612E-008  0.4614232E+02  0.7816164E-02  0.1320468E+00
        -11   -1    0    0    0    0  0.00000000000E+00  0.00000000000E+00  0.45593999997E+02  0.45594000000E+02  0.51100000000E-03 0. -1.
         11   -1    0    0    0    0 -0.00000000000E+00 -0.00000000000E+00 -0.45593999997E+02  0.45594000000E+02  0.51100000000E-03 0.  1.
    9900012    2    1    2    0    0 -0.40444704604E+02  0.32468766284E+01  0.19565204771E+02  0.46142316788E+02  0.99999911220E+01 0.  0.
         12    1    1    2    0    0  0.40444704604E+02 -0.32468766284E+01 -0.19565204771E+02  0.45045683212E+02  0.00000000000E+00 0. -1.
         11    1    3    3    0    0 -0.14715900140E+02  0.34132648246E+01  0.55827247179E+01  0.16105120591E+02  0.51100000000E-03 0. -1.
        -11    1    3    3    0    0 -0.12811249134E+02  0.25679164024E+01  0.92584565681E+01  0.16013785228E+02  0.51100000000E-03 0.  1.
        -12    1    3    3    0    0 -0.12917555329E+02 -0.27343045985E+01  0.47240234849E+01  0.14023410969E+02  0.00000000000E+00 0.  1.
</event>
<event>
 7    1  0.2312612E-008  0.4614232E+02  0.7816164E-02  0.1320468E+00
        -11   -1    0    0    0    0  0.00000000000E+00  0.00000000000E+00  0.45593999997E+02  0.45594000000E+02  0.51100000000E-03 0.  1.
         11   -1    0    0    0    0 -0.00000000000E+00 -0.00000000000E+00 -0.45593999997E+02  0.45594000000E+02  0.51100000000E-03 0. -1.
    9900012    2    1    2    0    0 -0.33162689149E+01  0.84958085429E+01  0.44112776785E+02  0.46142317876E+02  0.10000001045E+02 0.  0.
         12    1    1    2    0    0  0.33162689149E+01 -0.84958085429E+01 -0.44112776785E+02  0.45045682124E+02  0.00000000000E+00 0. -1.
         11    1    3    3    0    0 -0.20511893333E+01  0.15979234844E+01  0.44655590940E+01  0.51673934848E+01  0.51100000000E-03 0.  1.
        -11    1    3    3    0    0  0.30667901285E+01  0.33774231035E+01  0.21917473642E+02  0.22387224920E+02  0.51100000000E-03 0. -1.
         12    1    3    3    0    0 -0.43318697100E+01  0.35204619550E+01  0.17729744049E+02  0.18587699471E+02  0.00000000000E+00 0. -1.
</event>
<event>
 7    1  0.2312612E-008  0.4614232E+02  0.7816164E-02  0.1320468E+00
        -11   -1    0    0    0    0  0.00000000000E+00  0.00000000000E+00  0.45593999997E+02  0.45594000000E+02  0.51100000000E-03 0. -1.
         11   -1    0    0    0    0 -0.00000000000E+00 -0.00000000000E+00 -0.45593999997E+02  0.45594000000E+02  0.51100000000E-03 0.  1.
    9900012    2    1    2    0    0 -0.36844694045E+02  0.24672602944E+02  0.79274570031E+01  0.46142318855E+02  0.10000009971E+02 0.  0.
         12    1    1    2    0    0  0.36844694045E+02 -0.24672602944E+02 -0.79274570031E+01  0.45045681145E+02  0.00000000000E+00 0. -1.
         11    1    3    3    0    0 -0.50340064638E+01  0.25539912979E+01 -0.15522837832E+01  0.58543725395E+01  0.51100000000E-03 0. -1.
        -11    1    3    3    0    0 -0.57287464911E+01  0.46811020601E+01 -0.36061854682E+00  0.74068413547E+01  0.51100000000E-03 0.  1.
        -12    1    3    3    0    0 -0.26081941090E+02  0.17437509586E+02  0.98403593331E+01  0.32881104960E+02  0.00000000000E+00 0.  1.
</event>
<event>
 7    1  0.2312612E-008  0.4614232E+02  0.7816164E-02  0.1320468E+00
        -11   -1    0    0    0    0  0.00000000000E+00  0.00000000000E+00  0.45593999997E+02  0.45594000000E+02  0.51100000000E-03 0. -1.
         11   -1    0    0    0    0 -0.00000000000E+00 -0.00000000000E+00 -0.45593999997E+02  0.45594000000E+02  0.51100000000E-03 0.  1.
    9900012    2    1    2    0    0 -0.23386488343E+02 -0.10566885193E+02 -0.37020623541E+02  0.46142317998E+02  0.10000002156E+02 0.  0.
         12    1    1    2    0    0  0.23386488343E+02  0.10566885193E+02  0.37020623541E+02  0.45045682002E+02  0.00000000000E+00 0. -1.
         11    1    3    3    0    0 -0.83932575921E+01 -0.44322459459E+01 -0.18204340996E+02  0.20530212091E+02  0.51100000000E-03 0.  1.
        -11    1    3    3    0    0 -0.10376405394E+01 -0.27735606371E+01 -0.40643179087E+01  0.50287192028E+01  0.51100000000E-03 0. -1.
        -12    1    3    3    0    0 -0.13955590211E+02 -0.33610786103E+01 -0.14751964636E+02  0.20583386704E+02  0.00000000000E+00 0.  1.
</event>
<event>
 7    1  0.2312612E-008  0.4614232E+02  0.7816164E-02  0.1320468E+00
        -11   -1    0    0    0    0  0.00000000000E+00  0.00000000000E+00  0.45593999997E+02  0.45594000000E+02  0.51100000000E-03 0.  1.
         11   -1    0    0    0    0 -0.00000000000E+00 -0.00000000000E+00 -0.45593999997E+02  0.45594000000E+02  0.51100000000E-03 0. -1.
    9900012    2    1    2    0    0  0.17320621582E+02  0.18924985666E+02  0.37026402716E+02  0.46142317493E+02  0.99999975566E+01 0.  0.
         12    1    1    2    0    0 -0.17320621582E+02 -0.18924985666E+02 -0.37026402716E+02  0.45045682507E+02  0.00000000000E+00 0. -1.
         11    1    3    3    0    0  0.23367253633E+01  0.52431724881E+01  0.57165437440E+01  0.81012354491E+01  0.51100000000E-03 0.  1.
        -11    1    3    3    0    0  0.30317532182E+01  0.13785724492E+00  0.20770504287E+01  0.36775903715E+01  0.51100000000E-03 0. -1.
         12    1    3    3    0    0  0.11952143000E+02  0.13543955933E+02  0.29232808543E+02  0.34363491673E+02  0.00000000000E+00 0. -1.
</event>
<event>
 7    1  0.2312612E-008  0.4614232E+02  0.7816164E-02  0.1320468E+00
        -11   -1    0    0    0    0  0.00000000000E+00  0.00000000000E+00  0.45593999997E+02  0.45594000000E+02  0.51100000000E-03 0.  1.
         11   -1    0    0    0    0 -0.00000000000E+00 -0.00000000000E+00 -0.45593999997E+02  0.45594000000E+02  0.51100000000E-03 0. -1.
    9900012    2    1    2    0    0 -0.12338446437E+02 -0.33494482001E+02  0.27477190279E+02  0.46142316848E+02  0.99999916722E+01 0.  0.
         12    1    1    2    0    0  0.12338446437E+02  0.33494482001E+02 -0.27477190279E+02  0.45045683152E+02  0.00000000000E+00 0. -1.
         11    1    3    3    0    0 -0.13575442997E+00 -0.16547993646E+01  0.38146624234E+01  0.41603413162E+01  0.51100000000E-03 0. -1.
        -11    1    3    3    0    0 -0.47975654921E+01 -0.13624995558E+02  0.13829927190E+02  0.19998100534E+02  0.51100000000E-03 0.  1.
        -12    1    3    3    0    0 -0.74051265154E+01 -0.18214687079E+02  0.98326006653E+01  0.21983874998E+02  0.00000000000E+00 0.  1.
</event>
<event>
 7    1  0.2312612E-008  0.4614231E+02  0.7816164E-02  0.1320468E+00
        -11   -1    0    0    0    0  0.00000000000E+00  0.00000000000E+00  0.45593999997E+02  0.45594000000E+02  0.51100000000E-03 0.  1.
         11   -1    0    0    0    0 -0.00000000000E+00 -0.00000000000E+00 -0.45593999997E+02  0.45594000000E+02  0.51100000000E-03 0. -1.
    9900012    2    1    2    0    0  0.18627468661E+01  0.39907354903E+02  0.20809780662E+02  0.46142314608E+02  0.99999712472E+01 0.  0.
         12    1    1    2    0    0 -0.18627468661E+01 -0.39907354903E+02 -0.20809780662E+02  0.45045685392E+02  0.00000000000E+00 0. -1.
         11    1    3    3    0    0  0.13167960686E+01  0.11318912734E+02  0.61914061509E+01  0.12968625515E+02  0.51100000000E-03 0.  1.
        -11    1    3    3    0    0  0.10826643574E+01  0.24116263311E+02  0.85363775090E+01  0.25605391218E+02  0.51100000000E-03 0. -1.
         12    1    3    3    0    0 -0.53671355997E+00  0.44721788575E+01  0.60819970023E+01  0.75682978744E+01  0.00000000000E+00 0. -1.
</event>
<event>
 7    1  0.2312612E-008  0.4614232E+02  0.7816164E-02  0.1320468E+00
        -11   -1    0    0    0    0  0.00000000000E+00  0.00000000000E+00  0.45593999997E+02  0.45594000000E+02  0.51100000000E-03 0.  1.
         11   -1    0    0    0    0 -0.00000000000E+00 -0.00000000000E+00 -0.45593999997E+02  0.45594000000E+02  0.51100000000E-03 0. -1.
    9900012    2    1    2    0    0 -0.22604388971E+02 -0.26333716682E+02  0.28717424268E+02  0.46142317725E+02  0.99999996733E+01 0.  0.
         12    1    1    2    0    0  0.22604388971E+02  0.26333716682E+02 -0.28717424268E+02  0.45045682275E+02  0.00000000000E+00 0. -1.
         11    1    3    3    0    0 -0.17250217862E+01 -0.52837829332E+01  0.15671622011E+01  0.57749510711E+01  0.51100000000E-03 0. -1.
        -11    1    3    3    0    0 -0.33101103801E+01 -0.17836752215E+01  0.41289543489E+01  0.55844957069E+01  0.51100000000E-03 0.  1.
        -12    1    3    3    0    0 -0.17569256805E+02 -0.19266258527E+02  0.23021307718E+02  0.34782870947E+02  0.00000000000E+00 0.  1.
</event>
<event>
 7    1  0.2312612E-008  0.4614232E+02  0.7816164E-02  0.1320468E+00
        -11   -1    0    0    0    0  0.00000000000E+00  0.00000000000E+00  0.45593999997E+02  0.45594000000E+02  0.51100000000E-03 0. -1.
         11   -1    0    0    0    0 -0.00000000000E+00 -0.00000000000E+00 -0.45593999997E+02  0.45594000000E+02  0.51100000000E-03 0.  1.
    9900012    2    1    2    0    0 -0.33241686469E+02 -0.15133636816E+02 -0.26364311563E+02  0.46142316446E+02  0.99999880123E+01 0.  0.
         12    1    1    2    0    0  0.33241686469E+02  0.15133636816E+02  0.26364311563E+02  0.45045683554E+02  0.00000000000E+00 0. -1.
         11    1    3    3    0    0 -0.65993359770E+01 -0.49278052041E+01 -0.77003600772E+01  0.11275196009E+02  0.51100000000E-03 0. -1.
        -11    1    3    3    0    0 -0.64701935207E+01 -0.55143958306E+01 -0.75134666005E+01  0.11345666406E+02  0.51100000000E-03 0.  1.
        -12    1    3    3    0    0 -0.20172156972E+02 -0.46914357816E+01 -0.11150484885E+02  0.23521454032E+02  0.00000000000E+00 0.  1.
</event>
<event>
 7    1  0.2312612E-008  0.4614232E+02  0.7816164E-02  0.1320468E+00
        -11   -1    0    0    0    0  0.00000000000E+00  0.00000000000E+00  0.45593999997E+02  0.45594000000E+02  0.51100000000E-03 0. -1.
         11   -1    0    0    0    0 -0.00000000000E+00 -0.00000000000E+00 -0.45593999997E+02  0.45594000000E+02  0.51100000000E-03 0.  1.
    9900012    2    1    2    0    0 -0.28434492976E+02 -0.17064616825E+02 -0.30485931975E+02  0.46142316671E+02  0.99999900604E+01 0.  0.
         12    1    1    2    0    0  0.28434492976E+02  0.17064616825E+02  0.30485931975E+02  0.45045683329E+02  0.00000000000E+00 0. -1.
         11    1    3    3    0    0 -0.38455611331E+01  0.36703571591E+00 -0.18453357439E+01  0.42811587116E+01  0.51100000000E-03 0. -1.
        -11    1    3    3    0    0 -0.17643468846E+02 -0.98642991319E+01 -0.17908025672E+02  0.27005439712E+02  0.51100000000E-03 0.  1.
         12    1    3    3    0    0 -0.69454629968E+01 -0.75673534086E+01 -0.10732570559E+02  0.14855718248E+02  0.00000000000E+00 0. -1.
</event>
<event>
 7    1  0.2312612E-008  0.4614232E+02  0.7816164E-02  0.1320468E+00
        -11   -1    0    0    0    0  0.00000000000E+00  0.00000000000E+00  0.45593999997E+02  0.45594000000E+02  0.51100000000E-03 0.  1.
         11   -1    0    0    0    0 -0.00000000000E+00 -0.00000000000E+00 -0.45593999997E+02  0.45594000000E+02  0.51100000000E-03 0. -1.
    9900012    2    1    2    0    0 -0.97209659957E+01 -0.29430215368E+02  0.32687592321E+02  0.46142318206E+02  0.10000004057E+02 0.  0.
         12    1    1    2    0    0  0.97209659957E+01  0.29430215368E+02 -0.32687592321E+02  0.45045681794E+02  0.00000000000E+00 0. -1.
         11    1    3    3    0    0 -0.81722481072E+01 -0.13622891015E+02  0.18337392049E+02  0.24261672370E+02  0.51100000000E-03 0. -1.
        -11    1    3    3    0    0 -0.14402613964E+01 -0.15366384112E+01  0.28989696790E+01  0.35832437759E+01  0.51100000000E-03 0.  1.
        -12    1    3    3    0    0 -0.10845649208E+00 -0.14270685942E+02  0.11451230593E+02  0.18297402061E+02  0.00000000000E+00 0.  1.
</event>
<event>
 7    1  0.2312612E-008  0.4614232E+02  0.7816164E-02  0.1320468E+00
        -11   -1    0    0    0    0  0.00000000000E+00  0.00000000000E+00  0.45593999997E+02  0.45594000000E+02  0.51100000000E-03 0. -1.
         11   -1    0    0    0    0 -0.00000000000E+00 -0.00000000000E+00 -0.45593999997E+02  0.45594000000E+02  0.51100000000E-03 0.  1.
    9900012    2    1    2    0    0 -0.35733176259E+02 -0.13264852081E+02 -0.24006191201E+02  0.46142318717E+02  0.10000008715E+02 0.  0.
         12    1    1    2    0    0  0.35733176259E+02  0.13264852081E+02  0.24006191201E+02  0.45045681283E+02  0.00000000000E+00 0. -1.
         11    1    3    3    0    0 -0.78892899538E+01 -0.43040183005E+01 -0.96866303656E+01  0.13213488472E+02  0.51100000000E-03 0. -1.
        -11    1    3    3    0    0 -0.16772922954E+02 -0.70245797332E+01 -0.10808405719E+02  0.21154131967E+02  0.51100000000E-03 0.  1.
        -12    1    3    3    0    0 -0.11070963352E+02 -0.19362540472E+01 -0.35111551161E+01  0.11774698277E+02  0.00000000000E+00 0.  1.
</event>
<event>
 7    1  0.2312612E-008  0.4614232E+02  0.7816164E-02  0.1320468E+00
        -11   -1    0    0    0    0  0.00000000000E+00  0.00000000000E+00  0.45593999997E+02  0.45594000000E+02  0.51100000000E-03 0.  1.
         11   -1    0    0    0    0 -0.00000000000E+00 -0.00000000000E+00 -0.45593999997E+02  0.45594000000E+02  0.51100000000E-03 0. -1.
    9900012    2    1    2    0    0 -0.16448742187E+02 -0.83535065243E+01  0.41094662094E+02  0.46142318260E+02  0.10000004553E+02 0.  0.
         12    1    1    2    0    0  0.16448742187E+02  0.83535065243E+01 -0.41094662094E+02  0.45045681740E+02  0.00000000000E+00 0. -1.
         11    1    3    3    0    0 -0.56470029099E+01 -0.14110315177E+00  0.68590086822E+01  0.88856374182E+01  0.51100000000E-03 0. -1.
        -11    1    3    3    0    0 -0.21963257550E+00  0.18808455920E+00 -0.13989927263E+00  0.32122630221E+00  0.51100000000E-03 0.  1.
        -12    1    3    3    0    0 -0.10582106702E+02 -0.84004879317E+01  0.34375552684E+02  0.36935454540E+02  0.00000000000E+00 0.  1.
</event>
<event>
 7    1  0.2312612E-008  0.4614232E+02  0.7816164E-02  0.1320468E+00
        -11   -1    0    0    0    0  0.00000000000E+00  0.00000000000E+00  0.45593999997E+02  0.45594000000E+02  0.51100000000E-03 0.  1.
         11   -1    0    0    0    0 -0.00000000000E+00 -0.00000000000E+00 -0.45593999997E+02  0.45594000000E+02  0.51100000000E-03 0. -1.
    9900012    2    1    2    0    0 -0.37219121571E+02  0.24801777493E+02  0.53593164358E+01  0.46142318187E+02  0.10000003879E+02 0.  0.
         12    1    1    2    0    0  0.37219121571E+02 -0.24801777493E+02 -0.53593164358E+01  0.45045681813E+02  0.00000000000E+00 0. -1.
         11    1    3    3    0    0  0.21365354418E+00  0.16558565695E+00 -0.49176106400E+00  0.56115563966E+00  0.51100000000E-03 0. -1.
        -11    1    3    3    0    0 -0.20758992653E+01  0.93724868311E+00 -0.96603344824E+00  0.24740682565E+01  0.51100000000E-03 0.  1.
        -12    1    3    3    0    0 -0.35356875850E+02  0.23698943153E+02  0.68171109480E+01  0.43107094290E+02  0.00000000000E+00 0.  1.
</event>
<event>
 7    1  0.2312612E-008  0.4614232E+02  0.7816164E-02  0.1320468E+00
        -11   -1    0    0    0    0  0.00000000000E+00  0.00000000000E+00  0.45593999997E+02  0.45594000000E+02  0.51100000000E-03 0.  1.
         11   -1    0    0    0    0 -0.00000000000E+00 -0.00000000000E+00 -0.45593999997E+02  0.45594000000E+02  0.51100000000E-03 0. -1.
    9900012    2    1    2    0    0 -0.27147358873E+02 -0.14506995848E+02  0.32888922129E+02  0.46142320728E+02  0.10000027054E+02 0.  0.
         12    1    1    2    0    0  0.27147358873E+02  0.14506995848E+02 -0.32888922129E+02  0.45045679272E+02  0.00000000000E+00 0. -1.
         11    1    3    3    0    0 -0.10685354204E+02 -0.70021847361E+01  0.88498040424E+01  0.15541120210E+02  0.51100000000E-03 0. -1.
        -11    1    3    3    0    0 -0.15957783820E+02 -0.66111565370E+01  0.19965628281E+02  0.26400465301E+02  0.51100000000E-03 0.  1.
         12    1    3    3    0    0 -0.50422084874E+00 -0.89365457440E+00  0.40734898056E+01  0.42007352165E+01  0.00000000000E+00 0. -1.
</event>
<event>
 7    1  0.2312612E-008  0.4614232E+02  0.7816164E-02  0.1320468E+00
        -11   -1    0    0    0    0  0.00000000000E+00  0.00000000000E+00  0.45593999997E+02  0.45594000000E+02  0.51100000000E-03 0.  1.
         11   -1    0    0    0    0 -0.00000000000E+00 -0.00000000000E+00 -0.45593999997E+02  0.45594000000E+02  0.51100000000E-03 0. -1.
    9900012    2    1    2    0    0 -0.36563819893E+02  0.21044865861E+02 -0.15789686972E+02  0.46142317422E+02  0.99999969033E+01 0.  0.
         12    1    1    2    0    0  0.36563819893E+02 -0.21044865861E+02  0.15789686972E+02  0.45045682578E+02  0.00000000000E+00 0. -1.
         11    1    3    3    0    0 -0.11677853432E+02  0.37931437176E+01 -0.58838548903E+01  0.13615430536E+02  0.51100000000E-03 0. -1.
        -11    1    3    3    0    0 -0.24094550712E+02  0.14687940794E+02 -0.96867101005E+01  0.29834800680E+02  0.51100000000E-03 0.  1.
         12    1    3    3    0    0 -0.79141574829E+00  0.25637813492E+01 -0.21912198158E+00  0.26920862051E+01  0.00000000000E+00 0. -1.
</event>
<event>
 7    1  0.2312612E-008  0.4614232E+02  0.7816164E-02  0.1320468E+00
        -11   -1    0    0    0    0  0.00000000000E+00  0.00000000000E+00  0.45593999997E+02  0.45594000000E+02  0.51100000000E-03 0. -1.
         11   -1    0    0    0    0 -0.00000000000E+00 -0.00000000000E+00 -0.45593999997E+02  0.45594000000E+02  0.51100000000E-03 0.  1.
    9900012    2    1    2    0    0  0.40497832078E+02  0.16070801014E+02 -0.11435406288E+02  0.46142316908E+02  0.99999922210E+01 0.  0.
         12    1    1    2    0    0 -0.40497832078E+02 -0.16070801014E+02  0.11435406288E+02  0.45045683092E+02  0.00000000000E+00 0. -1.
         11    1    3    3    0    0 -0.17742328598E+00 -0.88761547361E-01 -0.95158835236E+00  0.97204850093E+00  0.51100000000E-03 0. -1.
        -11    1    3    3    0    0  0.13451291218E+02  0.36138120135E+01 -0.25156903791E+01  0.14153641618E+02  0.51100000000E-03 0.  1.
         12    1    3    3    0    0  0.27223964146E+02  0.12545750547E+02 -0.79681275560E+01  0.31016626789E+02  0.00000000000E+00 0. -1.
</event>
<event>
 7    1  0.2312612E-008  0.4614232E+02  0.7816164E-02  0.1320468E+00
        -11   -1    0    0    0    0  0.00000000000E+00  0.00000000000E+00  0.45593999997E+02  0.45594000000E+02  0.51100000000E-03 0.  1.
         11   -1    0    0    0    0 -0.00000000000E+00 -0.00000000000E+00 -0.45593999997E+02  0.45594000000E+02  0.51100000000E-03 0. -1.
    9900012    2    1    2    0    0  0.39707961773E+02  0.78129075245E+01  0.19782562460E+02  0.46142317303E+02  0.99999958238E+01 0.  0.
         12    1    1    2    0    0 -0.39707961773E+02 -0.78129075245E+01 -0.19782562460E+02  0.45045682697E+02  0.00000000000E+00 0. -1.
         11    1    3    3    0    0  0.19887194339E+02  0.85528323656E+01  0.83657964762E+01  0.23208575809E+02  0.51100000000E-03 0. -1.
        -11    1    3    3    0    0  0.98595834850E+01  0.37361529639E+00  0.56180436842E+01  0.11354003258E+02  0.51100000000E-03 0.  1.
         12    1    3    3    0    0  0.99611839489E+01 -0.11135401374E+01  0.57987222994E+01  0.11579738236E+02  0.00000000000E+00 0. -1.
</event>
<event>
 7    1  0.2312612E-008  0.4614232E+02  0.7816164E-02  0.1320468E+00
        -11   -1    0    0    0    0  0.00000000000E+00  0.00000000000E+00  0.45593999997E+02  0.45594000000E+02  0.51100000000E-03 0. -1.
         11   -1    0    0    0    0 -0.00000000000E+00 -0.00000000000E+00 -0.45593999997E+02  0.45594000000E+02  0.51100000000E-03 0.  1.
    9900012    2    1    2    0    0 -0.35529827582E+02 -0.18657147024E+02 -0.20461075401E+02  0.46142318857E+02  0.10000009995E+02 0.  0.
         12    1    1    2    0    0  0.35529827582E+02  0.18657147024E+02  0.20461075401E+02  0.45045681143E+02  0.00000000000E+00 0. -1.
         11    1    3    3    0    0 -0.25929345227E+02 -0.16793371577E+02 -0.12131031552E+02  0.33189007210E+02  0.51100000000E-03 0.  1.
        -11    1    3    3    0    0 -0.62939476492E+01 -0.19388809690E+01 -0.50922198247E+01  0.83248867516E+01  0.51100000000E-03 0. -1.
        -12    1    3    3    0    0 -0.33065347053E+01  0.75105522376E-01 -0.32378240243E+01  0.46284248951E+01  0.00000000000E+00 0.  1.
</event>
<event>
 7    1  0.2312612E-008  0.4614231E+02  0.7816164E-02  0.1320468E+00
        -11   -1    0    0    0    0  0.00000000000E+00  0.00000000000E+00  0.45593999997E+02  0.45594000000E+02  0.51100000000E-03 0.  1.
         11   -1    0    0    0    0 -0.00000000000E+00 -0.00000000000E+00 -0.45593999997E+02  0.45594000000E+02  0.51100000000E-03 0. -1.
    9900012    2    1    2    0    0  0.20221076528E-01 -0.57413238627E+01  0.44678304637E+02  0.46142310819E+02  0.99999366928E+01 0.  0.
         12    1    1    2    0    0 -0.20221076528E-01  0.57413238627E+01 -0.44678304637E+02  0.45045689181E+02  0.00000000000E+00 0. -1.
         11    1    3    3    0    0  0.25337298324E+01 -0.39561922501E+01  0.16388245423E+02  0.17048338109E+02  0.51100000000E-03 0. -1.
        -11    1    3    3    0    0 -0.32731020463E+01 -0.85669666929E+00  0.70474840250E+01  0.78175544471E+01  0.51100000000E-03 0.  1.
         12    1    3    3    0    0  0.75959329042E+00 -0.92843494325E+00  0.21242575189E+02  0.21276418262E+02  0.00000000000E+00 0. -1.
</event>
<event>
 7    1  0.2312612E-008  0.4614231E+02  0.7816164E-02  0.1320468E+00
        -11   -1    0    0    0    0  0.00000000000E+00  0.00000000000E+00  0.45593999997E+02  0.45594000000E+02  0.51100000000E-03 0.  1.
         11   -1    0    0    0    0 -0.00000000000E+00 -0.00000000000E+00 -0.45593999997E+02  0.45594000000E+02  0.51100000000E-03 0. -1.
    9900012    2    1    2    0    0  0.62115072476E+01 -0.26734828031E+02  0.35718071861E+02  0.46142306426E+02  0.99998966350E+01 0.  0.
         12    1    1    2    0    0 -0.62115072476E+01  0.26734828031E+02 -0.35718071861E+02  0.45045693574E+02  0.00000000000E+00 0. -1.
         11    1    3    3    0    0  0.23821331707E+01 -0.23599496081E+01  0.22285154767E+01  0.40261895244E+01  0.51100000000E-03 0. -1.
        -11    1    3    3    0    0  0.53118368951E+01 -0.21565105380E+02  0.30679309291E+02  0.37874653795E+02  0.51100000000E-03 0.  1.
        -12    1    3    3    0    0 -0.14824628182E+01 -0.28097730426E+01  0.28102470933E+01  0.42414631065E+01  0.00000000000E+00 0.  1.
</event>
<event>
 7    1  0.2312612E-008  0.4614232E+02  0.7816164E-02  0.1320468E+00
        -11   -1    0    0    0    0  0.00000000000E+00  0.00000000000E+00  0.45593999997E+02  0.45594000000E+02  0.51100000000E-03 0. -1.
         11   -1    0    0    0    0 -0.00000000000E+00 -0.00000000000E+00 -0.45593999997E+02  0.45594000000E+02  0.51100000000E-03 0.  1.
    9900012    2    1    2    0    0 -0.10110279715E+02  0.85286018339E+01 -0.43059941873E+02  0.46142318751E+02  0.10000009022E+02 0.  0.
         12    1    1    2    0    0  0.10110279715E+02 -0.85286018339E+01  0.43059941873E+02  0.45045681249E+02  0.00000000000E+00 0. -1.
         11    1    3    3    0    0 -0.27031229720E+01 -0.18575479118E+01 -0.78854898891E+01  0.85403927953E+01  0.51100000000E-03 0. -1.
        -11    1    3    3    0    0 -0.30481802649E+01  0.65766456298E+01 -0.23115587140E+02  0.24225483272E+02  0.51100000000E-03 0.  1.
         12    1    3    3    0    0 -0.43589764780E+01  0.38095041159E+01 -0.12058864843E+02  0.13376442683E+02  0.00000000000E+00 0. -1.
</event>
<event>
 7    1  0.2312612E-008  0.4614232E+02  0.7816164E-02  0.1320468E+00
        -11   -1    0    0    0    0  0.00000000000E+00  0.00000000000E+00  0.45593999997E+02  0.45594000000E+02  0.51100000000E-03 0.  1.
         11   -1    0    0    0    0 -0.00000000000E+00 -0.00000000000E+00 -0.45593999997E+02  0.45594000000E+02  0.51100000000E-03 0. -1.
    9900012    2    1    2    0    0 -0.15334443314E+02 -0.36155975592E+02 -0.22061590417E+02  0.46142317694E+02  0.99999993842E+01 0.  0.
         12    1    1    2    0    0  0.15334443314E+02  0.36155975592E+02  0.22061590417E+02  0.45045682306E+02  0.00000000000E+00 0. -1.
         11    1    3    3    0    0 -0.10001416930E+02 -0.14385271868E+02 -0.83916396887E+01  0.19426373935E+02  0.51100000000E-03 0. -1.
        -11    1    3    3    0    0 -0.23020267718E+01 -0.13084268857E+02 -0.53845463550E+01  0.14334948849E+02  0.51100000000E-03 0.  1.
         12    1    3    3    0    0 -0.30309996118E+01 -0.86864348662E+01 -0.82854043731E+01  0.12380994910E+02  0.00000000000E+00 0. -1.
</event>
<event>
 7    1  0.2312612E-008  0.4614232E+02  0.7816164E-02  0.1320468E+00
        -11   -1    0    0    0    0  0.00000000000E+00  0.00000000000E+00  0.45593999997E+02  0.45594000000E+02  0.51100000000E-03 0.  1.
         11   -1    0    0    0    0 -0.00000000000E+00 -0.00000000000E+00 -0.45593999997E+02  0.45594000000E+02  0.51100000000E-03 0. -1.
    9900012    2    1    2    0    0  0.17929437025E+02 -0.14203406360E+02  0.38806083242E+02  0.46142316956E+02  0.99999926618E+01 0.  0.
         12    1    1    2    0    0 -0.17929437025E+02  0.14203406360E+02 -0.38806083242E+02  0.45045683044E+02  0.00000000000E+00 0. -1.
         11    1    3    3    0    0  0.14214000008E+02 -0.88793586496E+01  0.23810806541E+02  0.29117611761E+02  0.51100000000E-03 0. -1.
        -11    1    3    3    0    0  0.13933608168E+01 -0.48663747283E+01  0.12922737180E+02  0.13878767736E+02  0.51100000000E-03 0.  1.
         12    1    3    3    0    0  0.23220761999E+01 -0.45767298243E+00  0.20725395210E+01  0.31459374602E+01  0.00000000000E+00 0. -1.
</event>
<event>
 7    1  0.2312612E-008  0.4614231E+02  0.7816164E-02  0.1320468E+00
        -11   -1    0    0    0    0  0.00000000000E+00  0.00000000000E+00  0.45593999997E+02  0.45594000000E+02  0.51100000000E-03 0.  1.
         11   -1    0    0    0    0 -0.00000000000E+00 -0.00000000000E+00 -0.45593999997E+02  0.45594000000E+02  0.51100000000E-03 0. -1.
    9900012    2    1    2    0    0  0.29374653647E+02  0.30293023941E+01  0.34015686581E+02  0.46142313376E+02  0.99999600145E+01 0.  0.
         12    1    1    2    0    0 -0.29374653647E+02 -0.30293023941E+01 -0.34015686581E+02  0.45045686624E+02  0.00000000000E+00 0. -1.
         11    1    3    3    0    0 -0.85647753720E-01  0.12836644408E+01  0.27677650332E+01  0.30521555456E+01  0.51100000000E-03 0. -1.
        -11    1    3    3    0    0  0.64223179774E+01 -0.41734939607E+00  0.54312804459E+01  0.84213512137E+01  0.51100000000E-03 0.  1.
        -12    1    3    3    0    0  0.23037983423E+02  0.21629873494E+01  0.25816641101E+02  0.34668806617E+02  0.00000000000E+00 0.  1.
</event>
<event>
 7    1  0.2312612E-008  0.4614232E+02  0.7816164E-02  0.1320468E+00
        -11   -1    0    0    0    0  0.00000000000E+00  0.00000000000E+00  0.45593999997E+02  0.45594000000E+02  0.51100000000E-03 0.  1.
         11   -1    0    0    0    0 -0.00000000000E+00 -0.00000000000E+00 -0.45593999997E+02  0.45594000000E+02  0.51100000000E-03 0. -1.
    9900012    2    1    2    0    0 -0.65657469001E+01  0.13055444672E+02  0.42609385896E+02  0.46142318360E+02  0.10000005460E+02 0.  0.
         12    1    1    2    0    0  0.65657469001E+01 -0.13055444672E+02 -0.42609385896E+02  0.45045681640E+02  0.00000000000E+00 0. -1.
         11    1    3    3    0    0 -0.34710292565E+01  0.60814582267E+01  0.20646770826E+02  0.21801865151E+02  0.51100000000E-03 0. -1.
        -11    1    3    3    0    0 -0.50282676871E+01  0.33837368385E+01  0.16065917235E+02  0.17171105025E+02  0.51100000000E-03 0.  1.
         12    1    3    3    0    0  0.19335500435E+01  0.35902496072E+01  0.58966978351E+01  0.71693481832E+01  0.00000000000E+00 0. -1.
</event>
<event>
 7    1  0.2312612E-008  0.4614232E+02  0.7816164E-02  0.1320468E+00
        -11   -1    0    0    0    0  0.00000000000E+00  0.00000000000E+00  0.45593999997E+02  0.45594000000E+02  0.51100000000E-03 0.  1.
         11   -1    0    0    0    0 -0.00000000000E+00 -0.00000000000E+00 -0.45593999997E+02  0.45594000000E+02  0.51100000000E-03 0. -1.
    9900012    2    1    2    0    0 -0.38343511300E+02 -0.19385678221E+02  0.13530860902E+02  0.46142316792E+02  0.99999911592E+01 0.  0.
         12    1    1    2    0    0  0.38343511300E+02  0.19385678221E+02 -0.13530860902E+02  0.45045683208E+02  0.00000000000E+00 0. -1.
         11    1    3    3    0    0 -0.38033018260E+01 -0.36299547831E+01  0.34790748800E+01  0.63044142305E+01  0.51100000000E-03 0. -1.
        -11    1    3    3    0    0 -0.19422039434E+02 -0.60206457044E+01  0.75167530442E+01  0.21678684625E+02  0.51100000000E-03 0.  1.
        -12    1    3    3    0    0 -0.15118170040E+02 -0.97350777339E+01  0.25350329780E+01  0.18159217936E+02  0.00000000000E+00 0.  1.
</event>
<event>
 7    1  0.2312612E-008  0.4614232E+02  0.7816164E-02  0.1320468E+00
        -11   -1    0    0    0    0  0.00000000000E+00  0.00000000000E+00  0.45593999997E+02  0.45594000000E+02  0.51100000000E-03 0. -1.
         11   -1    0    0    0    0 -0.00000000000E+00 -0.00000000000E+00 -0.45593999997E+02  0.45594000000E+02  0.51100000000E-03 0.  1.
    9900012    2    1    2    0    0  0.11569483467E+02 -0.23433824239E+02 -0.36689459221E+02  0.46142317808E+02  0.10000000432E+02 0.  0.
         12    1    1    2    0    0 -0.11569483467E+02  0.23433824239E+02  0.36689459221E+02  0.45045682192E+02  0.00000000000E+00 0. -1.
         11    1    3    3    0    0  0.81219610963E+01 -0.10123617154E+02 -0.16707311220E+02  0.21156278614E+02  0.51100000000E-03 0. -1.
        -11    1    3    3    0    0  0.43338161744E+01 -0.49334353284E+01 -0.82944086097E+01  0.10579128566E+02  0.51100000000E-03 0.  1.
         12    1    3    3    0    0 -0.88629380382E+00 -0.83767717571E+01 -0.11687739391E+02  0.14406910628E+02  0.00000000000E+00 0. -1.
</event>
<event>
 7    1  0.2312612E-008  0.4614232E+02  0.7816164E-02  0.1320468E+00
        -11   -1    0    0    0    0  0.00000000000E+00  0.00000000000E+00  0.45593999997E+02  0.45594000000E+02  0.51100000000E-03 0.  1.
         11   -1    0    0    0    0 -0.00000000000E+00 -0.00000000000E+00 -0.45593999997E+02  0.45594000000E+02  0.51100000000E-03 0. -1.
    9900012    2    1    2    0    0 -0.21121001546E+01  0.44872669107E+02 -0.33311085705E+01  0.46142315587E+02  0.99999801783E+01 0.  0.
         12    1    1    2    0    0  0.21121001546E+01 -0.44872669107E+02  0.33311085705E+01  0.45045684413E+02  0.00000000000E+00 0. -1.
         11    1    3    3    0    0 -0.62458616450E+00  0.68153846733E+01 -0.22920219033E+01  0.72175439581E+01  0.51100000000E-03 0. -1.
        -11    1    3    3    0    0 -0.45777484423E+01  0.27197372863E+02  0.63814615912E-01  0.27580009862E+02  0.51100000000E-03 0.  1.
         12    1    3    3    0    0  0.30902344522E+01  0.10859911572E+02 -0.11029012832E+01  0.11344761767E+02  0.00000000000E+00 0. -1.
</event>
<event>
 7    1  0.2312612E-008  0.4614232E+02  0.7816164E-02  0.1320468E+00
        -11   -1    0    0    0    0  0.00000000000E+00  0.00000000000E+00  0.45593999997E+02  0.45594000000E+02  0.51100000000E-03 0.  1.
         11   -1    0    0    0    0 -0.00000000000E+00 -0.00000000000E+00 -0.45593999997E+02  0.45594000000E+02  0.51100000000E-03 0. -1.
    9900012    2    1    2    0    0  0.77362403263E+01 -0.30974051275E+02  0.31778486713E+02  0.46142317804E+02  0.10000000387E+02 0.  0.
         12    1    1    2    0    0 -0.77362403263E+01  0.30974051275E+02 -0.31778486713E+02  0.45045682196E+02  0.00000000000E+00 0. -1.
         11    1    3    3    0    0  0.77933102567E+00 -0.90107470329E+01  0.93814595408E+01  0.13031220293E+02  0.51100000000E-03 0. -1.
        -11    1    3    3    0    0  0.71537334171E+00 -0.13705632948E+02  0.10115731014E+02  0.17049461802E+02  0.51100000000E-03 0.  1.
         12    1    3    3    0    0  0.62415359589E+01 -0.82576712942E+01  0.12281296158E+02  0.16061635709E+02  0.00000000000E+00 0. -1.
</event>
<event>
 7    1  0.2312612E-008  0.4614232E+02  0.7816164E-02  0.1320468E+00
        -11   -1    0    0    0    0  0.00000000000E+00  0.00000000000E+00  0.45593999997E+02  0.45594000000E+02  0.51100000000E-03 0. -1.
         11   -1    0    0    0    0 -0.00000000000E+00 -0.00000000000E+00 -0.45593999997E+02  0.45594000000E+02  0.51100000000E-03 0.  1.
    9900012    2    1    2    0    0 -0.37582276331E+02 -0.11137118110E+02 -0.22195731533E+02  0.46142318827E+02  0.10000009723E+02 0.  0.
         12    1    1    2    0    0  0.37582276331E+02  0.11137118110E+02  0.22195731533E+02  0.45045681173E+02  0.00000000000E+00 0. -1.
         11    1    3    3    0    0 -0.15260281098E+01 -0.20478762710E+01  0.46320057247E+00  0.25955951234E+01  0.51100000000E-03 0. -1.
        -11    1    3    3    0    0 -0.20795916570E+02 -0.51289496003E+01 -0.12810909534E+02  0.24957877981E+02  0.51100000000E-03 0.  1.
         12    1    3    3    0    0 -0.15260331651E+02 -0.39602922384E+01 -0.98480225721E+01  0.18588845722E+02  0.00000000000E+00 0. -1.
</event>
<event>
 7    1  0.2312612E-008  0.4614232E+02  0.7816164E-02  0.1320468E+00
        -11   -1    0    0    0    0  0.00000000000E+00  0.00000000000E+00  0.45593999997E+02  0.45594000000E+02  0.51100000000E-03 0.  1.
         11   -1    0    0    0    0 -0.00000000000E+00 -0.00000000000E+00 -0.45593999997E+02  0.45594000000E+02  0.51100000000E-03 0. -1.
    9900012    2    1    2    0    0  0.28962910537E+02 -0.34435215106E+02 -0.21164274410E+01  0.46142317728E+02  0.99999997022E+01 0.  0.
         12    1    1    2    0    0 -0.28962910537E+02  0.34435215106E+02  0.21164274410E+01  0.45045682272E+02  0.00000000000E+00 0. -1.
         11    1    3    3    0    0  0.55206750694E+01 -0.66990390310E+01 -0.19392536880E+01  0.88946996739E+01  0.51100000000E-03 0. -1.
        -11    1    3    3    0    0  0.16071513081E+02 -0.20507675496E+02 -0.37495059921E+01  0.26323318225E+02  0.51100000000E-03 0.  1.
        -12    1    3    3    0    0  0.73707223865E+01 -0.72285005797E+01  0.35723322392E+01  0.10924299829E+02  0.00000000000E+00 0.  1.
</event>
<event>
 7    1  0.2312612E-008  0.4614232E+02  0.7816164E-02  0.1320468E+00
        -11   -1    0    0    0    0  0.00000000000E+00  0.00000000000E+00  0.45593999997E+02  0.45594000000E+02  0.51100000000E-03 0. -1.
         11   -1    0    0    0    0 -0.00000000000E+00 -0.00000000000E+00 -0.45593999997E+02  0.45594000000E+02  0.51100000000E-03 0.  1.
    9900012    2    1    2    0    0  0.28231952674E+01  0.27875432525E+02  0.35271849642E+02  0.46142317109E+02  0.99999940494E+01 0.  0.
         12    1    1    2    0    0 -0.28231952674E+01 -0.27875432525E+02 -0.35271849642E+02  0.45045682891E+02  0.00000000000E+00 0. -1.
         11    1    3    3    0    0 -0.11994591597E-01  0.18980951475E+02  0.17335962950E+02  0.25706269166E+02  0.51100000000E-03 0.  1.
        -11    1    3    3    0    0  0.11407052441E+01  0.65610207756E+00  0.16887647976E+01  0.21409355882E+01  0.51100000000E-03 0. -1.
        -12    1    3    3    0    0  0.16944846148E+01  0.82383789726E+01  0.16247121894E+02  0.18295112354E+02  0.00000000000E+00 0.  1.
</event>
<event>
 7    1  0.2312612E-008  0.4614232E+02  0.7816164E-02  0.1320468E+00
        -11   -1    0    0    0    0  0.00000000000E+00  0.00000000000E+00  0.45593999997E+02  0.45594000000E+02  0.51100000000E-03 0.  1.
         11   -1    0    0    0    0 -0.00000000000E+00 -0.00000000000E+00 -0.45593999997E+02  0.45594000000E+02  0.51100000000E-03 0. -1.
    9900012    2    1    2    0    0 -0.11969014027E+02 -0.41936049421E+02  0.11279358704E+02  0.46142317958E+02  0.10000001796E+02 0.  0.
         12    1    1    2    0    0  0.11969014027E+02  0.41936049421E+02 -0.11279358704E+02  0.45045682042E+02  0.00000000000E+00 0. -1.
         11    1    3    3    0    0 -0.44592254997E+01 -0.53186890669E+01  0.21061098781E+01  0.72531954701E+01  0.51100000000E-03 0. -1.
        -11    1    3    3    0    0  0.20686016301E+00 -0.10134091044E+02  0.14166834748E+01  0.10234724459E+02  0.51100000000E-03 0.  1.
        -12    1    3    3    0    0 -0.77166486908E+01 -0.26483269310E+02  0.77565653512E+01  0.28654398029E+02  0.00000000000E+00 0.  1.
</event>
<event>
 7    1  0.2312612E-008  0.4614232E+02  0.7816164E-02  0.1320468E+00
        -11   -1    0    0    0    0  0.00000000000E+00  0.00000000000E+00  0.45593999997E+02  0.45594000000E+02  0.51100000000E-03 0.  1.
         11   -1    0    0    0    0 -0.00000000000E+00 -0.00000000000E+00 -0.45593999997E+02  0.45594000000E+02  0.51100000000E-03 0. -1.
    9900012    2    1    2    0    0 -0.29357713462E+02  0.31652206318E+02  0.12859851339E+02  0.46142320063E+02  0.10000020989E+02 0.  0.
         12    1    1    2    0    0  0.29357713462E+02 -0.31652206318E+02 -0.12859851339E+02  0.45045679937E+02  0.00000000000E+00 0. -1.
         11    1    3    3    0    0 -0.56818540678E+01  0.32387174395E+01  0.27319377072E+01  0.70877528313E+01  0.51100000000E-03 0. -1.
        -11    1    3    3    0    0 -0.15648740883E+02  0.15837232844E+02  0.28231157220E+01  0.22442616113E+02  0.51100000000E-03 0.  1.
         12    1    3    3    0    0 -0.80271185115E+01  0.12576256035E+02  0.73047979099E+01  0.16611951118E+02  0.00000000000E+00 0. -1.
</event>
<event>
 7    1  0.2312612E-008  0.4614232E+02  0.7816164E-02  0.1320468E+00
        -11   -1    0    0    0    0  0.00000000000E+00  0.00000000000E+00  0.45593999997E+02  0.45594000000E+02  0.51100000000E-03 0.  1.
         11   -1    0    0    0    0 -0.00000000000E+00 -0.00000000000E+00 -0.45593999997E+02  0.45594000000E+02  0.51100000000E-03 0. -1.
    9900012    2    1    2    0    0 -0.44957183758E+02 -0.66272668708E+00 -0.27433447296E+01  0.46142317427E+02  0.99999969549E+01 0.  0.
         12    1    1    2    0    0  0.44957183758E+02  0.66272668708E+00  0.27433447296E+01  0.45045682573E+02  0.00000000000E+00 0. -1.
         11    1    3    3    0    0 -0.12368755123E+02 -0.16865422717E+00  0.18631921900E+01  0.12509437755E+02  0.51100000000E-03 0. -1.
        -11    1    3    3    0    0 -0.76338045029E+01  0.25487942437E+01  0.13986596026E+00  0.80492786033E+01  0.51100000000E-03 0.  1.
         12    1    3    3    0    0 -0.24954624132E+02 -0.30428667036E+01 -0.47464028798E+01  0.25583601069E+02  0.00000000000E+00 0. -1.
</event>
<event>
 7    1  0.2312612E-008  0.4614232E+02  0.7816164E-02  0.1320468E+00
        -11   -1    0    0    0    0  0.00000000000E+00  0.00000000000E+00  0.45593999997E+02  0.45594000000E+02  0.51100000000E-03 0.  1.
         11   -1    0    0    0    0 -0.00000000000E+00 -0.00000000000E+00 -0.45593999997E+02  0.45594000000E+02  0.51100000000E-03 0. -1.
    9900012    2    1    2    0    0  0.39667676040E+02  0.15311073049E+02  0.14871449495E+02  0.46142317738E+02  0.99999997894E+01 0.  0.
         12    1    1    2    0    0 -0.39667676040E+02 -0.15311073049E+02 -0.14871449495E+02  0.45045682262E+02  0.00000000000E+00 0. -1.
         11    1    3    3    0    0  0.15437880451E+01 -0.38026940197E+00  0.22511938250E+01  0.27560406828E+01  0.51100000000E-03 0. -1.
        -11    1    3    3    0    0  0.25108419460E+00 -0.27800133718E+00 -0.44843327022E-01  0.37727867863E+00  0.51100000000E-03 0.  1.
        -12    1    3    3    0    0  0.37872803801E+02  0.15969343788E+02  0.12665098997E+02  0.43008998377E+02  0.00000000000E+00 0.  1.
</event>
<event>
 7    1  0.2312612E-008  0.4614232E+02  0.7816164E-02  0.1320468E+00
        -11   -1    0    0    0    0  0.00000000000E+00  0.00000000000E+00  0.45593999997E+02  0.45594000000E+02  0.51100000000E-03 0. -1.
         11   -1    0    0    0    0 -0.00000000000E+00 -0.00000000000E+00 -0.45593999997E+02  0.45594000000E+02  0.51100000000E-03 0.  1.
    9900012    2    1    2    0    0 -0.10400356996E+02 -0.32231707971E+02 -0.29699545841E+02  0.46142318215E+02  0.10000004135E+02 0.  0.
         12    1    1    2    0    0  0.10400356996E+02  0.32231707971E+02  0.29699545841E+02  0.45045681785E+02  0.00000000000E+00 0. -1.
         11    1    3    3    0    0  0.10066204995E+01 -0.15040866592E+01 -0.65611838840E+00  0.19251111939E+01  0.51100000000E-03 0. -1.
        -11    1    3    3    0    0 -0.74330613750E+01 -0.25135143602E+02 -0.20597171363E+02  0.33335706287E+02  0.51100000000E-03 0.  1.
         12    1    3    3    0    0 -0.39739161203E+01 -0.55924777098E+01 -0.84462560903E+01  0.10881500733E+02  0.00000000000E+00 0. -1.
</event>
<event>
 7    1  0.2312612E-008  0.4614232E+02  0.7816164E-02  0.1320468E+00
        -11   -1    0    0    0    0  0.00000000000E+00  0.00000000000E+00  0.45593999997E+02  0.45594000000E+02  0.51100000000E-03 0.  1.
         11   -1    0    0    0    0 -0.00000000000E+00 -0.00000000000E+00 -0.45593999997E+02  0.45594000000E+02  0.51100000000E-03 0. -1.
    9900012    2    1    2    0    0 -0.28187337598E+01  0.35827798206E+02  0.27157634160E+02  0.46142317882E+02  0.10000001102E+02 0.  0.
         12    1    1    2    0    0  0.28187337598E+01 -0.35827798206E+02 -0.27157634160E+02  0.45045682118E+02  0.00000000000E+00 0. -1.
         11    1    3    3    0    0 -0.34882023368E+01  0.10055138758E+02  0.52835191522E+01  0.11882295480E+02  0.51100000000E-03 0. -1.
        -11    1    3    3    0    0  0.62899781338E-01  0.15368599059E+01 -0.98027378794E-01  0.15412671348E+01  0.51100000000E-03 0.  1.
        -12    1    3    3    0    0  0.60656879569E+00  0.24235799542E+02  0.21972142387E+02  0.32718755267E+02  0.00000000000E+00 0.  1.
</event>
<event>
 7    1  0.2312612E-008  0.4614232E+02  0.7816164E-02  0.1320468E+00
        -11   -1    0    0    0    0  0.00000000000E+00  0.00000000000E+00  0.45593999997E+02  0.45594000000E+02  0.51100000000E-03 0. -1.
         11   -1    0    0    0    0 -0.00000000000E+00 -0.00000000000E+00 -0.45593999997E+02  0.45594000000E+02  0.51100000000E-03 0.  1.
    9900012    2    1    2    0    0 -0.10016769332E+02  0.23362508626E+02 -0.37188318050E+02  0.46142317892E+02  0.10000001196E+02 0.  0.
         12    1    1    2    0    0  0.10016769332E+02 -0.23362508626E+02  0.37188318050E+02  0.45045682108E+02  0.00000000000E+00 0. -1.
         11    1    3    3    0    0 -0.46456451911E+01  0.10364008624E+02 -0.24372823501E+02  0.26889202660E+02  0.51100000000E-03 0. -1.
        -11    1    3    3    0    0 -0.42557150130E+01  0.87226678597E+01 -0.10367417327E+02  0.14201386804E+02  0.51100000000E-03 0.  1.
         12    1    3    3    0    0 -0.11154091283E+01  0.42758321422E+01 -0.24480772221E+01  0.50517284287E+01  0.00000000000E+00 0. -1.
</event>
<event>
 7    1  0.2312612E-008  0.4614232E+02  0.7816164E-02  0.1320468E+00
        -11   -1    0    0    0    0  0.00000000000E+00  0.00000000000E+00  0.45593999997E+02  0.45594000000E+02  0.51100000000E-03 0.  1.
         11   -1    0    0    0    0 -0.00000000000E+00 -0.00000000000E+00 -0.45593999997E+02  0.45594000000E+02  0.51100000000E-03 0. -1.
    9900012    2    1    2    0    0 -0.24381266890E+02  0.34244488725E+02  0.16185867127E+02  0.46142317878E+02  0.10000001070E+02 0.  0.
         12    1    1    2    0    0  0.24381266890E+02 -0.34244488725E+02 -0.16185867127E+02  0.45045682122E+02  0.00000000000E+00 0. -1.
         11    1    3    3    0    0 -0.30707911879E+01  0.23650974121E+01  0.33309865624E+01  0.51106668868E+01  0.51100000000E-03 0. -1.
        -11    1    3    3    0    0 -0.23365962334E+01  0.85159882343E+00  0.94651822635E-01  0.24887470226E+01  0.51100000000E-03 0.  1.
        -12    1    3    3    0    0 -0.18973879468E+02  0.31027792489E+02  0.12760228742E+02  0.38542903969E+02  0.00000000000E+00 0.  1.
</event>
<event>
 7    1  0.2312612E-008  0.4614232E+02  0.7816164E-02  0.1320468E+00
        -11   -1    0    0    0    0  0.00000000000E+00  0.00000000000E+00  0.45593999997E+02  0.45594000000E+02  0.51100000000E-03 0.  1.
         11   -1    0    0    0    0 -0.00000000000E+00 -0.00000000000E+00 -0.45593999997E+02  0.45594000000E+02  0.51100000000E-03 0. -1.
    9900012    2    1    2    0    0  0.11864422559E+01  0.41958642432E+02 -0.16345583179E+02  0.46142318638E+02  0.10000007992E+02 0.  0.
         12    1    1    2    0    0 -0.11864422559E+01 -0.41958642432E+02  0.16345583179E+02  0.45045681362E+02  0.00000000000E+00 0. -1.
         11    1    3    3    0    0 -0.99412299802E+00  0.58985413067E+01 -0.14203126949E+00  0.59834140108E+01  0.51100000000E-03 0. -1.
        -11    1    3    3    0    0 -0.23873169843E+01  0.13472575606E+02 -0.54376723048E+01  0.14723377880E+02  0.51100000000E-03 0.  1.
         12    1    3    3    0    0  0.45678822383E+01  0.22587525519E+02 -0.10765879605E+02  0.25435526747E+02  0.00000000000E+00 0. -1.
</event>
<event>
 7    1  0.2312612E-008  0.4614232E+02  0.7816164E-02  0.1320468E+00
        -11   -1    0    0    0    0  0.00000000000E+00  0.00000000000E+00  0.45593999997E+02  0.45594000000E+02  0.51100000000E-03 0.  1.
         11   -1    0    0    0    0 -0.00000000000E+00 -0.00000000000E+00 -0.45593999997E+02  0.45594000000E+02  0.51100000000E-03 0. -1.
    9900012    2    1    2    0    0 -0.39031763531E+02  0.19566026267E+02  0.11081766092E+02  0.46142317765E+02  0.10000000039E+02 0.  0.
         12    1    1    2    0    0  0.39031763531E+02 -0.19566026267E+02 -0.11081766092E+02  0.45045682235E+02  0.00000000000E+00 0. -1.
         11    1    3    3    0    0 -0.42509146890E+01  0.21209601001E+01  0.37499631311E+01  0.60523525331E+01  0.51100000000E-03 0. -1.
        -11    1    3    3    0    0 -0.54662249542E+01  0.48809533434E+01  0.29372943158E+01  0.78949996168E+01  0.51100000000E-03 0.  1.
        -12    1    3    3    0    0 -0.29314623888E+02  0.12564112824E+02  0.43945086452E+01  0.32194965616E+02  0.00000000000E+00 0.  1.
</event>
<event>
 7    1  0.2312612E-008  0.4614231E+02  0.7816164E-02  0.1320468E+00
        -11   -1    0    0    0    0  0.00000000000E+00  0.00000000000E+00  0.45593999997E+02  0.45594000000E+02  0.51100000000E-03 0.  1.
         11   -1    0    0    0    0 -0.00000000000E+00 -0.00000000000E+00 -0.45593999997E+02  0.45594000000E+02  0.51100000000E-03 0. -1.
    9900012    2    1    2    0    0  0.27538514726E+02  0.29957815990E+02  0.19320280732E+02  0.46142314526E+02  0.99999705042E+01 0.  0.
         12    1    1    2    0    0 -0.27538514726E+02 -0.29957815990E+02 -0.19320280732E+02  0.45045685474E+02  0.00000000000E+00 0. -1.
         11    1    3    3    0    0  0.33325271559E+00 -0.50159778352E+00 -0.22578167762E+00  0.64314487944E+00  0.51100000000E-03 0. -1.
        -11    1    3    3    0    0  0.27435900865E+01  0.52424431553E+01  0.21453089333E+01  0.62938738055E+01  0.51100000000E-03 0.  1.
        -12    1    3    3    0    0  0.24461671923E+02  0.25216970619E+02  0.17400753476E+02  0.39205295842E+02  0.00000000000E+00 0.  1.
</event>
<event>
 7    1  0.2312612E-008  0.4614232E+02  0.7816164E-02  0.1320468E+00
        -11   -1    0    0    0    0  0.00000000000E+00  0.00000000000E+00  0.45593999997E+02  0.45594000000E+02  0.51100000000E-03 0. -1.
         11   -1    0    0    0    0 -0.00000000000E+00 -0.00000000000E+00 -0.45593999997E+02  0.45594000000E+02  0.51100000000E-03 0.  1.
    9900012    2    1    2    0    0  0.40415148304E+02  0.19832044117E+02  0.15554346886E+01  0.46142316929E+02  0.99999924107E+01 0.  0.
         12    1    1    2    0    0 -0.40415148304E+02 -0.19832044117E+02 -0.15554346886E+01  0.45045683071E+02  0.00000000000E+00 0. -1.
         11    1    3    3    0    0  0.19911027561E+02  0.69007410650E+01 -0.16710355054E+01  0.21139101346E+02  0.51100000000E-03 0. -1.
        -11    1    3    3    0    0 -0.45128261531E-01 -0.18243099281E+00  0.42624770388E+00  0.46583794748E+00  0.51100000000E-03 0.  1.
        -12    1    3    3    0    0  0.20549249004E+02  0.13113734045E+02  0.28002224901E+01  0.24537377636E+02  0.00000000000E+00 0.  1.
</event>
<event>
 7    1  0.2312612E-008  0.4614232E+02  0.7816164E-02  0.1320468E+00
        -11   -1    0    0    0    0  0.00000000000E+00  0.00000000000E+00  0.45593999997E+02  0.45594000000E+02  0.51100000000E-03 0.  1.
         11   -1    0    0    0    0 -0.00000000000E+00 -0.00000000000E+00 -0.45593999997E+02  0.45594000000E+02  0.51100000000E-03 0. -1.
    9900012    2    1    2    0    0 -0.21675865154E+02  0.10909586954E+02 -0.37950642930E+02  0.46142317449E+02  0.99999971548E+01 0.  0.
         12    1    1    2    0    0  0.21675865154E+02 -0.10909586954E+02  0.37950642930E+02  0.45045682551E+02  0.00000000000E+00 0. -1.
         11    1    3    3    0    0 -0.71081564763E+01 -0.16759046442E+00 -0.14112098269E+02  0.15802066095E+02  0.51100000000E-03 0. -1.
        -11    1    3    3    0    0 -0.10411390545E+02  0.57205291346E+01 -0.16709916833E+02  0.20502263960E+02  0.51100000000E-03 0.  1.
         12    1    3    3    0    0 -0.41563181331E+01  0.53566482840E+01 -0.71286278281E+01  0.98379873945E+01  0.00000000000E+00 0. -1.
</event>
<event>
 7    1  0.2312612E-008  0.4614232E+02  0.7816164E-02  0.1320468E+00
        -11   -1    0    0    0    0  0.00000000000E+00  0.00000000000E+00  0.45593999997E+02  0.45594000000E+02  0.51100000000E-03 0. -1.
         11   -1    0    0    0    0 -0.00000000000E+00 -0.00000000000E+00 -0.45593999997E+02  0.45594000000E+02  0.51100000000E-03 0.  1.
    9900012    2    1    2    0    0 -0.23875582251E+02 -0.24132902133E+02 -0.29608667089E+02  0.46142316967E+02  0.99999927555E+01 0.  0.
         12    1    1    2    0    0  0.23875582251E+02  0.24132902133E+02  0.29608667089E+02  0.45045683033E+02  0.00000000000E+00 0. -1.
         11    1    3    3    0    0 -0.33390632406E+01 -0.43559175263E+00 -0.49823111697E+01  0.60135271141E+01  0.51100000000E-03 0. -1.
        -11    1    3    3    0    0 -0.31637867322E+01 -0.44906994158E+01 -0.23755308805E+01  0.59849039220E+01  0.51100000000E-03 0.  1.
        -12    1    3    3    0    0 -0.17372732278E+02 -0.19206610965E+02 -0.22250825038E+02  0.34143885931E+02  0.00000000000E+00 0.  1.
</event>
<event>
 7    1  0.2312612E-008  0.4614232E+02  0.7816164E-02  0.1320468E+00
        -11   -1    0    0    0    0  0.00000000000E+00  0.00000000000E+00  0.45593999997E+02  0.45594000000E+02  0.51100000000E-03 0. -1.
         11   -1    0    0    0    0 -0.00000000000E+00 -0.00000000000E+00 -0.45593999997E+02  0.45594000000E+02  0.51100000000E-03 0.  1.
    9900012    2    1    2    0    0  0.13620343986E+01  0.24286241587E+02 -0.37913543329E+02  0.46142318343E+02  0.10000005310E+02 0.  0.
         12    1    1    2    0    0 -0.13620343986E+01 -0.24286241587E+02  0.37913543329E+02  0.45045681657E+02  0.00000000000E+00 0. -1.
         11    1    3    3    0    0 -0.71111657548E+00  0.21751982107E+02 -0.31343182415E+02  0.38158216632E+02  0.51100000000E-03 0.  1.
        -11    1    3    3    0    0 -0.27702130699E+00 -0.56676476469E+00 -0.11516789262E+01  0.13131365935E+01  0.51100000000E-03 0. -1.
        -12    1    3    3    0    0  0.23501722810E+01  0.31010242447E+01 -0.54186819880E+01  0.66709651179E+01  0.00000000000E+00 0.  1.
</event>
<event>
 7    1  0.2312612E-008  0.4614232E+02  0.7816164E-02  0.1320468E+00
        -11   -1    0    0    0    0  0.00000000000E+00  0.00000000000E+00  0.45593999997E+02  0.45594000000E+02  0.51100000000E-03 0.  1.
         11   -1    0    0    0    0 -0.00000000000E+00 -0.00000000000E+00 -0.45593999997E+02  0.45594000000E+02  0.51100000000E-03 0. -1.
    9900012    2    1    2    0    0 -0.37797345778E+02  0.93606115968E+00  0.24486688603E+02  0.46142317886E+02  0.10000001140E+02 0.  0.
         12    1    1    2    0    0  0.37797345778E+02 -0.93606115968E+00 -0.24486688603E+02  0.45045682114E+02  0.00000000000E+00 0. -1.
         11    1    3    3    0    0 -0.46257902058E+01 -0.28247379079E+01  0.31134071996E+01  0.62506306825E+01  0.51100000000E-03 0. -1.
        -11    1    3    3    0    0 -0.18507444918E+02  0.24775423713E+00  0.13258150567E+02  0.22767640552E+02  0.51100000000E-03 0.  1.
        -12    1    3    3    0    0 -0.14664110654E+02  0.35130448305E+01  0.81151308363E+01  0.17124046652E+02  0.00000000000E+00 0.  1.
</event>
<event>
 7    1  0.2312612E-008  0.4614232E+02  0.7816164E-02  0.1320468E+00
        -11   -1    0    0    0    0  0.00000000000E+00  0.00000000000E+00  0.45593999997E+02  0.45594000000E+02  0.51100000000E-03 0. -1.
         11   -1    0    0    0    0 -0.00000000000E+00 -0.00000000000E+00 -0.45593999997E+02  0.45594000000E+02  0.51100000000E-03 0.  1.
    9900012    2    1    2    0    0  0.36841526250E+02  0.16501512103E+02 -0.19987890632E+02  0.46142315079E+02  0.99999755382E+01 0.  0.
         12    1    1    2    0    0 -0.36841526250E+02 -0.16501512103E+02  0.19987890632E+02  0.45045684921E+02  0.00000000000E+00 0. -1.
         11    1    3    3    0    0  0.19746320378E+02  0.13025685955E+02 -0.11765445397E+02  0.26419904783E+02  0.51100000000E-03 0. -1.
        -11    1    3    3    0    0  0.33349148734E+01 -0.42534508837E+00 -0.29697640199E+01  0.44857635083E+01  0.51100000000E-03 0.  1.
        -12    1    3    3    0    0  0.13760290999E+02  0.39011712361E+01 -0.52526812151E+01  0.15236646788E+02  0.00000000000E+00 0.  1.
</event>
<event>
 7    1  0.2312612E-008  0.4614232E+02  0.7816164E-02  0.1320468E+00
        -11   -1    0    0    0    0  0.00000000000E+00  0.00000000000E+00  0.45593999997E+02  0.45594000000E+02  0.51100000000E-03 0.  1.
         11   -1    0    0    0    0 -0.00000000000E+00 -0.00000000000E+00 -0.45593999997E+02  0.45594000000E+02  0.51100000000E-03 0. -1.
    9900012    2    1    2    0    0  0.30445164917E+02 -0.29173746009E+02  0.15846074806E+02  0.46142316413E+02  0.99999877085E+01 0.  0.
         12    1    1    2    0    0 -0.30445164917E+02  0.29173746009E+02 -0.15846074806E+02  0.45045683587E+02  0.00000000000E+00 0. -1.
         11    1    3    3    0    0  0.14644589664E+02 -0.92156722300E+01  0.72421625128E+01  0.18757439569E+02  0.51100000000E-03 0. -1.
        -11    1    3    3    0    0  0.11203201275E+02 -0.10384421093E+02  0.62621649309E+01  0.16509470922E+02  0.51100000000E-03 0.  1.
        -12    1    3    3    0    0  0.45973739786E+01 -0.95736526865E+01  0.23417473620E+01  0.10875405922E+02  0.00000000000E+00 0.  1.
</event>
<event>
 7    1  0.2312612E-008  0.4614232E+02  0.7816164E-02  0.1320468E+00
        -11   -1    0    0    0    0  0.00000000000E+00  0.00000000000E+00  0.45593999997E+02  0.45594000000E+02  0.51100000000E-03 0.  1.
         11   -1    0    0    0    0 -0.00000000000E+00 -0.00000000000E+00 -0.45593999997E+02  0.45594000000E+02  0.51100000000E-03 0. -1.
    9900012    2    1    2    0    0  0.41181672177E+02 -0.44359873334E+01  0.17706081839E+02  0.46142318287E+02  0.10000004795E+02 0.  0.
         12    1    1    2    0    0 -0.41181672177E+02  0.44359873334E+01 -0.17706081839E+02  0.45045681713E+02  0.00000000000E+00 0. -1.
         11    1    3    3    0    0  0.73469298705E+01  0.90841647421E+00  0.34904824931E+01  0.81845016530E+01  0.51100000000E-03 0.  1.
        -11    1    3    3    0    0  0.13766693575E+02  0.17928444555E+01  0.61137455130E+01  0.15169509804E+02  0.51100000000E-03 0. -1.
        -12    1    3    3    0    0  0.20068048732E+02 -0.71372482630E+01  0.81018538330E+01  0.22788306830E+02  0.00000000000E+00 0.  1.
</event>
<event>
 7    1  0.2312612E-008  0.4614232E+02  0.7816164E-02  0.1320468E+00
        -11   -1    0    0    0    0  0.00000000000E+00  0.00000000000E+00  0.45593999997E+02  0.45594000000E+02  0.51100000000E-03 0.  1.
         11   -1    0    0    0    0 -0.00000000000E+00 -0.00000000000E+00 -0.45593999997E+02  0.45594000000E+02  0.51100000000E-03 0. -1.
    9900012    2    1    2    0    0 -0.13921327954E+02 -0.33247134561E+01  0.42711309476E+02  0.46142322641E+02  0.10000044503E+02 0.  0.
         12    1    1    2    0    0  0.13921327954E+02  0.33247134561E+01 -0.42711309476E+02  0.45045677359E+02  0.00000000000E+00 0. -1.
         11    1    3    3    0    0 -0.39985647333E+01  0.13194757593E+00  0.10502979906E+02  0.11239151091E+02  0.51100000000E-03 0. -1.
        -11    1    3    3    0    0 -0.11025944329E+02 -0.38631665294E+01  0.31324503848E+02  0.33432320374E+02  0.51100000000E-03 0.  1.
        -12    1    3    3    0    0  0.11031811083E+01  0.40650549735E+00  0.88382572180E+00  0.14708511766E+01  0.00000000000E+00 0.  1.
</event>
<event>
 7    1  0.2312612E-008  0.4614232E+02  0.7816164E-02  0.1320468E+00
        -11   -1    0    0    0    0  0.00000000000E+00  0.00000000000E+00  0.45593999997E+02  0.45594000000E+02  0.51100000000E-03 0. -1.
         11   -1    0    0    0    0 -0.00000000000E+00 -0.00000000000E+00 -0.45593999997E+02  0.45594000000E+02  0.51100000000E-03 0.  1.
    9900012    2    1    2    0    0  0.14844317078E+02 -0.40215012184E+02 -0.13838806822E+02  0.46142317313E+02  0.99999959162E+01 0.  0.
         12    1    1    2    0    0 -0.14844317078E+02  0.40215012184E+02  0.13838806822E+02  0.45045682687E+02  0.00000000000E+00 0. -1.
         11    1    3    3    0    0  0.64270312799E+01 -0.15109292153E+02 -0.70082592178E+00  0.16434372445E+02  0.51100000000E-03 0.  1.
        -11    1    3    3    0    0  0.25421045253E+01 -0.41430435479E+01 -0.20330256511E+01  0.52688043061E+01  0.51100000000E-03 0. -1.
        -12    1    3    3    0    0  0.58751812730E+01 -0.20962676483E+02 -0.11104955249E+02  0.24439140562E+02  0.00000000000E+00 0.  1.
</event>
<event>
 7    1  0.2312612E-008  0.4614232E+02  0.7816164E-02  0.1320468E+00
        -11   -1    0    0    0    0  0.00000000000E+00  0.00000000000E+00  0.45593999997E+02  0.45594000000E+02  0.51100000000E-03 0.  1.
         11   -1    0    0    0    0 -0.00000000000E+00 -0.00000000000E+00 -0.45593999997E+02  0.45594000000E+02  0.51100000000E-03 0. -1.
    9900012    2    1    2    0    0  0.34199851741E+02  0.95471991430E+01  0.27718852214E+02  0.46142316093E+02  0.99999847869E+01 0.  0.
         12    1    1    2    0    0 -0.34199851741E+02 -0.95471991430E+01 -0.27718852214E+02  0.45045683907E+02  0.00000000000E+00 0. -1.
         11    1    3    3    0    0  0.73449788889E+01  0.44711781600E+01  0.43392544682E+01  0.96316809861E+01  0.51100000000E-03 0. -1.
        -11    1    3    3    0    0  0.11402928189E+01 -0.10612502431E+01  0.18328809319E+01  0.24054048646E+01  0.51100000000E-03 0.  1.
        -12    1    3    3    0    0  0.25714580033E+02  0.61372712261E+01  0.21546716814E+02  0.34105230242E+02  0.00000000000E+00 0.  1.
</event>
<event>
 7    1  0.2312612E-008  0.4614232E+02  0.7816164E-02  0.1320468E+00
        -11   -1    0    0    0    0  0.00000000000E+00  0.00000000000E+00  0.45593999997E+02  0.45594000000E+02  0.51100000000E-03 0.  1.
         11   -1    0    0    0    0 -0.00000000000E+00 -0.00000000000E+00 -0.45593999997E+02  0.45594000000E+02  0.51100000000E-03 0. -1.
    9900012    2    1    2    0    0 -0.40263480898E+02 -0.58794207210E+01  0.19323509353E+02  0.46142317679E+02  0.99999992511E+01 0.  0.
         12    1    1    2    0    0  0.40263480898E+02  0.58794207210E+01 -0.19323509353E+02  0.45045682321E+02  0.00000000000E+00 0. -1.
         11    1    3    3    0    0 -0.29983305993E+01  0.23664674997E+00  0.15256728102E+01  0.33724865978E+01  0.51100000000E-03 0. -1.
        -11    1    3    3    0    0 -0.23537075537E+02 -0.88273315864E+00  0.71152397498E+01  0.24604873087E+02  0.51100000000E-03 0.  1.
        -12    1    3    3    0    0 -0.13728074761E+02 -0.52333343124E+01  0.10682596793E+02  0.18164957994E+02  0.00000000000E+00 0.  1.
</event>
<event>
 7    1  0.2312612E-008  0.4614232E+02  0.7816164E-02  0.1320468E+00
        -11   -1    0    0    0    0  0.00000000000E+00  0.00000000000E+00  0.45593999997E+02  0.45594000000E+02  0.51100000000E-03 0.  1.
         11   -1    0    0    0    0 -0.00000000000E+00 -0.00000000000E+00 -0.45593999997E+02  0.45594000000E+02  0.51100000000E-03 0. -1.
    9900012    2    1    2    0    0 -0.28837812919E+02 -0.52160519477E+01  0.34209455700E+02  0.46142317509E+02  0.99999976969E+01 0.  0.
         12    1    1    2    0    0  0.28837812919E+02  0.52160519477E+01 -0.34209455700E+02  0.45045682491E+02  0.00000000000E+00 0. -1.
         11    1    3    3    0    0 -0.66214320075E+01  0.34511635157E+00  0.48813092029E+01  0.82334468433E+01  0.51100000000E-03 0. -1.
        -11    1    3    3    0    0 -0.66784493210E+01  0.16066278112E+01  0.74432235856E+01  0.10128401447E+02  0.51100000000E-03 0.  1.
        -12    1    3    3    0    0 -0.15537931590E+02 -0.71677961104E+01  0.21884922911E+02  0.27780469219E+02  0.00000000000E+00 0.  1.
</event>
<event>
 7    1  0.2312612E-008  0.4614232E+02  0.7816164E-02  0.1320468E+00
        -11   -1    0    0    0    0  0.00000000000E+00  0.00000000000E+00  0.45593999997E+02  0.45594000000E+02  0.51100000000E-03 0.  1.
         11   -1    0    0    0    0 -0.00000000000E+00 -0.00000000000E+00 -0.45593999997E+02  0.45594000000E+02  0.51100000000E-03 0. -1.
    9900012    2    1    2    0    0 -0.92594401938E+01 -0.34493412750E+02  0.27451425854E+02  0.46142317218E+02  0.99999950520E+01 0.  0.
         12    1    1    2    0    0  0.92594401938E+01  0.34493412750E+02 -0.27451425854E+02  0.45045682782E+02  0.00000000000E+00 0. -1.
         11    1    3    3    0    0 -0.23413043969E+00 -0.14344738783E+01  0.35367090150E+01  0.38237211311E+01  0.51100000000E-03 0. -1.
        -11    1    3    3    0    0 -0.87937874805E+01 -0.20256467561E+02  0.14345877586E+02  0.26333616924E+02  0.51100000000E-03 0.  1.
        -12    1    3    3    0    0 -0.23152227365E+00 -0.12802471310E+02  0.95688392538E+01  0.15984979164E+02  0.00000000000E+00 0.  1.
</event>
<event>
 7    1  0.2312612E-008  0.4614232E+02  0.7816164E-02  0.1320468E+00
        -11   -1    0    0    0    0  0.00000000000E+00  0.00000000000E+00  0.45593999997E+02  0.45594000000E+02  0.51100000000E-03 0.  1.
         11   -1    0    0    0    0 -0.00000000000E+00 -0.00000000000E+00 -0.45593999997E+02  0.45594000000E+02  0.51100000000E-03 0. -1.
    9900012    2    1    2    0    0  0.29275845592E+02 -0.18270132334E+02  0.28952388050E+02  0.46142316029E+02  0.99999842052E+01 0.  0.
         12    1    1    2    0    0 -0.29275845592E+02  0.18270132334E+02 -0.28952388050E+02  0.45045683971E+02  0.00000000000E+00 0. -1.
         11    1    3    3    0    0  0.82545642608E+01 -0.74753810060E+00  0.84306319294E+01  0.11822529312E+02  0.51100000000E-03 0. -1.
        -11    1    3    3    0    0  0.79092787967E+01 -0.68291534650E+01  0.61848898987E+01  0.12142771160E+02  0.51100000000E-03 0.  1.
         12    1    3    3    0    0  0.13112002534E+02 -0.10693440768E+02  0.14336866222E+02  0.22177015556E+02  0.00000000000E+00 0. -1.
</event>
<event>
 7    1  0.2312612E-008  0.4614232E+02  0.7816164E-02  0.1320468E+00
        -11   -1    0    0    0    0  0.00000000000E+00  0.00000000000E+00  0.45593999997E+02  0.45594000000E+02  0.51100000000E-03 0.  1.
         11   -1    0    0    0    0 -0.00000000000E+00 -0.00000000000E+00 -0.45593999997E+02  0.45594000000E+02  0.51100000000E-03 0. -1.
    9900012    2    1    2    0    0  0.65705617031E+01 -0.34526788755E+02  0.28175203877E+02  0.46142317229E+02  0.99999951480E+01 0.  0.
         12    1    1    2    0    0 -0.65705617031E+01  0.34526788755E+02 -0.28175203877E+02  0.45045682771E+02  0.00000000000E+00 0. -1.
         11    1    3    3    0    0  0.33608549697E+01 -0.73825625966E+01  0.37260298728E+01  0.89264144815E+01  0.51100000000E-03 0. -1.
        -11    1    3    3    0    0  0.26855176252E+01 -0.10600571310E+02  0.13485913941E+02  0.17362430478E+02  0.51100000000E-03 0.  1.
         12    1    3    3    0    0  0.52418910811E+00 -0.16543654848E+02  0.10963260063E+02  0.19853472269E+02  0.00000000000E+00 0. -1.
</event>
<event>
 7    1  0.2312612E-008  0.4614232E+02  0.7816164E-02  0.1320468E+00
        -11   -1    0    0    0    0  0.00000000000E+00  0.00000000000E+00  0.45593999997E+02  0.45594000000E+02  0.51100000000E-03 0. -1.
         11   -1    0    0    0    0 -0.00000000000E+00 -0.00000000000E+00 -0.45593999997E+02  0.45594000000E+02  0.51100000000E-03 0.  1.
    9900012    2    1    2    0    0  0.39543320153E+02 -0.16939197472E+02 -0.13360499587E+02  0.46142317312E+02  0.99999959001E+01 0.  0.
         12    1    1    2    0    0 -0.39543320153E+02  0.16939197472E+02  0.13360499587E+02  0.45045682688E+02  0.00000000000E+00 0. -1.
         11    1    3    3    0    0  0.12050637524E+02 -0.38863275541E+01 -0.53360225603E+01  0.13740252676E+02  0.51100000000E-03 0. -1.
        -11    1    3    3    0    0  0.20086721115E+02 -0.64287891878E+01 -0.31150176674E+01  0.21319217408E+02  0.51100000000E-03 0.  1.
        -12    1    3    3    0    0  0.74059615141E+01 -0.66240807296E+01 -0.49094593589E+01  0.11082847227E+02  0.00000000000E+00 0.  1.
</event>
<event>
 7    1  0.2312612E-008  0.4614232E+02  0.7816164E-02  0.1320468E+00
        -11   -1    0    0    0    0  0.00000000000E+00  0.00000000000E+00  0.45593999997E+02  0.45594000000E+02  0.51100000000E-03 0.  1.
         11   -1    0    0    0    0 -0.00000000000E+00 -0.00000000000E+00 -0.45593999997E+02  0.45594000000E+02  0.51100000000E-03 0. -1.
    9900012    2    1    2    0    0  0.25966383364E+02 -0.36119422419E+02 -0.70885673491E+01  0.46142317322E+02  0.99999959946E+01 0.  0.
         12    1    1    2    0    0 -0.25966383364E+02  0.36119422419E+02  0.70885673491E+01  0.45045682678E+02  0.00000000000E+00 0. -1.
         11    1    3    3    0    0  0.13994221540E+02 -0.14180474465E+02 -0.12502808774E+01  0.19962146555E+02  0.51100000000E-03 0. -1.
        -11    1    3    3    0    0  0.86966870027E+01 -0.11785669834E+02 -0.17335649732E+01  0.14749224591E+02  0.51100000000E-03 0.  1.
        -12    1    3    3    0    0  0.32754748210E+01 -0.10153278120E+02 -0.41047214985E+01  0.11430946176E+02  0.00000000000E+00 0.  1.
</event>
<event>
 7    1  0.2312612E-008  0.4614232E+02  0.7816164E-02  0.1320468E+00
        -11   -1    0    0    0    0  0.00000000000E+00  0.00000000000E+00  0.45593999997E+02  0.45594000000E+02  0.51100000000E-03 0.  1.
         11   -1    0    0    0    0 -0.00000000000E+00 -0.00000000000E+00 -0.45593999997E+02  0.45594000000E+02  0.51100000000E-03 0. -1.
    9900012    2    1    2    0    0 -0.32756956944E+02  0.30012078614E+02  0.74411236045E+01  0.46142318615E+02  0.10000007786E+02 0.  0.
         12    1    1    2    0    0  0.32756956944E+02 -0.30012078614E+02 -0.74411236045E+01  0.45045681385E+02  0.00000000000E+00 0. -1.
         11    1    3    3    0    0 -0.26360649345E+02  0.20235814178E+02  0.26087724243E+01  0.33334332199E+02  0.51100000000E-03 0. -1.
        -11    1    3    3    0    0 -0.21144658490E+01  0.36456267452E+01  0.72508141038E+00  0.42763656889E+01  0.51100000000E-03 0.  1.
        -12    1    3    3    0    0 -0.42818417493E+01  0.61306376908E+01  0.41072697699E+01  0.85316207267E+01  0.00000000000E+00 0.  1.
</event>
<event>
 7    1  0.2312612E-008  0.4614232E+02  0.7816164E-02  0.1320468E+00
        -11   -1    0    0    0    0  0.00000000000E+00  0.00000000000E+00  0.45593999997E+02  0.45594000000E+02  0.51100000000E-03 0. -1.
         11   -1    0    0    0    0 -0.00000000000E+00 -0.00000000000E+00 -0.45593999997E+02  0.45594000000E+02  0.51100000000E-03 0.  1.
    9900012    2    1    2    0    0  0.22962579141E+02  0.38035553778E+02 -0.74249657844E+01  0.46142317533E+02  0.99999979192E+01 0.  0.
         12    1    1    2    0    0 -0.22962579141E+02 -0.38035553778E+02  0.74249657844E+01  0.45045682467E+02  0.00000000000E+00 0. -1.
         11    1    3    3    0    0  0.41108077168E+01  0.65163657911E+01  0.55524963154E+00  0.77246401613E+01  0.51100000000E-03 0. -1.
        -11    1    3    3    0    0  0.11651799253E+02  0.12970448144E+02 -0.59248086425E+01  0.18414676446E+02  0.51100000000E-03 0.  1.
         12    1    3    3    0    0  0.71999721713E+01  0.18548739843E+02 -0.20554067735E+01  0.20003000926E+02  0.00000000000E+00 0. -1.
</event>
<event>
 7    1  0.2312612E-008  0.4614232E+02  0.7816164E-02  0.1320468E+00
        -11   -1    0    0    0    0  0.00000000000E+00  0.00000000000E+00  0.45593999997E+02  0.45594000000E+02  0.51100000000E-03 0. -1.
         11   -1    0    0    0    0 -0.00000000000E+00 -0.00000000000E+00 -0.45593999997E+02  0.45594000000E+02  0.51100000000E-03 0.  1.
    9900012    2    1    2    0    0 -0.22493334754E+02 -0.23292065336E+02 -0.31315220897E+02  0.46142317901E+02  0.10000001273E+02 0.  0.
         12    1    1    2    0    0  0.22493334754E+02  0.23292065336E+02  0.31315220897E+02  0.45045682099E+02  0.00000000000E+00 0. -1.
         11    1    3    3    0    0 -0.12164106588E+02 -0.17795762365E+02 -0.16622220415E+02  0.27220449280E+02  0.51100000000E-03 0. -1.
        -11    1    3    3    0    0 -0.68803570025E+01 -0.40946043448E+01 -0.83594256012E+01  0.11575193038E+02  0.51100000000E-03 0.  1.
         12    1    3    3    0    0 -0.34488711639E+01 -0.14016986258E+01 -0.63335748809E+01  0.73466755825E+01  0.00000000000E+00 0. -1.
</event>
<event>
 7    1  0.2312612E-008  0.4614232E+02  0.7816164E-02  0.1320468E+00
        -11   -1    0    0    0    0  0.00000000000E+00  0.00000000000E+00  0.45593999997E+02  0.45594000000E+02  0.51100000000E-03 0.  1.
         11   -1    0    0    0    0 -0.00000000000E+00 -0.00000000000E+00 -0.45593999997E+02  0.45594000000E+02  0.51100000000E-03 0. -1.
    9900012    2    1    2    0    0 -0.44202683222E+01 -0.22372653319E+02  0.38846353126E+02  0.46142317191E+02  0.99999948029E+01 0.  0.
         12    1    1    2    0    0  0.44202683222E+01  0.22372653319E+02 -0.38846353126E+02  0.45045682809E+02  0.00000000000E+00 0. -1.
         11    1    3    3    0    0 -0.10219189779E+01 -0.72714933944E+01  0.65813284155E+01  0.98606702894E+01  0.51100000000E-03 0. -1.
        -11    1    3    3    0    0 -0.32532260801E+01 -0.33747079760E+01  0.11762215276E+02  0.12661826184E+02  0.51100000000E-03 0.  1.
        -12    1    3    3    0    0 -0.14512326426E+00 -0.11726451948E+02  0.20502809434E+02  0.23619820718E+02  0.00000000000E+00 0.  1.
</event>
<event>
 7    1  0.2312612E-008  0.4614232E+02  0.7816164E-02  0.1320468E+00
        -11   -1    0    0    0    0  0.00000000000E+00  0.00000000000E+00  0.45593999997E+02  0.45594000000E+02  0.51100000000E-03 0.  1.
         11   -1    0    0    0    0 -0.00000000000E+00 -0.00000000000E+00 -0.45593999997E+02  0.45594000000E+02  0.51100000000E-03 0. -1.
    9900012    2    1    2    0    0 -0.29486220208E+02  0.32862222132E+02  0.89303223113E+01  0.46142317830E+02  0.10000000625E+02 0.  0.
         12    1    1    2    0    0  0.29486220208E+02 -0.32862222132E+02 -0.89303223113E+01  0.45045682170E+02  0.00000000000E+00 0. -1.
         11    1    3    3    0    0 -0.61451770884E+01  0.70238488451E+01  0.40263953307E+01  0.10164128771E+02  0.51100000000E-03 0. -1.
        -11    1    3    3    0    0 -0.11200865158E+02  0.15909360171E+02  0.57001461687E+01  0.20274584779E+02  0.51100000000E-03 0.  1.
         12    1    3    3    0    0 -0.12140177962E+02  0.99290131155E+01 -0.79621918807E+00  0.15703604280E+02  0.00000000000E+00 0. -1.
</event>
<event>
 7    1  0.2312612E-008  0.4614232E+02  0.7816164E-02  0.1320468E+00
        -11   -1    0    0    0    0  0.00000000000E+00  0.00000000000E+00  0.45593999997E+02  0.45594000000E+02  0.51100000000E-03 0. -1.
         11   -1    0    0    0    0 -0.00000000000E+00 -0.00000000000E+00 -0.45593999997E+02  0.45594000000E+02  0.51100000000E-03 0.  1.
    9900012    2    1    2    0    0  0.22066882146E+01 -0.38424930635E+02 -0.23404455112E+02  0.46142320004E+02  0.10000020456E+02 0.  0.
         12    1    1    2    0    0 -0.22066882146E+01  0.38424930635E+02  0.23404455112E+02  0.45045679996E+02  0.00000000000E+00 0. -1.
         11    1    3    3    0    0  0.81377472202E+00 -0.12879635716E+02 -0.96097509945E+01  0.16090200742E+02  0.51100000000E-03 0. -1.
        -11    1    3    3    0    0 -0.23844234128E+01 -0.18367369167E+02 -0.86052643289E+01  0.20422935626E+02  0.51100000000E-03 0.  1.
         12    1    3    3    0    0  0.37773369054E+01 -0.71779257520E+01 -0.51894397884E+01  0.96291836370E+01  0.00000000000E+00 0. -1.
</event>
<event>
 7    1  0.2312612E-008  0.4614232E+02  0.7816164E-02  0.1320468E+00
        -11   -1    0    0    0    0  0.00000000000E+00  0.00000000000E+00  0.45593999997E+02  0.45594000000E+02  0.51100000000E-03 0. -1.
         11   -1    0    0    0    0 -0.00000000000E+00 -0.00000000000E+00 -0.45593999997E+02  0.45594000000E+02  0.51100000000E-03 0.  1.
    9900012    2    1    2    0    0  0.43339913173E+02  0.64985827249E+01  0.10417941348E+02  0.46142321482E+02  0.10000033926E+02 0.  0.
         12    1    1    2    0    0 -0.43339913173E+02 -0.64985827249E+01 -0.10417941348E+02  0.45045678518E+02  0.00000000000E+00 0. -1.
         11    1    3    3    0    0  0.78173724018E+01  0.39831255936E+01  0.32417117633E+01  0.93533574817E+01  0.51100000000E-03 0. -1.
        -11    1    3    3    0    0  0.19460764082E+02  0.20583380736E+01  0.67973189819E+01  0.20716216834E+02  0.51100000000E-03 0.  1.
        -12    1    3    3    0    0  0.16061776688E+02  0.45711905773E+00  0.37891060306E+00  0.16072747166E+02  0.00000000000E+00 0.  1.
</event>
<event>
 7    1  0.2312612E-008  0.4614232E+02  0.7816164E-02  0.1320468E+00
        -11   -1    0    0    0    0  0.00000000000E+00  0.00000000000E+00  0.45593999997E+02  0.45594000000E+02  0.51100000000E-03 0.  1.
         11   -1    0    0    0    0 -0.00000000000E+00 -0.00000000000E+00 -0.45593999997E+02  0.45594000000E+02  0.51100000000E-03 0. -1.
    9900012    2    1    2    0    0  0.99613313000E+01  0.16432584067E+02  0.40741325013E+02  0.46142317585E+02  0.99999983965E+01 0.  0.
         12    1    1    2    0    0 -0.99613313000E+01 -0.16432584067E+02 -0.40741325013E+02  0.45045682415E+02  0.00000000000E+00 0. -1.
         11    1    3    3    0    0  0.39537219625E+01  0.30830995791E+01  0.60213471530E+01  0.78354350339E+01  0.51100000000E-03 0. -1.
        -11    1    3    3    0    0  0.71514145917E+01  0.10913847771E+02  0.24734025377E+02  0.27964742363E+02  0.51100000000E-03 0.  1.
        -12    1    3    3    0    0 -0.11438052542E+01  0.24356367164E+01  0.99859524832E+01  0.10342140188E+02  0.00000000000E+00 0.  1.
</event>
<event>
 7    1  0.2312612E-008  0.4614232E+02  0.7816164E-02  0.1320468E+00
        -11   -1    0    0    0    0  0.00000000000E+00  0.00000000000E+00  0.45593999997E+02  0.45594000000E+02  0.51100000000E-03 0.  1.
         11   -1    0    0    0    0 -0.00000000000E+00 -0.00000000000E+00 -0.45593999997E+02  0.45594000000E+02  0.51100000000E-03 0. -1.
    9900012    2    1    2    0    0  0.44838448047E+02 -0.40776555558E+01  0.14141710992E+01  0.46142316766E+02  0.99999909300E+01 0.  0.
         12    1    1    2    0    0 -0.44838448047E+02  0.40776555558E+01 -0.14141710992E+01  0.45045683234E+02  0.00000000000E+00 0. -1.
         11    1    3    3    0    0  0.13450681021E+02 -0.16586938110E+01 -0.30990219618E+01  0.13902374706E+02  0.51100000000E-03 0. -1.
        -11    1    3    3    0    0  0.26270063305E+02 -0.36584338239E+01  0.26554349654E+01  0.26656175629E+02  0.51100000000E-03 0.  1.
         12    1    3    3    0    0  0.51177037211E+01  0.12394720791E+01  0.18577580956E+01  0.55837664308E+01  0.00000000000E+00 0. -1.
</event>
<event>
 7    1  0.2312612E-008  0.4614232E+02  0.7816164E-02  0.1320468E+00
        -11   -1    0    0    0    0  0.00000000000E+00  0.00000000000E+00  0.45593999997E+02  0.45594000000E+02  0.51100000000E-03 0.  1.
         11   -1    0    0    0    0 -0.00000000000E+00 -0.00000000000E+00 -0.45593999997E+02  0.45594000000E+02  0.51100000000E-03 0. -1.
    9900012    2    1    2    0    0 -0.26483238966E+02  0.36413762309E+02 -0.13377008497E+01  0.46142317908E+02  0.10000001338E+02 0.  0.
         12    1    1    2    0    0  0.26483238966E+02 -0.36413762309E+02  0.13377008497E+01  0.45045682092E+02  0.00000000000E+00 0. -1.
         11    1    3    3    0    0 -0.16842363256E+01  0.15444562610E+01 -0.14917835036E+01  0.27289953143E+01  0.51100000000E-03 0. -1.
        -11    1    3    3    0    0 -0.14136601365E+02  0.14899292293E+02 -0.21856699188E+01  0.20654528856E+02  0.51100000000E-03 0.  1.
         12    1    3    3    0    0 -0.10662401275E+02  0.19970013755E+02  0.23397525727E+01  0.22758793738E+02  0.00000000000E+00 0. -1.
</event>
<event>
 7    1  0.2312612E-008  0.4614232E+02  0.7816164E-02  0.1320468E+00
        -11   -1    0    0    0    0  0.00000000000E+00  0.00000000000E+00  0.45593999997E+02  0.45594000000E+02  0.51100000000E-03 0. -1.
         11   -1    0    0    0    0 -0.00000000000E+00 -0.00000000000E+00 -0.45593999997E+02  0.45594000000E+02  0.51100000000E-03 0.  1.
    9900012    2    1    2    0    0 -0.25882367753E+02 -0.35993199686E+02  0.79816093814E+01  0.46142317938E+02  0.10000001613E+02 0.  0.
         12    1    1    2    0    0  0.25882367753E+02  0.35993199686E+02 -0.79816093814E+01  0.45045682062E+02  0.00000000000E+00 0. -1.
         11    1    3    3    0    0 -0.74813541730E-01 -0.85479531323E+00 -0.14122513913E+00  0.86960732206E+00  0.51100000000E-03 0. -1.
        -11    1    3    3    0    0 -0.25244254599E+02 -0.29482776176E+02  0.64331880042E+01  0.39343263585E+02  0.51100000000E-03 0.  1.
        -12    1    3    3    0    0 -0.56329961181E+00 -0.56556281962E+01  0.16896465163E+01  0.59294470313E+01  0.00000000000E+00 0.  1.
</event>
<event>
 7    1  0.2312612E-008  0.4614232E+02  0.7816164E-02  0.1320468E+00
        -11   -1    0    0    0    0  0.00000000000E+00  0.00000000000E+00  0.45593999997E+02  0.45594000000E+02  0.51100000000E-03 0.  1.
         11   -1    0    0    0    0 -0.00000000000E+00 -0.00000000000E+00 -0.45593999997E+02  0.45594000000E+02  0.51100000000E-03 0. -1.
    9900012    2    1    2    0    0 -0.94737570712E+01  0.37097195537E+02  0.23730980863E+02  0.46142318271E+02  0.10000004648E+02 0.  0.
         12    1    1    2    0    0  0.94737570712E+01 -0.37097195537E+02 -0.23730980863E+02  0.45045681729E+02  0.00000000000E+00 0. -1.
         11    1    3    3    0    0  0.10478573211E+01  0.51173518571E+00  0.18239247948E+01  0.21648509843E+01  0.51100000000E-03 0. -1.
        -11    1    3    3    0    0 -0.22408862304E+01  0.51633077256E+01  0.28976940048E+01  0.63307146969E+01  0.51100000000E-03 0.  1.
        -12    1    3    3    0    0 -0.82807281619E+01  0.31422152625E+02  0.19009362063E+02  0.37646752590E+02  0.00000000000E+00 0.  1.
</event>
<event>
 7    1  0.2312612E-008  0.4614232E+02  0.7816164E-02  0.1320468E+00
        -11   -1    0    0    0    0  0.00000000000E+00  0.00000000000E+00  0.45593999997E+02  0.45594000000E+02  0.51100000000E-03 0.  1.
         11   -1    0    0    0    0 -0.00000000000E+00 -0.00000000000E+00 -0.45593999997E+02  0.45594000000E+02  0.51100000000E-03 0. -1.
    9900012    2    1    2    0    0  0.12593217974E+02 -0.16989627334E+01  0.43216176978E+02  0.46142316900E+02  0.99999921506E+01 0.  0.
         12    1    1    2    0    0 -0.12593217974E+02  0.16989627334E+01 -0.43216176978E+02  0.45045683100E+02  0.00000000000E+00 0. -1.
         11    1    3    3    0    0  0.70607526677E+01 -0.22215987326E+01  0.36509613672E+02  0.37252404216E+02  0.51100000000E-03 0. -1.
        -11    1    3    3    0    0  0.20708002810E+01 -0.14752795190E+00  0.37591403373E+01  0.42943118934E+01  0.51100000000E-03 0.  1.
        -12    1    3    3    0    0  0.34616650255E+01  0.67016395104E+00  0.29474229690E+01  0.45956007908E+01  0.00000000000E+00 0.  1.
</event>
<event>
 7    1  0.2312612E-008  0.4614232E+02  0.7816164E-02  0.1320468E+00
        -11   -1    0    0    0    0  0.00000000000E+00  0.00000000000E+00  0.45593999997E+02  0.45594000000E+02  0.51100000000E-03 0.  1.
         11   -1    0    0    0    0 -0.00000000000E+00 -0.00000000000E+00 -0.45593999997E+02  0.45594000000E+02  0.51100000000E-03 0. -1.
    9900012    2    1    2    0    0 -0.33569427860E+02 -0.20203638718E+02  0.22226561206E+02  0.46142317328E+02  0.99999960529E+01 0.  0.
         12    1    1    2    0    0  0.33569427860E+02  0.20203638718E+02 -0.22226561206E+02  0.45045682672E+02  0.00000000000E+00 0. -1.
         11    1    3    3    0    0 -0.73945475471E+01 -0.85452732422E+01  0.46768867407E+01  0.12230057157E+02  0.51100000000E-03 0. -1.
        -11    1    3    3    0    0 -0.13094186692E+02 -0.80832719948E+01  0.10496237416E+02  0.18627077372E+02  0.51100000000E-03 0.  1.
        -12    1    3    3    0    0 -0.13080693620E+02 -0.35750934811E+01  0.70534370496E+01  0.15285182799E+02  0.00000000000E+00 0.  1.
</event>
<event>
 7    1  0.2312612E-008  0.4614232E+02  0.7816164E-02  0.1320468E+00
        -11   -1    0    0    0    0  0.00000000000E+00  0.00000000000E+00  0.45593999997E+02  0.45594000000E+02  0.51100000000E-03 0.  1.
         11   -1    0    0    0    0 -0.00000000000E+00 -0.00000000000E+00 -0.45593999997E+02  0.45594000000E+02  0.51100000000E-03 0. -1.
    9900012    2    1    2    0    0  0.22862488141E+02  0.63101499537E+01  0.38296242003E+02  0.46142317543E+02  0.99999980110E+01 0.  0.
         12    1    1    2    0    0 -0.22862488141E+02 -0.63101499537E+01 -0.38296242003E+02  0.45045682457E+02  0.00000000000E+00 0. -1.
         11    1    3    3    0    0  0.55227642692E+01  0.13431612048E+01  0.44482762493E+01  0.72174904950E+01  0.51100000000E-03 0. -1.
        -11    1    3    3    0    0  0.42767063083E+01 -0.13240986083E+01  0.10857246228E+02  0.11744072969E+02  0.51100000000E-03 0.  1.
        -12    1    3    3    0    0  0.13063017564E+02  0.62910873571E+01  0.22990719526E+02  0.27180754079E+02  0.00000000000E+00 0.  1.
</event>
<event>
 7    1  0.2312612E-008  0.4614232E+02  0.7816164E-02  0.1320468E+00
        -11   -1    0    0    0    0  0.00000000000E+00  0.00000000000E+00  0.45593999997E+02  0.45594000000E+02  0.51100000000E-03 0.  1.
         11   -1    0    0    0    0 -0.00000000000E+00 -0.00000000000E+00 -0.45593999997E+02  0.45594000000E+02  0.51100000000E-03 0. -1.
    9900012    2    1    2    0    0 -0.33465676826E+02  0.15898210354E+02  0.25620477660E+02  0.46142317705E+02  0.99999994918E+01 0.  0.
         12    1    1    2    0    0  0.33465676826E+02 -0.15898210354E+02 -0.25620477660E+02  0.45045682295E+02  0.00000000000E+00 0. -1.
         11    1    3    3    0    0 -0.34821730015E+01  0.26165359849E+01  0.95568282746E-01  0.43567101040E+01  0.51100000000E-03 0. -1.
        -11    1    3    3    0    0 -0.15910928309E+02  0.48634334646E+01  0.11734962869E+02  0.20359763715E+02  0.51100000000E-03 0.  1.
         12    1    3    3    0    0 -0.14072575515E+02  0.84182409045E+01  0.13789946508E+02  0.21425843887E+02  0.00000000000E+00 0. -1.
</event>
<event>
 7    1  0.2312612E-008  0.4614232E+02  0.7816164E-02  0.1320468E+00
        -11   -1    0    0    0    0  0.00000000000E+00  0.00000000000E+00  0.45593999997E+02  0.45594000000E+02  0.51100000000E-03 0.  1.
         11   -1    0    0    0    0 -0.00000000000E+00 -0.00000000000E+00 -0.45593999997E+02  0.45594000000E+02  0.51100000000E-03 0. -1.
    9900012    2    1    2    0    0  0.15426961448E+02 -0.44619417891E+01  0.42085787662E+02  0.46142316664E+02  0.99999899952E+01 0.  0.
         12    1    1    2    0    0 -0.15426961448E+02  0.44619417891E+01 -0.42085787662E+02  0.45045683336E+02  0.00000000000E+00 0. -1.
         11    1    3    3    0    0  0.73056467625E-01  0.24957334707E+00 -0.88307167555E-01  0.27463160778E+00  0.51100000000E-03 0. -1.
        -11    1    3    3    0    0  0.52050203447E+01  0.20415179427E+01  0.99246011670E+01  0.11391125532E+02  0.51100000000E-03 0.  1.
        -12    1    3    3    0    0  0.10148884636E+02 -0.67530330788E+01  0.32249493663E+02  0.34476559524E+02  0.00000000000E+00 0.  1.
</event>
<event>
 7    1  0.2312612E-008  0.4614232E+02  0.7816164E-02  0.1320468E+00
        -11   -1    0    0    0    0  0.00000000000E+00  0.00000000000E+00  0.45593999997E+02  0.45594000000E+02  0.51100000000E-03 0. -1.
         11   -1    0    0    0    0 -0.00000000000E+00 -0.00000000000E+00 -0.45593999997E+02  0.45594000000E+02  0.51100000000E-03 0.  1.
    9900012    2    1    2    0    0  0.31151117293E+02  0.25164909772E+02 -0.20626408296E+02  0.46142317503E+02  0.99999976461E+01 0.  0.
         12    1    1    2    0    0 -0.31151117293E+02 -0.25164909772E+02  0.20626408296E+02  0.45045682497E+02  0.00000000000E+00 0. -1.
         11    1    3    3    0    0  0.41016168590E+01  0.60102432433E+01 -0.56454893006E+01  0.92096598421E+01  0.51100000000E-03 0. -1.
        -11    1    3    3    0    0  0.10905028338E+02  0.99042407050E+01 -0.95246909081E+01  0.17542330636E+02  0.51100000000E-03 0.  1.
         12    1    3    3    0    0  0.16144472097E+02  0.92504258234E+01 -0.54562280870E+01  0.19390327025E+02  0.00000000000E+00 0. -1.
</event>
<event>
 7    1  0.2312612E-008  0.4614232E+02  0.7816164E-02  0.1320468E+00
        -11   -1    0    0    0    0  0.00000000000E+00  0.00000000000E+00  0.45593999997E+02  0.45594000000E+02  0.51100000000E-03 0.  1.
         11   -1    0    0    0    0 -0.00000000000E+00 -0.00000000000E+00 -0.45593999997E+02  0.45594000000E+02  0.51100000000E-03 0. -1.
    9900012    2    1    2    0    0  0.11199062916E+02  0.31293660985E+00  0.43630226625E+02  0.46142316357E+02  0.99999871962E+01 0.  0.
         12    1    1    2    0    0 -0.11199062916E+02 -0.31293660985E+00 -0.43630226625E+02  0.45045683643E+02  0.00000000000E+00 0. -1.
         11    1    3    3    0    0  0.70072307492E-01  0.11219320648E+01  0.97921675781E+00  0.14908076356E+01  0.51100000000E-03 0. -1.
        -11    1    3    3    0    0  0.37454084930E+01  0.11599340997E+01  0.56982644201E+01  0.69169176342E+01  0.51100000000E-03 0.  1.
        -12    1    3    3    0    0  0.73835821154E+01 -0.19689295547E+01  0.36952745447E+02  0.37734591087E+02  0.00000000000E+00 0.  1.
</event>
<event>
 7    1  0.2312612E-008  0.4614232E+02  0.7816164E-02  0.1320468E+00
        -11   -1    0    0    0    0  0.00000000000E+00  0.00000000000E+00  0.45593999997E+02  0.45594000000E+02  0.51100000000E-03 0.  1.
         11   -1    0    0    0    0 -0.00000000000E+00 -0.00000000000E+00 -0.45593999997E+02  0.45594000000E+02  0.51100000000E-03 0. -1.
    9900012    2    1    2    0    0 -0.34452081796E+02 -0.10484739856E+02  0.27059888398E+02  0.46142320184E+02  0.10000022096E+02 0.  0.
         12    1    1    2    0    0  0.34452081796E+02  0.10484739856E+02 -0.27059888398E+02  0.45045679816E+02  0.00000000000E+00 0. -1.
         11    1    3    3    0    0 -0.57974266746E+01  0.13679987695E+01  0.57326424529E+01  0.82670893569E+01  0.51100000000E-03 0. -1.
        -11    1    3    3    0    0 -0.84627738579E+01 -0.56007685574E+01  0.63913193723E+01  0.11993169447E+02  0.51100000000E-03 0.  1.
        -12    1    3    3    0    0 -0.20191881264E+02 -0.62519700677E+01  0.14935926573E+02  0.25882061380E+02  0.00000000000E+00 0.  1.
</event>
<event>
 7    1  0.2312612E-008  0.4614232E+02  0.7816164E-02  0.1320468E+00
        -11   -1    0    0    0    0  0.00000000000E+00  0.00000000000E+00  0.45593999997E+02  0.45594000000E+02  0.51100000000E-03 0.  1.
         11   -1    0    0    0    0 -0.00000000000E+00 -0.00000000000E+00 -0.45593999997E+02  0.45594000000E+02  0.51100000000E-03 0. -1.
    9900012    2    1    2    0    0  0.57336293073E+01  0.72799473802E+01  0.44082213531E+02  0.46142315538E+02  0.99999797273E+01 0.  0.
         12    1    1    2    0    0 -0.57336293073E+01 -0.72799473802E+01 -0.44082213531E+02  0.45045684462E+02  0.00000000000E+00 0. -1.
         11    1    3    3    0    0  0.23894086374E+01  0.65975650239E+01  0.24194126961E+02  0.25191127755E+02  0.51100000000E-03 0. -1.
        -11    1    3    3    0    0  0.40622637672E+01  0.23684632225E+01  0.15446237985E+02  0.16146141121E+02  0.51100000000E-03 0.  1.
         12    1    3    3    0    0 -0.71804309736E+00 -0.16860808663E+01  0.44418485840E+01  0.48050466617E+01  0.00000000000E+00 0. -1.
</event>
<event>
 7    1  0.2312612E-008  0.4614232E+02  0.7816164E-02  0.1320468E+00
        -11   -1    0    0    0    0  0.00000000000E+00  0.00000000000E+00  0.45593999997E+02  0.45594000000E+02  0.51100000000E-03 0.  1.
         11   -1    0    0    0    0 -0.00000000000E+00 -0.00000000000E+00 -0.45593999997E+02  0.45594000000E+02  0.51100000000E-03 0. -1.
    9900012    2    1    2    0    0  0.23900062312E+02  0.15715051938E+02  0.34798529318E+02  0.46142317869E+02  0.10000000982E+02 0.  0.
         12    1    1    2    0    0 -0.23900062312E+02 -0.15715051938E+02 -0.34798529318E+02  0.45045682131E+02  0.00000000000E+00 0. -1.
         11    1    3    3    0    0  0.26875921625E+01 -0.16578207316E+00  0.48867434708E+01  0.55795069082E+01  0.51100000000E-03 0. -1.
        -11    1    3    3    0    0  0.65855137826E+01  0.70290987983E+01  0.15265404668E+02  0.18050202260E+02  0.51100000000E-03 0.  1.
        -12    1    3    3    0    0  0.14626956367E+02  0.88517352133E+01  0.14646381180E+02  0.22512608701E+02  0.00000000000E+00 0.  1.
</event>
<event>
 7    1  0.2312612E-008  0.4614231E+02  0.7816164E-02  0.1320468E+00
        -11   -1    0    0    0    0  0.00000000000E+00  0.00000000000E+00  0.45593999997E+02  0.45594000000E+02  0.51100000000E-03 0.  1.
         11   -1    0    0    0    0 -0.00000000000E+00 -0.00000000000E+00 -0.45593999997E+02  0.45594000000E+02  0.51100000000E-03 0. -1.
    9900012    2    1    2    0    0  0.27667070977E+02 -0.51977394141E+01  0.35165767493E+02  0.46142306367E+02  0.99998961034E+01 0.  0.
         12    1    1    2    0    0 -0.27667070977E+02  0.51977394141E+01 -0.35165767493E+02  0.45045693633E+02  0.00000000000E+00 0. -1.
         11    1    3    3    0    0  0.32444276110E+01 -0.88402092526E+00  0.73285754814E+01  0.80632389501E+01  0.51100000000E-03 0. -1.
        -11    1    3    3    0    0  0.23717001308E+02 -0.34399710226E+01  0.23372984131E+02  0.33475751510E+02  0.51100000000E-03 0.  1.
        -12    1    3    3    0    0  0.70564205824E+00 -0.87374746618E+00  0.44642078798E+01  0.46033159074E+01  0.00000000000E+00 0.  1.
</event>
<event>
 7    1  0.2312612E-008  0.4614232E+02  0.7816164E-02  0.1320468E+00
        -11   -1    0    0    0    0  0.00000000000E+00  0.00000000000E+00  0.45593999997E+02  0.45594000000E+02  0.51100000000E-03 0.  1.
         11   -1    0    0    0    0 -0.00000000000E+00 -0.00000000000E+00 -0.45593999997E+02  0.45594000000E+02  0.51100000000E-03 0. -1.
    9900012    2    1    2    0    0  0.34235521075E+01 -0.53730388841E+01  0.44592860683E+02  0.46142317857E+02  0.10000000872E+02 0.  0.
         12    1    1    2    0    0 -0.34235521075E+01  0.53730388841E+01 -0.44592860683E+02  0.45045682143E+02  0.00000000000E+00 0. -1.
         11    1    3    3    0    0  0.88701340870E+00 -0.14865755308E+01  0.31477279345E+01  0.35923378191E+01  0.51100000000E-03 0. -1.
        -11    1    3    3    0    0  0.45947124446E+01  0.65893581792E+00  0.20405682461E+02  0.20926955245E+02  0.51100000000E-03 0.  1.
        -12    1    3    3    0    0 -0.20581737459E+01 -0.45453991712E+01  0.21039450287E+02  0.21623024792E+02  0.00000000000E+00 0.  1.
</event>
<event>
 7    1  0.2312612E-008  0.4614232E+02  0.7816164E-02  0.1320468E+00
        -11   -1    0    0    0    0  0.00000000000E+00  0.00000000000E+00  0.45593999997E+02  0.45594000000E+02  0.51100000000E-03 0.  1.
         11   -1    0    0    0    0 -0.00000000000E+00 -0.00000000000E+00 -0.45593999997E+02  0.45594000000E+02  0.51100000000E-03 0. -1.
    9900012    2    1    2    0    0 -0.16584498987E+02 -0.16406474948E+02  0.38534341451E+02  0.46142317655E+02  0.99999990315E+01 0.  0.
         12    1    1    2    0    0  0.16584498987E+02  0.16406474948E+02 -0.38534341451E+02  0.45045682345E+02  0.00000000000E+00 0. -1.
         11    1    3    3    0    0 -0.89692274419E-01  0.29465379691E+00  0.17955346061E-01  0.30852588173E+00  0.51100000000E-03 0. -1.
        -11    1    3    3    0    0 -0.10075202550E+02 -0.60402460282E+01  0.23947038836E+02  0.26673112825E+02  0.51100000000E-03 0.  1.
         12    1    3    3    0    0 -0.64196041625E+01 -0.10660882717E+02  0.14569347269E+02  0.19160678948E+02  0.00000000000E+00 0. -1.
</event>
<event>
 7    1  0.2312612E-008  0.4614232E+02  0.7816164E-02  0.1320468E+00
        -11   -1    0    0    0    0  0.00000000000E+00  0.00000000000E+00  0.45593999997E+02  0.45594000000E+02  0.51100000000E-03 0. -1.
         11   -1    0    0    0    0 -0.00000000000E+00 -0.00000000000E+00 -0.45593999997E+02  0.45594000000E+02  0.51100000000E-03 0.  1.
    9900012    2    1    2    0    0 -0.41409590905E+02 -0.17390580282E+02  0.34535455080E+01  0.46142317876E+02  0.10000001044E+02 0.  0.
         12    1    1    2    0    0  0.41409590905E+02  0.17390580282E+02 -0.34535455080E+01  0.45045682124E+02  0.00000000000E+00 0. -1.
         11    1    3    3    0    0 -0.17111226022E+02 -0.55801432950E+01  0.48265026189E+01  0.18634032923E+02  0.51100000000E-03 0. -1.
        -11    1    3    3    0    0 -0.59631942096E+01 -0.19995517503E+01  0.16307344113E+01  0.64974754608E+01  0.51100000000E-03 0.  1.
        -12    1    3    3    0    0 -0.18335170673E+02 -0.98108852369E+01 -0.30036915222E+01  0.21010809492E+02  0.00000000000E+00 0.  1.
</event>
<event>
 7    1  0.2312612E-008  0.4614232E+02  0.7816164E-02  0.1320468E+00
        -11   -1    0    0    0    0  0.00000000000E+00  0.00000000000E+00  0.45593999997E+02  0.45594000000E+02  0.51100000000E-03 0.  1.
         11   -1    0    0    0    0 -0.00000000000E+00 -0.00000000000E+00 -0.45593999997E+02  0.45594000000E+02  0.51100000000E-03 0. -1.
    9900012    2    1    2    0    0  0.14356437408E+02 -0.36663649252E+02  0.21881111564E+02  0.46142317468E+02  0.99999973264E+01 0.  0.
         12    1    1    2    0    0 -0.14356437408E+02  0.36663649252E+02 -0.21881111564E+02  0.45045682532E+02  0.00000000000E+00 0. -1.
         11    1    3    3    0    0  0.34807402737E+01 -0.39341814544E+01  0.78386049835E+00  0.53110991434E+01  0.51100000000E-03 0. -1.
        -11    1    3    3    0    0  0.32422216604E+01 -0.72277326968E+01  0.23169955561E+01  0.82535198491E+01  0.51100000000E-03 0.  1.
        -12    1    3    3    0    0  0.76334754737E+01 -0.25501735101E+02  0.18780255509E+02  0.32577698475E+02  0.00000000000E+00 0.  1.
</event>
<event>
 7    1  0.2395188E-008  0.4614232E+02  0.7816164E-02  0.1320468E+00
        -11   -1    0    0    0    0  0.00000000000E+00  0.00000000000E+00  0.45593999997E+02  0.45594000000E+02  0.51100000000E-03 0. -1.
         11   -1    0    0    0    0 -0.00000000000E+00 -0.00000000000E+00 -0.45593999997E+02  0.45594000000E+02  0.51100000000E-03 0.  1.
    9900012    2    1    2    0    0  0.44619900249E+02  0.61784423519E+01  0.71250830775E-01  0.46142315136E+02  0.99999760638E+01 0.  0.
         12    1    1    2    0    0 -0.44619900249E+02 -0.61784423519E+01 -0.71250830775E-01  0.45045684864E+02  0.00000000000E+00 0. -1.
         11    1    3    3    0    0  0.25034213662E+00  0.31606189947E+00 -0.73976991495E+00  0.84251177905E+00  0.51100000000E-03 0. -1.
        -11    1    3    3    0    0  0.62338944400E+01  0.84438568462E+00 -0.23274989258E+01  0.67075836621E+01  0.51100000000E-03 0.  1.
        -12    1    3    3    0    0  0.38135663673E+02  0.50179947678E+01  0.31385196715E+01  0.38592219695E+02  0.00000000000E+00 0.  1.
</event>
<event>
 7    1  0.2312612E-008  0.4614232E+02  0.7816164E-02  0.1320468E+00
        -11   -1    0    0    0    0  0.00000000000E+00  0.00000000000E+00  0.45593999997E+02  0.45594000000E+02  0.51100000000E-03 0. -1.
         11   -1    0    0    0    0 -0.00000000000E+00 -0.00000000000E+00 -0.45593999997E+02  0.45594000000E+02  0.51100000000E-03 0.  1.
    9900012    2    1    2    0    0  0.43632471354E+02 -0.25173751447E+01 -0.10907971430E+02  0.46142316802E+02  0.99999912532E+01 0.  0.
         12    1    1    2    0    0 -0.43632471354E+02  0.25173751447E+01  0.10907971430E+02  0.45045683198E+02  0.00000000000E+00 0. -1.
         11    1    3    3    0    0  0.35780916573E+02 -0.16703732573E-01 -0.10338754947E+02  0.37244652286E+02  0.51100000000E-03 0. -1.
        -11    1    3    3    0    0  0.25000918653E+01 -0.13171685394E+01 -0.17051128482E+01  0.33004245760E+01  0.51100000000E-03 0.  1.
         12    1    3    3    0    0  0.53514629157E+01 -0.11835028727E+01  0.11358963653E+01  0.55972399396E+01  0.00000000000E+00 0. -1.
</event>
<event>
 7    1  0.2312612E-008  0.4614232E+02  0.7816164E-02  0.1320468E+00
        -11   -1    0    0    0    0  0.00000000000E+00  0.00000000000E+00  0.45593999997E+02  0.45594000000E+02  0.51100000000E-03 0.  1.
         11   -1    0    0    0    0 -0.00000000000E+00 -0.00000000000E+00 -0.45593999997E+02  0.45594000000E+02  0.51100000000E-03 0. -1.
    9900012    2    1    2    0    0  0.10026532772E+02  0.29388784205E+02  0.32632521521E+02  0.46142318106E+02  0.10000003148E+02 0.  0.
         12    1    1    2    0    0 -0.10026532772E+02 -0.29388784205E+02 -0.32632521521E+02  0.45045681894E+02  0.00000000000E+00 0. -1.
         11    1    3    3    0    0  0.53821998360E+01  0.10163004800E+02  0.13249408257E+02  0.17544274310E+02  0.51100000000E-03 0. -1.
        -11    1    3    3    0    0  0.52063303064E+01  0.10584400985E+02  0.14373043091E+02  0.18593541552E+02  0.51100000000E-03 0.  1.
        -12    1    3    3    0    0 -0.56199737024E+00  0.86413784188E+01  0.50100701729E+01  0.10004502244E+02  0.00000000000E+00 0.  1.
</event>
<event>
 7    1  0.2312612E-008  0.4614232E+02  0.7816164E-02  0.1320468E+00
        -11   -1    0    0    0    0  0.00000000000E+00  0.00000000000E+00  0.45593999997E+02  0.45594000000E+02  0.51100000000E-03 0.  1.
         11   -1    0    0    0    0 -0.00000000000E+00 -0.00000000000E+00 -0.45593999997E+02  0.45594000000E+02  0.51100000000E-03 0. -1.
    9900012    2    1    2    0    0 -0.12837860263E+02  0.36541994025E+02  0.22999684028E+02  0.46142318200E+02  0.10000004004E+02 0.  0.
         12    1    1    2    0    0  0.12837860263E+02 -0.36541994025E+02 -0.22999684028E+02  0.45045681800E+02  0.00000000000E+00 0. -1.
         11    1    3    3    0    0 -0.86463582330E+00  0.11559641333E+02  0.68243588395E+01  0.13451571532E+02  0.51100000000E-03 0. -1.
        -11    1    3    3    0    0 -0.87425467863E+01  0.22575153556E+02  0.12538691595E+02  0.27263317289E+02  0.51100000000E-03 0.  1.
         12    1    3    3    0    0 -0.32306776535E+01  0.24071991354E+01  0.36366335933E+01  0.54274293796E+01  0.00000000000E+00 0. -1.
</event>
<event>
 7    1  0.2312612E-008  0.4614231E+02  0.7816164E-02  0.1320468E+00
        -11   -1    0    0    0    0  0.00000000000E+00  0.00000000000E+00  0.45593999997E+02  0.45594000000E+02  0.51100000000E-03 0. -1.
         11   -1    0    0    0    0 -0.00000000000E+00 -0.00000000000E+00 -0.45593999997E+02  0.45594000000E+02  0.51100000000E-03 0.  1.
    9900012    2    1    2    0    0  0.14405521382E+02  0.65620565205E+01 -0.42172673439E+02  0.46142311893E+02  0.99999464881E+01 0.  0.
         12    1    1    2    0    0 -0.14405521382E+02 -0.65620565205E+01  0.42172673439E+02  0.45045688107E+02  0.00000000000E+00 0. -1.
         11    1    3    3    0    0  0.96527744473E+00 -0.86085544896E+00 -0.10355685003E+01  0.16568750796E+01  0.51100000000E-03 0. -1.
        -11    1    3    3    0    0  0.71731452658E+01 -0.54207896182E-01 -0.17803869601E+02  0.19194653540E+02  0.51100000000E-03 0.  1.
        -12    1    3    3    0    0  0.62670986716E+01  0.74771198656E+01 -0.23333235338E+02  0.25290783273E+02  0.00000000000E+00 0.  1.
</event>
<event>
 7    1  0.2312612E-008  0.4614232E+02  0.7816164E-02  0.1320468E+00
        -11   -1    0    0    0    0  0.00000000000E+00  0.00000000000E+00  0.45593999997E+02  0.45594000000E+02  0.51100000000E-03 0. -1.
         11   -1    0    0    0    0 -0.00000000000E+00 -0.00000000000E+00 -0.45593999997E+02  0.45594000000E+02  0.51100000000E-03 0.  1.
    9900012    2    1    2    0    0  0.43628356048E+02 -0.90102059417E+01  0.66705414926E+01  0.46142318893E+02  0.10000010324E+02 0.  0.
         12    1    1    2    0    0 -0.43628356048E+02  0.90102059417E+01 -0.66705414926E+01  0.45045681107E+02  0.00000000000E+00 0. -1.
         11    1    3    3    0    0  0.55193244454E+01 -0.34930092015E+00  0.36939919319E+01  0.66506037411E+01  0.51100000000E-03 0. -1.
        -11    1    3    3    0    0  0.23440903811E+02 -0.41794291053E+01 -0.28054290091E+00  0.23812230129E+02  0.51100000000E-03 0.  1.
        -12    1    3    3    0    0  0.14668127791E+02 -0.44814759162E+01  0.32570924616E+01  0.15679485023E+02  0.00000000000E+00 0.  1.
</event>
<event>
 7    1  0.2312612E-008  0.4614232E+02  0.7816164E-02  0.1320468E+00
        -11   -1    0    0    0    0  0.00000000000E+00  0.00000000000E+00  0.45593999997E+02  0.45594000000E+02  0.51100000000E-03 0.  1.
         11   -1    0    0    0    0 -0.00000000000E+00 -0.00000000000E+00 -0.45593999997E+02  0.45594000000E+02  0.51100000000E-03 0. -1.
    9900012    2    1    2    0    0 -0.35480026275E+02 -0.16548182912E+02  0.22280906422E+02  0.46142318596E+02  0.10000007613E+02 0.  0.
         12    1    1    2    0    0  0.35480026275E+02  0.16548182912E+02 -0.22280906422E+02  0.45045681404E+02  0.00000000000E+00 0. -1.
         11    1    3    3    0    0 -0.20946761058E+02 -0.12675597755E+02  0.16431356760E+02  0.29486048608E+02  0.51100000000E-03 0.  1.
        -11    1    3    3    0    0  0.11940589546E+00 -0.32423568919E-01  0.61876928771E+00  0.63101881765E+00  0.51100000000E-03 0. -1.
        -12    1    3    3    0    0 -0.14652671112E+02 -0.38401615882E+01  0.52307803743E+01  0.16025251170E+02  0.00000000000E+00 0.  1.
</event>
<event>
 7    1  0.2312612E-008  0.4614233E+02  0.7816164E-02  0.1320468E+00
        -11   -1    0    0    0    0  0.00000000000E+00  0.00000000000E+00  0.45593999997E+02  0.45594000000E+02  0.51100000000E-03 0.  1.
         11   -1    0    0    0    0 -0.00000000000E+00 -0.00000000000E+00 -0.45593999997E+02  0.45594000000E+02  0.51100000000E-03 0. -1.
    9900012    2    1    2    0    0 -0.61649732624E+01 -0.21685236614E+02  0.38998157095E+02  0.46142327188E+02  0.10000085958E+02 0.  0.
         12    1    1    2    0    0  0.61649732624E+01  0.21685236614E+02 -0.38998157095E+02  0.45045672812E+02  0.00000000000E+00 0. -1.
         11    1    3    3    0    0 -0.43690114638E+00 -0.38061687345E+01  0.33129297933E+01  0.50649093895E+01  0.51100000000E-03 0. -1.
        -11    1    3    3    0    0  0.10110179431E+01 -0.78459025875E+01  0.10541879350E+02  0.13179968330E+02  0.51100000000E-03 0.  1.
        -12    1    3    3    0    0 -0.67390900591E+01 -0.10033165292E+02  0.25143347952E+02  0.27897449468E+02  0.00000000000E+00 0.  1.
</event>
<event>
 7    1  0.2312612E-008  0.4614232E+02  0.7816164E-02  0.1320468E+00
        -11   -1    0    0    0    0  0.00000000000E+00  0.00000000000E+00  0.45593999997E+02  0.45594000000E+02  0.51100000000E-03 0.  1.
         11   -1    0    0    0    0 -0.00000000000E+00 -0.00000000000E+00 -0.45593999997E+02  0.45594000000E+02  0.51100000000E-03 0. -1.
    9900012    2    1    2    0    0  0.60881940046E+01 -0.43935480846E+02  0.78562389440E+01  0.46142322363E+02  0.10000041967E+02 0.  0.
         12    1    1    2    0    0 -0.60881940046E+01  0.43935480846E+02 -0.78562389440E+01  0.45045677637E+02  0.00000000000E+00 0. -1.
         11    1    3    3    0    0  0.30480536001E+00 -0.12275383951E+02  0.48865900192E+01  0.13215775412E+02  0.51100000000E-03 0. -1.
        -11    1    3    3    0    0  0.24388207859E+01 -0.18923718733E+02 -0.11891250585E+01  0.19117243425E+02  0.51100000000E-03 0.  1.
         12    1    3    3    0    0  0.33445678588E+01 -0.12736378162E+02  0.41587739832E+01  0.13809303526E+02  0.00000000000E+00 0. -1.
</event>
<event>
 7    1  0.2312612E-008  0.4614232E+02  0.7816164E-02  0.1320468E+00
        -11   -1    0    0    0    0  0.00000000000E+00  0.00000000000E+00  0.45593999997E+02  0.45594000000E+02  0.51100000000E-03 0.  1.
         11   -1    0    0    0    0 -0.00000000000E+00 -0.00000000000E+00 -0.45593999997E+02  0.45594000000E+02  0.51100000000E-03 0. -1.
    9900012    2    1    2    0    0  0.39970851294E+02  0.17849492716E+02  0.10622634162E+02  0.46142315413E+02  0.99999785906E+01 0.  0.
         12    1    1    2    0    0 -0.39970851294E+02 -0.17849492716E+02 -0.10622634162E+02  0.45045684587E+02  0.00000000000E+00 0. -1.
         11    1    3    3    0    0  0.52718763121E+01  0.20180067427E+01  0.27645172220E+00  0.56516773510E+01  0.51100000000E-03 0.  1.
        -11    1    3    3    0    0  0.23257772826E+02  0.14551232511E+02  0.54030140854E+01  0.27961668868E+02  0.51100000000E-03 0. -1.
        -12    1    3    3    0    0  0.11441202155E+02  0.12802534619E+01  0.49431683545E+01  0.12528969194E+02  0.00000000000E+00 0.  1.
</event>
<event>
 7    1  0.2312612E-008  0.4614232E+02  0.7816164E-02  0.1320468E+00
        -11   -1    0    0    0    0  0.00000000000E+00  0.00000000000E+00  0.45593999997E+02  0.45594000000E+02  0.51100000000E-03 0. -1.
         11   -1    0    0    0    0 -0.00000000000E+00 -0.00000000000E+00 -0.45593999997E+02  0.45594000000E+02  0.51100000000E-03 0.  1.
    9900012    2    1    2    0    0 -0.10653361962E+02  0.43513005221E+02 -0.47156965541E+01  0.46142317206E+02  0.99999949337E+01 0.  0.
         12    1    1    2    0    0  0.10653361962E+02 -0.43513005221E+02  0.47156965541E+01  0.45045682794E+02  0.00000000000E+00 0. -1.
         11    1    3    3    0    0  0.65374402529E+00  0.56459528533E+00  0.22714921972E+00  0.89316634283E+00  0.51100000000E-03 0. -1.
        -11    1    3    3    0    0 -0.27902665084E+01  0.67883572393E+01 -0.33437640400E+01  0.80652426754E+01  0.51100000000E-03 0.  1.
         12    1    3    3    0    0 -0.85168394786E+01  0.36160052696E+02 -0.15990817338E+01  0.37183908187E+02  0.00000000000E+00 0. -1.
</event>
<event>
 7    1  0.2312612E-008  0.4614232E+02  0.7816164E-02  0.1320468E+00
        -11   -1    0    0    0    0  0.00000000000E+00  0.00000000000E+00  0.45593999997E+02  0.45594000000E+02  0.51100000000E-03 0.  1.
         11   -1    0    0    0    0 -0.00000000000E+00 -0.00000000000E+00 -0.45593999997E+02  0.45594000000E+02  0.51100000000E-03 0. -1.
    9900012    2    1    2    0    0  0.24315623092E+02  0.19487275721E+02  0.32528604691E+02  0.46142316916E+02  0.99999922929E+01 0.  0.
         12    1    1    2    0    0 -0.24315623092E+02 -0.19487275721E+02 -0.32528604691E+02  0.45045683084E+02  0.00000000000E+00 0. -1.
         11    1    3    3    0    0  0.86893868013E+01  0.82222320473E+01  0.10495397498E+02  0.15914267552E+02  0.51100000000E-03 0.  1.
        -11    1    3    3    0    0  0.36040436401E+01 -0.14110301542E+00  0.69006583999E+01  0.77864065675E+01  0.51100000000E-03 0. -1.
         12    1    3    3    0    0  0.12022192651E+02  0.11406146689E+02  0.15132548793E+02  0.22441642796E+02  0.00000000000E+00 0. -1.
</event>
<event>
 7    1  0.2312612E-008  0.4614232E+02  0.7816164E-02  0.1320468E+00
        -11   -1    0    0    0    0  0.00000000000E+00  0.00000000000E+00  0.45593999997E+02  0.45594000000E+02  0.51100000000E-03 0.  1.
         11   -1    0    0    0    0 -0.00000000000E+00 -0.00000000000E+00 -0.45593999997E+02  0.45594000000E+02  0.51100000000E-03 0. -1.
    9900012    2    1    2    0    0  0.83482313095E+01 -0.28980790070E+02  0.33459442765E+02  0.46142317974E+02  0.10000001937E+02 0.  0.
         12    1    1    2    0    0 -0.83482313095E+01  0.28980790070E+02 -0.33459442765E+02  0.45045682026E+02  0.00000000000E+00 0. -1.
         11    1    3    3    0    0  0.34932610318E+01 -0.58623534552E+01  0.92443731013E+01  0.11490365310E+02  0.51100000000E-03 0. -1.
        -11    1    3    3    0    0  0.53713102986E+01 -0.23369443402E+02  0.22650031955E+02  0.32984933031E+02  0.51100000000E-03 0.  1.
        -12    1    3    3    0    0 -0.51634002097E+00  0.25100678698E+00  0.15650377087E+01  0.16670196322E+01  0.00000000000E+00 0.  1.
</event>
<event>
 7    1  0.2312612E-008  0.4614232E+02  0.7816164E-02  0.1320468E+00
        -11   -1    0    0    0    0  0.00000000000E+00  0.00000000000E+00  0.45593999997E+02  0.45594000000E+02  0.51100000000E-03 0. -1.
         11   -1    0    0    0    0 -0.00000000000E+00 -0.00000000000E+00 -0.45593999997E+02  0.45594000000E+02  0.51100000000E-03 0.  1.
    9900012    2    1    2    0    0  0.15346937680E+02  0.14029623792E+02 -0.39959411524E+02  0.46142318639E+02  0.10000008007E+02 0.  0.
         12    1    1    2    0    0 -0.15346937680E+02 -0.14029623792E+02  0.39959411524E+02  0.45045681361E+02  0.00000000000E+00 0. -1.
         11    1    3    3    0    0  0.45500962906E+01  0.89586881962E+01 -0.12857550290E+02  0.16318028992E+02  0.51100000000E-03 0. -1.
        -11    1    3    3    0    0  0.45075440716E+00  0.11780462236E+01 -0.16611243183E+01  0.20857388864E+01  0.51100000000E-03 0.  1.
         12    1    3    3    0    0  0.10346086983E+02  0.38928893721E+01 -0.25440736915E+02  0.27738550761E+02  0.00000000000E+00 0. -1.
</event>
<event>
 7    1  0.2312612E-008  0.4614232E+02  0.7816164E-02  0.1320468E+00
        -11   -1    0    0    0    0  0.00000000000E+00  0.00000000000E+00  0.45593999997E+02  0.45594000000E+02  0.51100000000E-03 0.  1.
         11   -1    0    0    0    0 -0.00000000000E+00 -0.00000000000E+00 -0.45593999997E+02  0.45594000000E+02  0.51100000000E-03 0. -1.
    9900012    2    1    2    0    0 -0.17531460670E+01 -0.41356731384E+02  0.17766843700E+02  0.46142317776E+02  0.10000000139E+02 0.  0.
         12    1    1    2    0    0  0.17531460670E+01  0.41356731384E+02 -0.17766843700E+02  0.45045682224E+02  0.00000000000E+00 0. -1.
         11    1    3    3    0    0 -0.11291100705E+01 -0.37280154001E+02  0.15675262515E+02  0.40457368019E+02  0.51100000000E-03 0.  1.
        -11    1    3    3    0    0  0.11198943056E+01 -0.10663103315E+01  0.15032735037E+01  0.21566206126E+01  0.51100000000E-03 0. -1.
        -12    1    3    3    0    0 -0.17439303022E+01 -0.30102670521E+01  0.58830768108E+00  0.35283291444E+01  0.00000000000E+00 0.  1.
</event>
<event>
 7    1  0.2312612E-008  0.4614232E+02  0.7816164E-02  0.1320468E+00
        -11   -1    0    0    0    0  0.00000000000E+00  0.00000000000E+00  0.45593999997E+02  0.45594000000E+02  0.51100000000E-03 0.  1.
         11   -1    0    0    0    0 -0.00000000000E+00 -0.00000000000E+00 -0.45593999997E+02  0.45594000000E+02  0.51100000000E-03 0. -1.
    9900012    2    1    2    0    0 -0.27876882097E+02  0.27071536106E+02  0.22784314974E+02  0.46142316173E+02  0.99999855206E+01 0.  0.
         12    1    1    2    0    0  0.27876882097E+02 -0.27071536106E+02 -0.22784314974E+02  0.45045683827E+02  0.00000000000E+00 0. -1.
         11    1    3    3    0    0  0.12559327271E+00  0.54163550801E+00  0.13989331261E+01  0.15053759816E+01  0.51100000000E-03 0. -1.
        -11    1    3    3    0    0 -0.56717119451E+01  0.46120481065E+01  0.72726024946E+01  0.10311646398E+02  0.51100000000E-03 0.  1.
        -12    1    3    3    0    0 -0.22330763425E+02  0.21917852492E+02  0.14112779353E+02  0.34325293794E+02  0.00000000000E+00 0.  1.
</event>
<event>
 7    1  0.2312612E-008  0.4614232E+02  0.7816164E-02  0.1320468E+00
        -11   -1    0    0    0    0  0.00000000000E+00  0.00000000000E+00  0.45593999997E+02  0.45594000000E+02  0.51100000000E-03 0.  1.
         11   -1    0    0    0    0 -0.00000000000E+00 -0.00000000000E+00 -0.45593999997E+02  0.45594000000E+02  0.51100000000E-03 0. -1.
    9900012    2    1    2    0    0 -0.29175687483E+01  0.19909137103E+02  0.40301706984E+02  0.46142317261E+02  0.99999954396E+01 0.  0.
         12    1    1    2    0    0  0.29175687483E+01 -0.19909137103E+02 -0.40301706984E+02  0.45045682739E+02  0.00000000000E+00 0. -1.
         11    1    3    3    0    0 -0.18031645445E+00  0.15068464229E+02  0.21230429379E+02  0.26035019880E+02  0.51100000000E-03 0. -1.
        -11    1    3    3    0    0 -0.24512438852E+01  0.43691623843E+01  0.11856461142E+02  0.12871435335E+02  0.51100000000E-03 0.  1.
        -12    1    3    3    0    0 -0.28600840865E+00  0.47151048972E+00  0.72148164633E+01  0.72358620461E+01  0.00000000000E+00 0.  1.
</event>
<event>
 7    1  0.2312612E-008  0.4614232E+02  0.7816164E-02  0.1320468E+00
        -11   -1    0    0    0    0  0.00000000000E+00  0.00000000000E+00  0.45593999997E+02  0.45594000000E+02  0.51100000000E-03 0.  1.
         11   -1    0    0    0    0 -0.00000000000E+00 -0.00000000000E+00 -0.45593999997E+02  0.45594000000E+02  0.51100000000E-03 0. -1.
    9900012    2    1    2    0    0 -0.10692371183E+02 -0.22524706299E+02  0.37515653114E+02  0.46142318476E+02  0.10000006523E+02 0.  0.
         12    1    1    2    0    0  0.10692371183E+02  0.22524706299E+02 -0.37515653114E+02  0.45045681524E+02  0.00000000000E+00 0. -1.
         11    1    3    3    0    0  0.14101216052E+01 -0.27070526599E+01  0.73157528564E+01  0.79269677154E+01  0.51100000000E-03 0. -1.
        -11    1    3    3    0    0 -0.77961420823E+01 -0.10902964513E+02  0.15488837658E+02  0.20483128638E+02  0.51100000000E-03 0.  1.
         12    1    3    3    0    0 -0.43063507056E+01 -0.89146891255E+01  0.14711062600E+02  0.17732222123E+02  0.00000000000E+00 0. -1.
</event>
<event>
 7    1  0.2312612E-008  0.4614232E+02  0.7816164E-02  0.1320468E+00
        -11   -1    0    0    0    0  0.00000000000E+00  0.00000000000E+00  0.45593999997E+02  0.45594000000E+02  0.51100000000E-03 0. -1.
         11   -1    0    0    0    0 -0.00000000000E+00 -0.00000000000E+00 -0.45593999997E+02  0.45594000000E+02  0.51100000000E-03 0.  1.
    9900012    2    1    2    0    0  0.16874641586E+02  0.28852061849E+02 -0.30197987956E+02  0.46142317874E+02  0.10000001029E+02 0.  0.
         12    1    1    2    0    0 -0.16874641586E+02 -0.28852061849E+02  0.30197987956E+02  0.45045682126E+02  0.00000000000E+00 0. -1.
         11    1    3    3    0    0  0.54016115832E+01  0.12339819836E+02 -0.10444442140E+02  0.17045085308E+02  0.51100000000E-03 0. -1.
        -11    1    3    3    0    0  0.11151519191E+02  0.15639172836E+02 -0.15325690495E+02  0.24572685988E+02  0.51100000000E-03 0.  1.
         12    1    3    3    0    0  0.32151081177E+00  0.87306917694E+00 -0.44278553204E+01  0.45245465771E+01  0.00000000000E+00 0. -1.
</event>
<event>
 7    1  0.2312612E-008  0.4614232E+02  0.7816164E-02  0.1320468E+00
        -11   -1    0    0    0    0  0.00000000000E+00  0.00000000000E+00  0.45593999997E+02  0.45594000000E+02  0.51100000000E-03 0. -1.
         11   -1    0    0    0    0 -0.00000000000E+00 -0.00000000000E+00 -0.45593999997E+02  0.45594000000E+02  0.51100000000E-03 0.  1.
    9900012    2    1    2    0    0  0.19726555044E+02 -0.40493555770E+02  0.49856923009E+00  0.46142316477E+02  0.99999882896E+01 0.  0.
         12    1    1    2    0    0 -0.19726555044E+02  0.40493555770E+02 -0.49856923009E+00  0.45045683523E+02  0.00000000000E+00 0. -1.
         11    1    3    3    0    0 -0.28907654759E+00  0.11765499898E+00  0.12665941813E+00  0.33682461085E+00  0.51100000000E-03 0. -1.
        -11    1    3    3    0    0  0.71925177290E+01 -0.22424145393E+02  0.37329554661E+00  0.23552366287E+02  0.51100000000E-03 0.  1.
        -12    1    3    3    0    0  0.12823113863E+02 -0.18187065375E+02 -0.13857346520E-02  0.22253125579E+02  0.00000000000E+00 0.  1.
</event>
<event>
 7    1  0.2312612E-008  0.4614232E+02  0.7816164E-02  0.1320468E+00
        -11   -1    0    0    0    0  0.00000000000E+00  0.00000000000E+00  0.45593999997E+02  0.45594000000E+02  0.51100000000E-03 0.  1.
         11   -1    0    0    0    0 -0.00000000000E+00 -0.00000000000E+00 -0.45593999997E+02  0.45594000000E+02  0.51100000000E-03 0. -1.
    9900012    2    1    2    0    0 -0.26199915749E+02 -0.33546770280E+02  0.14740829199E+02  0.46142318443E+02  0.10000006217E+02 0.  0.
         12    1    1    2    0    0  0.26199915749E+02  0.33546770280E+02 -0.14740829199E+02  0.45045681557E+02  0.00000000000E+00 0. -1.
         11    1    3    3    0    0 -0.10590051644E+01 -0.37049505452E+01  0.29310953581E+01  0.48414327157E+01  0.51100000000E-03 0. -1.
        -11    1    3    3    0    0 -0.13987633494E+02 -0.19073320568E+02  0.10045428741E+02  0.25697394559E+02  0.51100000000E-03 0.  1.
         12    1    3    3    0    0 -0.11153277091E+02 -0.10768499167E+02  0.17643050997E+01  0.15603491169E+02  0.00000000000E+00 0. -1.
</event>
<event>
 7    1  0.2312612E-008  0.4614232E+02  0.7816164E-02  0.1320468E+00
        -11   -1    0    0    0    0  0.00000000000E+00  0.00000000000E+00  0.45593999997E+02  0.45594000000E+02  0.51100000000E-03 0. -1.
         11   -1    0    0    0    0 -0.00000000000E+00 -0.00000000000E+00 -0.45593999997E+02  0.45594000000E+02  0.51100000000E-03 0.  1.
    9900012    2    1    2    0    0 -0.28717199620E+02  0.30454203085E+02 -0.16642636007E+02  0.46142319044E+02  0.10000011696E+02 0.  0.
         12    1    1    2    0    0  0.28717199620E+02 -0.30454203085E+02  0.16642636007E+02  0.45045680956E+02  0.00000000000E+00 0. -1.
         11    1    3    3    0    0 -0.11353723296E+01 -0.29666292946E-01 -0.15978850559E+00  0.11469450918E+01  0.51100000000E-03 0. -1.
        -11    1    3    3    0    0 -0.19046338071E+02  0.15861436030E+02 -0.11652552917E+02  0.27388503731E+02  0.51100000000E-03 0.  1.
        -12    1    3    3    0    0 -0.85354892193E+01  0.14622433348E+02 -0.48302945847E+01  0.17606870221E+02  0.00000000000E+00 0.  1.
</event>
<event>
 7    1  0.2312612E-008  0.4614232E+02  0.7816164E-02  0.1320468E+00
        -11   -1    0    0    0    0  0.00000000000E+00  0.00000000000E+00  0.45593999997E+02  0.45594000000E+02  0.51100000000E-03 0.  1.
         11   -1    0    0    0    0 -0.00000000000E+00 -0.00000000000E+00 -0.45593999997E+02  0.45594000000E+02  0.51100000000E-03 0. -1.
    9900012    2    1    2    0    0 -0.33446464380E+01  0.26224961490E+02  0.36471608743E+02  0.46142317529E+02  0.99999978860E+01 0.  0.
         12    1    1    2    0    0  0.33446464380E+01 -0.26224961490E+02 -0.36471608743E+02  0.45045682471E+02  0.00000000000E+00 0. -1.
         11    1    3    3    0    0  0.78487030632E+00  0.18943184439E+01  0.13936914681E+01  0.24792821409E+01  0.51100000000E-03 0. -1.
        -11    1    3    3    0    0 -0.53845181804E+01  0.16170245264E+02  0.28043972440E+02  0.32816676529E+02  0.51100000000E-03 0.  1.
        -12    1    3    3    0    0  0.12550014361E+01  0.81603977818E+01  0.70339448349E+01  0.10846358859E+02  0.00000000000E+00 0.  1.
</event>
<event>
 7    1  0.2312612E-008  0.4614232E+02  0.7816164E-02  0.1320468E+00
        -11   -1    0    0    0    0  0.00000000000E+00  0.00000000000E+00  0.45593999997E+02  0.45594000000E+02  0.51100000000E-03 0.  1.
         11   -1    0    0    0    0 -0.00000000000E+00 -0.00000000000E+00 -0.45593999997E+02  0.45594000000E+02  0.51100000000E-03 0. -1.
    9900012    2    1    2    0    0  0.34357366270E+02 -0.99843529822E+01  0.27367819553E+02  0.46142317981E+02  0.10000002004E+02 0.  0.
         12    1    1    2    0    0 -0.34357366270E+02  0.99843529822E+01 -0.27367819553E+02  0.45045682019E+02  0.00000000000E+00 0. -1.
         11    1    3    3    0    0  0.22059273754E+01  0.40437321103E+00  0.28823598878E+01  0.36520722971E+01  0.51100000000E-03 0. -1.
        -11    1    3    3    0    0  0.21959101704E+02 -0.30661605029E+01  0.15930577127E+02  0.27301772392E+02  0.51100000000E-03 0.  1.
         12    1    3    3    0    0  0.10192337190E+02 -0.73225656903E+01  0.85548825387E+01  0.15188473292E+02  0.00000000000E+00 0. -1.
</event>
<event>
 7    1  0.2312612E-008  0.4614232E+02  0.7816164E-02  0.1320468E+00
        -11   -1    0    0    0    0  0.00000000000E+00  0.00000000000E+00  0.45593999997E+02  0.45594000000E+02  0.51100000000E-03 0. -1.
         11   -1    0    0    0    0 -0.00000000000E+00 -0.00000000000E+00 -0.45593999997E+02  0.45594000000E+02  0.51100000000E-03 0.  1.
    9900012    2    1    2    0    0 -0.29698641046E+02  0.33341311334E+02  0.59549310941E+01  0.46142317345E+02  0.99999962101E+01 0.  0.
         12    1    1    2    0    0  0.29698641046E+02 -0.33341311334E+02 -0.59549310941E+01  0.45045682655E+02  0.00000000000E+00 0. -1.
         11    1    3    3    0    0 -0.28872658717E+01  0.14428053970E+01  0.24740982558E+01  0.40668358792E+01  0.51100000000E-03 0. -1.
        -11    1    3    3    0    0 -0.10079746780E+02  0.12235034385E+02 -0.94411252762E+00  0.15880450569E+02  0.51100000000E-03 0.  1.
        -12    1    3    3    0    0 -0.16731628394E+02  0.19663471553E+02  0.44249453659E+01  0.26195030897E+02  0.00000000000E+00 0.  1.
</event>
<event>
 7    1  0.2312612E-008  0.4614232E+02  0.7816164E-02  0.1320468E+00
        -11   -1    0    0    0    0  0.00000000000E+00  0.00000000000E+00  0.45593999997E+02  0.45594000000E+02  0.51100000000E-03 0. -1.
         11   -1    0    0    0    0 -0.00000000000E+00 -0.00000000000E+00 -0.45593999997E+02  0.45594000000E+02  0.51100000000E-03 0.  1.
    9900012    2    1    2    0    0 -0.12164164735E+02  0.13388868617E+02 -0.41253906292E+02  0.46142317733E+02  0.99999997425E+01 0.  0.
         12    1    1    2    0    0  0.12164164735E+02 -0.13388868617E+02  0.41253906292E+02  0.45045682267E+02  0.00000000000E+00 0. -1.
         11    1    3    3    0    0 -0.44745288016E+01 -0.11440130315E-01 -0.10953196024E+02  0.11831907804E+02  0.51100000000E-03 0. -1.
        -11    1    3    3    0    0 -0.22062680833E+01  0.79247256809E+00 -0.41926261072E+01  0.48035138765E+01  0.51100000000E-03 0.  1.
        -12    1    3    3    0    0 -0.54833678498E+01  0.12607836179E+02 -0.26108084161E+02  0.29506896052E+02  0.00000000000E+00 0.  1.
</event>
<event>
 7    1  0.2312612E-008  0.4614232E+02  0.7816164E-02  0.1320468E+00
        -11   -1    0    0    0    0  0.00000000000E+00  0.00000000000E+00  0.45593999997E+02  0.45594000000E+02  0.51100000000E-03 0. -1.
         11   -1    0    0    0    0 -0.00000000000E+00 -0.00000000000E+00 -0.45593999997E+02  0.45594000000E+02  0.51100000000E-03 0.  1.
    9900012    2    1    2    0    0 -0.52079321702E-01  0.68105430803E+01 -0.44527823548E+02  0.46142320083E+02  0.10000021169E+02 0.  0.
         12    1    1    2    0    0  0.52079321702E-01 -0.68105430803E+01  0.44527823548E+02  0.45045679917E+02  0.00000000000E+00 0. -1.
         11    1    3    3    0    0 -0.32866946876E+01 -0.13486342457E+00 -0.18385017701E+02  0.18676975833E+02  0.51100000000E-03 0. -1.
        -11    1    3    3    0    0  0.24920424533E+01  0.58057664823E+01 -0.24645514668E+02  0.25442456516E+02  0.51100000000E-03 0.  1.
         12    1    3    3    0    0  0.74257291262E+00  0.11396400226E+01 -0.14972911781E+01  0.20228877339E+01  0.00000000000E+00 0. -1.
</event>
<event>
 7    1  0.2312612E-008  0.4614232E+02  0.7816164E-02  0.1320468E+00
        -11   -1    0    0    0    0  0.00000000000E+00  0.00000000000E+00  0.45593999997E+02  0.45594000000E+02  0.51100000000E-03 0. -1.
         11   -1    0    0    0    0 -0.00000000000E+00 -0.00000000000E+00 -0.45593999997E+02  0.45594000000E+02  0.51100000000E-03 0.  1.
    9900012    2    1    2    0    0  0.44405104895E+02  0.32909605643E+01 -0.68168506435E+01  0.46142320797E+02  0.10000027681E+02 0.  0.
         12    1    1    2    0    0 -0.44405104895E+02 -0.32909605643E+01  0.68168506435E+01  0.45045679203E+02  0.00000000000E+00 0. -1.
         11    1    3    3    0    0  0.21206768493E+02 -0.18284949460E+01 -0.28016063637E+01  0.21469034029E+02  0.51100000000E-03 0. -1.
        -11    1    3    3    0    0  0.11301352658E+02  0.88923384515E+00 -0.40750534732E+01  0.12046467108E+02  0.51100000000E-03 0.  1.
         12    1    3    3    0    0  0.11896983745E+02  0.42302216651E+01  0.59809193343E-01  0.12626819659E+02  0.00000000000E+00 0. -1.
</event>
<event>
 7    1  0.2312612E-008  0.4614232E+02  0.7816164E-02  0.1320468E+00
        -11   -1    0    0    0    0  0.00000000000E+00  0.00000000000E+00  0.45593999997E+02  0.45594000000E+02  0.51100000000E-03 0.  1.
         11   -1    0    0    0    0 -0.00000000000E+00 -0.00000000000E+00 -0.45593999997E+02  0.45594000000E+02  0.51100000000E-03 0. -1.
    9900012    2    1    2    0    0  0.44349982206E+02  0.68469288191E+01 -0.39130664668E+01  0.46142318241E+02  0.10000004377E+02 0.  0.
         12    1    1    2    0    0 -0.44349982206E+02 -0.68469288191E+01  0.39130664668E+01  0.45045681759E+02  0.00000000000E+00 0. -1.
         11    1    3    3    0    0  0.14106168352E+02  0.30753641630E+01  0.26662598164E+01  0.14681648136E+02  0.51100000000E-03 0. -1.
        -11    1    3    3    0    0  0.29038172196E+01 -0.30292208695E+00  0.41146516596E+00  0.29484267126E+01  0.51100000000E-03 0.  1.
         12    1    3    3    0    0  0.27339996634E+02  0.40744867431E+01 -0.69907914492E+01  0.28512243393E+02  0.00000000000E+00 0. -1.
</event>
<event>
 7    1  0.2312612E-008  0.4614232E+02  0.7816164E-02  0.1320468E+00
        -11   -1    0    0    0    0  0.00000000000E+00  0.00000000000E+00  0.45593999997E+02  0.45594000000E+02  0.51100000000E-03 0.  1.
         11   -1    0    0    0    0 -0.00000000000E+00 -0.00000000000E+00 -0.45593999997E+02  0.45594000000E+02  0.51100000000E-03 0. -1.
    9900012    2    1    2    0    0  0.43063595590E+02  0.10594739489E+02  0.78988486575E+01  0.46142316743E+02  0.99999907153E+01 0.  0.
         12    1    1    2    0    0 -0.43063595590E+02 -0.10594739489E+02 -0.78988486575E+01  0.45045683257E+02  0.00000000000E+00 0. -1.
         11    1    3    3    0    0  0.16505559237E+01 -0.10955412723E+01 -0.81991254709E+00  0.21440154810E+01  0.51100000000E-03 0. -1.
        -11    1    3    3    0    0  0.17329901621E+01  0.10960021356E+01  0.26861401540E+00  0.20680012895E+01  0.51100000000E-03 0.  1.
         12    1    3    3    0    0  0.39680049504E+02  0.10594278626E+02  0.84501471892E+01  0.41930299972E+02  0.00000000000E+00 0. -1.
</event>
<event>
 7    1  0.2312612E-008  0.4614232E+02  0.7816164E-02  0.1320468E+00
        -11   -1    0    0    0    0  0.00000000000E+00  0.00000000000E+00  0.45593999997E+02  0.45594000000E+02  0.51100000000E-03 0. -1.
         11   -1    0    0    0    0 -0.00000000000E+00 -0.00000000000E+00 -0.45593999997E+02  0.45594000000E+02  0.51100000000E-03 0.  1.
    9900012    2    1    2    0    0 -0.24869929064E+02 -0.36746031867E+02  0.77671905896E+01  0.46142317862E+02  0.10000000917E+02 0.  0.
         12    1    1    2    0    0  0.24869929064E+02  0.36746031867E+02 -0.77671905896E+01  0.45045682138E+02  0.00000000000E+00 0. -1.
         11    1    3    3    0    0 -0.17293933626E+02 -0.17632061040E+02  0.30318482342E+01  0.24882962459E+02  0.51100000000E-03 0. -1.
        -11    1    3    3    0    0 -0.57890645138E+01 -0.13768045155E+02  0.45742874962E+01  0.15620385453E+02  0.51100000000E-03 0.  1.
         12    1    3    3    0    0 -0.17869309243E+01 -0.53459256729E+01  0.16105485917E+00  0.56389699499E+01  0.00000000000E+00 0. -1.
</event>
<event>
 7    1  0.2312612E-008  0.4614232E+02  0.7816164E-02  0.1320468E+00
        -11   -1    0    0    0    0  0.00000000000E+00  0.00000000000E+00  0.45593999997E+02  0.45594000000E+02  0.51100000000E-03 0. -1.
         11   -1    0    0    0    0 -0.00000000000E+00 -0.00000000000E+00 -0.45593999997E+02  0.45594000000E+02  0.51100000000E-03 0.  1.
    9900012    2    1    2    0    0 -0.26326585861E+02  0.23974219949E+02 -0.27590961344E+02  0.46142317708E+02  0.99999995154E+01 0.  0.
         12    1    1    2    0    0  0.26326585861E+02 -0.23974219949E+02  0.27590961344E+02  0.45045682292E+02  0.00000000000E+00 0. -1.
         11    1    3    3    0    0 -0.24076271521E+01  0.26411736491E+00 -0.87457482481E+00  0.25751325930E+01  0.51100000000E-03 0. -1.
        -11    1    3    3    0    0 -0.18086737603E+02  0.21164857000E+02 -0.23523207360E+02  0.36447531243E+02  0.51100000000E-03 0.  1.
        -12    1    3    3    0    0 -0.58322211059E+01  0.25452455842E+01 -0.31931791589E+01  0.71196538717E+01  0.00000000000E+00 0.  1.
</event>
<event>
 7    1  0.2312612E-008  0.4614232E+02  0.7816164E-02  0.1320468E+00
        -11   -1    0    0    0    0  0.00000000000E+00  0.00000000000E+00  0.45593999997E+02  0.45594000000E+02  0.51100000000E-03 0. -1.
         11   -1    0    0    0    0 -0.00000000000E+00 -0.00000000000E+00 -0.45593999997E+02  0.45594000000E+02  0.51100000000E-03 0.  1.
    9900012    2    1    2    0    0  0.32870191001E+02 -0.23304350026E+02  0.20138799489E+02  0.46142318393E+02  0.10000005764E+02 0.  0.
         12    1    1    2    0    0 -0.32870191001E+02  0.23304350026E+02 -0.20138799489E+02  0.45045681607E+02  0.00000000000E+00 0. -1.
         11    1    3    3    0    0  0.17868411478E+00 -0.16968518452E+01  0.19717853018E+01  0.26075221447E+01  0.51100000000E-03 0. -1.
        -11    1    3    3    0    0  0.21413604841E+02 -0.16895744034E+02  0.11389892596E+02  0.29559064470E+02  0.51100000000E-03 0.  1.
        -12    1    3    3    0    0  0.11277902045E+02 -0.47117541466E+01  0.67771215914E+01  0.13975731778E+02  0.00000000000E+00 0.  1.
</event>
<event>
 7    1  0.2312612E-008  0.4614232E+02  0.7816164E-02  0.1320468E+00
        -11   -1    0    0    0    0  0.00000000000E+00  0.00000000000E+00  0.45593999997E+02  0.45594000000E+02  0.51100000000E-03 0.  1.
         11   -1    0    0    0    0 -0.00000000000E+00 -0.00000000000E+00 -0.45593999997E+02  0.45594000000E+02  0.51100000000E-03 0. -1.
    9900012    2    1    2    0    0  0.70165792222E+01 -0.79652049173E+01  0.43777124672E+02  0.46142317433E+02  0.99999970083E+01 0.  0.
         12    1    1    2    0    0 -0.70165792222E+01  0.79652049173E+01 -0.43777124672E+02  0.45045682567E+02  0.00000000000E+00 0. -1.
         11    1    3    3    0    0  0.31652671146E+01 -0.30113768388E+01  0.30636075660E+02  0.30946024599E+02  0.51100000000E-03 0. -1.
        -11    1    3    3    0    0 -0.63170541006E+00  0.25067809548E+00  0.19524321945E+01  0.20673371684E+01  0.51100000000E-03 0.  1.
        -12    1    3    3    0    0  0.44830175177E+01 -0.52045061740E+01  0.11188616818E+02  0.13128955666E+02  0.00000000000E+00 0.  1.
</event>
<event>
 7    1  0.2312612E-008  0.4614232E+02  0.7816164E-02  0.1320468E+00
        -11   -1    0    0    0    0  0.00000000000E+00  0.00000000000E+00  0.45593999997E+02  0.45594000000E+02  0.51100000000E-03 0.  1.
         11   -1    0    0    0    0 -0.00000000000E+00 -0.00000000000E+00 -0.45593999997E+02  0.45594000000E+02  0.51100000000E-03 0. -1.
    9900012    2    1    2    0    0 -0.30546292951E+02  0.14009906542E+02  0.29996000329E+02  0.46142317298E+02  0.99999957776E+01 0.  0.
         12    1    1    2    0    0  0.30546292951E+02 -0.14009906542E+02 -0.29996000329E+02  0.45045682702E+02  0.00000000000E+00 0. -1.
         11    1    3    3    0    0 -0.59516727300E+01  0.40383098844E+01  0.68089623060E+01  0.99041568522E+01  0.51100000000E-03 0. -1.
        -11    1    3    3    0    0 -0.22422880035E+02  0.60858580852E+01  0.17919665503E+02  0.29341738696E+02  0.51100000000E-03 0.  1.
         12    1    3    3    0    0 -0.21717401856E+01  0.38857385727E+01  0.52673725198E+01  0.68964217499E+01  0.00000000000E+00 0. -1.
</event>
<event>
 7    1  0.2312612E-008  0.4614232E+02  0.7816164E-02  0.1320468E+00
        -11   -1    0    0    0    0  0.00000000000E+00  0.00000000000E+00  0.45593999997E+02  0.45594000000E+02  0.51100000000E-03 0. -1.
         11   -1    0    0    0    0 -0.00000000000E+00 -0.00000000000E+00 -0.45593999997E+02  0.45594000000E+02  0.51100000000E-03 0.  1.
    9900012    2    1    2    0    0  0.18352194878E+01 -0.36193446954E+02 -0.26754063450E+02  0.46142317143E+02  0.99999943636E+01 0.  0.
         12    1    1    2    0    0 -0.18352194878E+01  0.36193446954E+02  0.26754063450E+02  0.45045682857E+02  0.00000000000E+00 0. -1.
         11    1    3    3    0    0  0.66505177507E+00 -0.72072073227E+01 -0.24330509525E+01  0.76358279482E+01  0.51100000000E-03 0. -1.
        -11    1    3    3    0    0  0.15998386540E+01 -0.13883934542E+02 -0.73712929246E+01  0.15800603841E+02  0.51100000000E-03 0.  1.
         12    1    3    3    0    0 -0.42967094127E+00 -0.15102305089E+02 -0.16949719573E+02  0.22705885354E+02  0.00000000000E+00 0. -1.
</event>
<event>
 7    1  0.2312612E-008  0.4614232E+02  0.7816164E-02  0.1320468E+00
        -11   -1    0    0    0    0  0.00000000000E+00  0.00000000000E+00  0.45593999997E+02  0.45594000000E+02  0.51100000000E-03 0. -1.
         11   -1    0    0    0    0 -0.00000000000E+00 -0.00000000000E+00 -0.45593999997E+02  0.45594000000E+02  0.51100000000E-03 0.  1.
    9900012    2    1    2    0    0 -0.31514617652E+02 -0.32183704403E+02  0.38931660850E+00  0.46142317385E+02  0.99999965674E+01 0.  0.
         12    1    1    2    0    0  0.31514617652E+02  0.32183704403E+02 -0.38931660850E+00  0.45045682615E+02  0.00000000000E+00 0. -1.
         11    1    3    3    0    0 -0.47396493039E+01 -0.76590478470E+01  0.15852894616E+01  0.91454049875E+01  0.51100000000E-03 0. -1.
        -11    1    3    3    0    0 -0.89130047478E+01 -0.11753897245E+02  0.17010894784E+01  0.14848887492E+02  0.51100000000E-03 0.  1.
        -12    1    3    3    0    0 -0.17861963600E+02 -0.12770759311E+02 -0.28970623316E+01  0.22148024905E+02  0.00000000000E+00 0.  1.
</event>
<event>
 7    1  0.2312612E-008  0.4614232E+02  0.7816164E-02  0.1320468E+00
        -11   -1    0    0    0    0  0.00000000000E+00  0.00000000000E+00  0.45593999997E+02  0.45594000000E+02  0.51100000000E-03 0.  1.
         11   -1    0    0    0    0 -0.00000000000E+00 -0.00000000000E+00 -0.45593999997E+02  0.45594000000E+02  0.51100000000E-03 0. -1.
    9900012    2    1    2    0    0  0.32418856639E+02 -0.82334284245E-02  0.31275088576E+02  0.46142317643E+02  0.99999989209E+01 0.  0.
         12    1    1    2    0    0 -0.32418856639E+02  0.82334284245E-02 -0.31275088576E+02  0.45045682357E+02  0.00000000000E+00 0. -1.
         11    1    3    3    0    0  0.94162908922E+01  0.34285665176E+00  0.39588947509E+01  0.10220417446E+02  0.51100000000E-03 0. -1.
        -11    1    3    3    0    0  0.18141519851E+02 -0.75426531692E+00  0.19000654540E+02  0.26281334287E+02  0.51100000000E-03 0.  1.
         12    1    3    3    0    0  0.48610458960E+01  0.40317523674E+00  0.83155392852E+01  0.96405659107E+01  0.00000000000E+00 0. -1.
</event>
<event>
 7    1  0.2312612E-008  0.4614232E+02  0.7816164E-02  0.1320468E+00
        -11   -1    0    0    0    0  0.00000000000E+00  0.00000000000E+00  0.45593999997E+02  0.45594000000E+02  0.51100000000E-03 0. -1.
         11   -1    0    0    0    0 -0.00000000000E+00 -0.00000000000E+00 -0.45593999997E+02  0.45594000000E+02  0.51100000000E-03 0.  1.
    9900012    2    1    2    0    0  0.75176220179E+01 -0.41988783392E+02 -0.14475530402E+02  0.46142317055E+02  0.99999935607E+01 0.  0.
         12    1    1    2    0    0 -0.75176220179E+01  0.41988783392E+02  0.14475530402E+02  0.45045682945E+02  0.00000000000E+00 0. -1.
         11    1    3    3    0    0  0.16577895147E+01 -0.20436840339E+02 -0.28896346736E+01  0.20706585859E+02  0.51100000000E-03 0. -1.
        -11    1    3    3    0    0  0.19325379337E+01 -0.13532285782E+02 -0.62229069356E+01  0.15019388547E+02  0.51100000000E-03 0.  1.
        -12    1    3    3    0    0  0.39272945694E+01 -0.80196572712E+01 -0.53629887927E+01  0.10416342649E+02  0.00000000000E+00 0.  1.
</event>
<event>
 7    1  0.2312612E-008  0.4614232E+02  0.7816164E-02  0.1320468E+00
        -11   -1    0    0    0    0  0.00000000000E+00  0.00000000000E+00  0.45593999997E+02  0.45594000000E+02  0.51100000000E-03 0.  1.
         11   -1    0    0    0    0 -0.00000000000E+00 -0.00000000000E+00 -0.45593999997E+02  0.45594000000E+02  0.51100000000E-03 0. -1.
    9900012    2    1    2    0    0 -0.31198808066E+02 -0.31513400782E+01  0.32339093460E+02  0.46142317245E+02  0.99999952962E+01 0.  0.
         12    1    1    2    0    0  0.31198808066E+02  0.31513400782E+01 -0.32339093460E+02  0.45045682755E+02  0.00000000000E+00 0. -1.
         11    1    3    3    0    0 -0.10059226416E+02 -0.12067524343E+01  0.69189944857E+01  0.12268527722E+02  0.51100000000E-03 0.  1.
        -11    1    3    3    0    0 -0.12571287431E+02 -0.68973366384E+00  0.95778759729E+01  0.15819251202E+02  0.51100000000E-03 0. -1.
        -12    1    3    3    0    0 -0.85682942199E+01 -0.12548539801E+01  0.15842223001E+02  0.18054538320E+02  0.00000000000E+00 0.  1.
</event>
<event>
 7    1  0.2312612E-008  0.4614232E+02  0.7816164E-02  0.1320468E+00
        -11   -1    0    0    0    0  0.00000000000E+00  0.00000000000E+00  0.45593999997E+02  0.45594000000E+02  0.51100000000E-03 0.  1.
         11   -1    0    0    0    0 -0.00000000000E+00 -0.00000000000E+00 -0.45593999997E+02  0.45594000000E+02  0.51100000000E-03 0. -1.
    9900012    2    1    2    0    0  0.40768906911E+02  0.34437275091E+01 -0.18845441231E+02  0.46142315578E+02  0.99999800890E+01 0.  0.
         12    1    1    2    0    0 -0.40768906911E+02 -0.34437275091E+01  0.18845441231E+02  0.45045684422E+02  0.00000000000E+00 0. -1.
         11    1    3    3    0    0  0.33796472223E+01  0.67439697163E+00 -0.92272394092E+00  0.35676667942E+01  0.51100000000E-03 0. -1.
        -11    1    3    3    0    0  0.30577802914E+02  0.44491103644E+00 -0.10754967604E+02  0.32417114389E+02  0.51100000000E-03 0.  1.
         12    1    3    3    0    0  0.68114567746E+01  0.23244195010E+01 -0.71677496858E+01  0.10157534394E+02  0.00000000000E+00 0. -1.
</event>
<event>
 7    1  0.2312612E-008  0.4614232E+02  0.7816164E-02  0.1320468E+00
        -11   -1    0    0    0    0  0.00000000000E+00  0.00000000000E+00  0.45593999997E+02  0.45594000000E+02  0.51100000000E-03 0.  1.
         11   -1    0    0    0    0 -0.00000000000E+00 -0.00000000000E+00 -0.45593999997E+02  0.45594000000E+02  0.51100000000E-03 0. -1.
    9900012    2    1    2    0    0 -0.48618950682E+01 -0.41565644851E+02  0.16666511381E+02  0.46142318108E+02  0.10000003162E+02 0.  0.
         12    1    1    2    0    0  0.48618950682E+01  0.41565644851E+02 -0.16666511381E+02  0.45045681892E+02  0.00000000000E+00 0. -1.
         11    1    3    3    0    0  0.38391091480E+00 -0.43027005687E+01  0.33772256930E+01  0.54832721451E+01  0.51100000000E-03 0. -1.
        -11    1    3    3    0    0 -0.34702720436E+01 -0.65838698146E+01  0.79134617813E+00  0.74844077138E+01  0.51100000000E-03 0.  1.
         12    1    3    3    0    0 -0.17755339394E+01 -0.30679074468E+02  0.12497939510E+02  0.33174638249E+02  0.00000000000E+00 0. -1.
</event>
<event>
 7    1  0.2312612E-008  0.4614232E+02  0.7816164E-02  0.1320468E+00
        -11   -1    0    0    0    0  0.00000000000E+00  0.00000000000E+00  0.45593999997E+02  0.45594000000E+02  0.51100000000E-03 0.  1.
         11   -1    0    0    0    0 -0.00000000000E+00 -0.00000000000E+00 -0.45593999997E+02  0.45594000000E+02  0.51100000000E-03 0. -1.
    9900012    2    1    2    0    0  0.59113779159E+01 -0.33149275620E+02  0.29921472154E+02  0.46142319199E+02  0.10000013114E+02 0.  0.
         12    1    1    2    0    0 -0.59113779159E+01  0.33149275620E+02 -0.29921472154E+02  0.45045680801E+02  0.00000000000E+00 0. -1.
         11    1    3    3    0    0  0.68189136186E+01 -0.26409171589E+02  0.25921654964E+02  0.37628102839E+02  0.51100000000E-03 0.  1.
        -11    1    3    3    0    0  0.42564399054E+00 -0.54877882779E+01  0.21399542762E+01  0.59056242308E+01  0.51100000000E-03 0. -1.
        -12    1    3    3    0    0 -0.13331796933E+01 -0.12523157528E+01  0.18598629134E+01  0.26085921291E+01  0.00000000000E+00 0.  1.
</event>
<event>
 7    1  0.2312612E-008  0.4614232E+02  0.7816164E-02  0.1320468E+00
        -11   -1    0    0    0    0  0.00000000000E+00  0.00000000000E+00  0.45593999997E+02  0.45594000000E+02  0.51100000000E-03 0.  1.
         11   -1    0    0    0    0 -0.00000000000E+00 -0.00000000000E+00 -0.45593999997E+02  0.45594000000E+02  0.51100000000E-03 0. -1.
    9900012    2    1    2    0    0  0.47770337975E+01 -0.18236049099E+02  0.40911366935E+02  0.46142317819E+02  0.10000000526E+02 0.  0.
         12    1    1    2    0    0 -0.47770337975E+01  0.18236049099E+02 -0.40911366935E+02  0.45045682181E+02  0.00000000000E+00 0. -1.
         11    1    3    3    0    0  0.61142022022E+00 -0.61064562719E+00  0.24226150378E+01  0.25721171533E+01  0.51100000000E-03 0. -1.
        -11    1    3    3    0    0  0.67485302254E+01 -0.82232109424E+01  0.21291116254E+02  0.23800745577E+02  0.51100000000E-03 0.  1.
         12    1    3    3    0    0 -0.25829166481E+01 -0.94021925297E+01  0.17197635643E+02  0.19769455089E+02  0.00000000000E+00 0. -1.
</event>
<event>
 7    1  0.2312612E-008  0.4614232E+02  0.7816164E-02  0.1320468E+00
        -11   -1    0    0    0    0  0.00000000000E+00  0.00000000000E+00  0.45593999997E+02  0.45594000000E+02  0.51100000000E-03 0. -1.
         11   -1    0    0    0    0 -0.00000000000E+00 -0.00000000000E+00 -0.45593999997E+02  0.45594000000E+02  0.51100000000E-03 0.  1.
    9900012    2    1    2    0    0  0.22375596873E+02  0.39018154398E+02  0.24554825179E+01  0.46142322045E+02  0.10000039061E+02 0.  0.
         12    1    1    2    0    0 -0.22375596873E+02 -0.39018154398E+02 -0.24554825179E+01  0.45045677955E+02  0.00000000000E+00 0. -1.
         11    1    3    3    0    0  0.11662689678E+02  0.19512911966E+02 -0.17431840234E+01  0.22799358647E+02  0.51100000000E-03 0. -1.
        -11    1    3    3    0    0  0.51272581808E+01  0.45693286664E+01  0.58655978374E-01  0.68681134018E+01  0.51100000000E-03 0.  1.
         12    1    3    3    0    0  0.55856490145E+01  0.14935913765E+02  0.41400105629E+01  0.16474849996E+02  0.00000000000E+00 0. -1.
</event>
<event>
 7    1  0.2312612E-008  0.4614232E+02  0.7816164E-02  0.1320468E+00
        -11   -1    0    0    0    0  0.00000000000E+00  0.00000000000E+00  0.45593999997E+02  0.45594000000E+02  0.51100000000E-03 0.  1.
         11   -1    0    0    0    0 -0.00000000000E+00 -0.00000000000E+00 -0.45593999997E+02  0.45594000000E+02  0.51100000000E-03 0. -1.
    9900012    2    1    2    0    0 -0.20561095528E+02 -0.39027518402E+02  0.91218219879E+01  0.46142317873E+02  0.10000001019E+02 0.  0.
         12    1    1    2    0    0  0.20561095528E+02  0.39027518402E+02 -0.91218219879E+01  0.45045682127E+02  0.00000000000E+00 0. -1.
         11    1    3    3    0    0 -0.76873536078E+01 -0.17425911534E+02  0.44875650505E+01  0.19567729521E+02  0.51100000000E-03 0. -1.
        -11    1    3    3    0    0 -0.10283643736E+02 -0.13933289357E+02  0.60778448795E+01  0.18352931085E+02  0.51100000000E-03 0.  1.
         12    1    3    3    0    0 -0.25900981846E+01 -0.76683175110E+01 -0.14435879421E+01  0.82216572661E+01  0.00000000000E+00 0. -1.
</event>
<event>
 7    1  0.2312612E-008  0.4614232E+02  0.7816164E-02  0.1320468E+00
        -11   -1    0    0    0    0  0.00000000000E+00  0.00000000000E+00  0.45593999997E+02  0.45594000000E+02  0.51100000000E-03 0.  1.
         11   -1    0    0    0    0 -0.00000000000E+00 -0.00000000000E+00 -0.45593999997E+02  0.45594000000E+02  0.51100000000E-03 0. -1.
    9900012    2    1    2    0    0  0.33724917532E+02 -0.24410698269E+02  0.17200616514E+02  0.46142318065E+02  0.10000002775E+02 0.  0.
         12    1    1    2    0    0 -0.33724917532E+02  0.24410698269E+02 -0.17200616514E+02  0.45045681935E+02  0.00000000000E+00 0. -1.
         11    1    3    3    0    0  0.12918128004E+02 -0.77827904647E+01  0.81860227712E+01  0.17159860944E+02  0.51100000000E-03 0.  1.
        -11    1    3    3    0    0  0.14640359270E+02 -0.95919019130E+01  0.27361349387E+01  0.17715279747E+02  0.51100000000E-03 0. -1.
         12    1    3    3    0    0  0.61664302575E+01 -0.70360058912E+01  0.62784588036E+01  0.11267177374E+02  0.00000000000E+00 0. -1.
</event>
<event>
 7    1  0.2312612E-008  0.4614232E+02  0.7816164E-02  0.1320468E+00
        -11   -1    0    0    0    0  0.00000000000E+00  0.00000000000E+00  0.45593999997E+02  0.45594000000E+02  0.51100000000E-03 0. -1.
         11   -1    0    0    0    0 -0.00000000000E+00 -0.00000000000E+00 -0.45593999997E+02  0.45594000000E+02  0.51100000000E-03 0.  1.
    9900012    2    1    2    0    0  0.17764645273E+02 -0.31551939457E+02 -0.26795633818E+02  0.46142317667E+02  0.99999991385E+01 0.  0.
         12    1    1    2    0    0 -0.17764645273E+02  0.31551939457E+02  0.26795633818E+02  0.45045682333E+02  0.00000000000E+00 0. -1.
         11    1    3    3    0    0  0.10465403446E+02 -0.23607688225E+02 -0.17607686060E+02  0.31255051132E+02  0.51100000000E-03 0. -1.
        -11    1    3    3    0    0  0.31912426270E+01 -0.58482443346E+01 -0.33789280271E+01  0.74701503449E+01  0.51100000000E-03 0.  1.
         12    1    3    3    0    0  0.41079991995E+01 -0.20960068975E+01 -0.58090197305E+01  0.74171161894E+01  0.00000000000E+00 0. -1.
</event>
<event>
 7    1  0.2312612E-008  0.4614232E+02  0.7816164E-02  0.1320468E+00
        -11   -1    0    0    0    0  0.00000000000E+00  0.00000000000E+00  0.45593999997E+02  0.45594000000E+02  0.51100000000E-03 0.  1.
         11   -1    0    0    0    0 -0.00000000000E+00 -0.00000000000E+00 -0.45593999997E+02  0.45594000000E+02  0.51100000000E-03 0. -1.
    9900012    2    1    2    0    0 -0.34000250345E+02 -0.27023590829E+02  0.11950815501E+02  0.46142317899E+02  0.10000001261E+02 0.  0.
         12    1    1    2    0    0  0.34000250345E+02  0.27023590829E+02 -0.11950815501E+02  0.45045682101E+02  0.00000000000E+00 0. -1.
         11    1    3    3    0    0 -0.22359784573E+01 -0.19703818013E+01 -0.85699053868E+00  0.31010380761E+01  0.51100000000E-03 0. -1.
        -11    1    3    3    0    0 -0.99852462950E+01 -0.12293485690E+02  0.44288887794E+01  0.16445363787E+02  0.51100000000E-03 0.  1.
         12    1    3    3    0    0 -0.21779025592E+02 -0.12759723337E+02  0.83789172603E+01  0.26595916037E+02  0.00000000000E+00 0. -1.
</event>
<event>
 7    1  0.2312612E-008  0.4614232E+02  0.7816164E-02  0.1320468E+00
        -11   -1    0    0    0    0  0.00000000000E+00  0.00000000000E+00  0.45593999997E+02  0.45594000000E+02  0.51100000000E-03 0. -1.
         11   -1    0    0    0    0 -0.00000000000E+00 -0.00000000000E+00 -0.45593999997E+02  0.45594000000E+02  0.51100000000E-03 0.  1.
    9900012    2    1    2    0    0 -0.83817069628E+01  0.51113372923E+01 -0.43962877047E+02  0.46142319422E+02  0.10000015145E+02 0.  0.
         12    1    1    2    0    0  0.83817069628E+01 -0.51113372923E+01  0.43962877047E+02  0.45045680578E+02  0.00000000000E+00 0. -1.
         11    1    3    3    0    0 -0.99477920528E-01 -0.10652627678E+01 -0.15970063848E+01  0.19222669626E+01  0.51100000000E-03 0. -1.
        -11    1    3    3    0    0 -0.62021164502E+01  0.66731700517E+01 -0.40027776732E+02  0.41051435510E+02  0.51100000000E-03 0.  1.
         12    1    3    3    0    0 -0.20801125921E+01 -0.49656999158E+00 -0.23380939294E+01  0.31686169499E+01  0.00000000000E+00 0. -1.
</event>
<event>
 7    1  0.2312612E-008  0.4614232E+02  0.7816164E-02  0.1320468E+00
        -11   -1    0    0    0    0  0.00000000000E+00  0.00000000000E+00  0.45593999997E+02  0.45594000000E+02  0.51100000000E-03 0.  1.
         11   -1    0    0    0    0 -0.00000000000E+00 -0.00000000000E+00 -0.45593999997E+02  0.45594000000E+02  0.51100000000E-03 0. -1.
    9900012    2    1    2    0    0  0.44959107981E+02  0.27900576115E+01 -0.87130143923E-01  0.46142318703E+02  0.10000008585E+02 0.  0.
         12    1    1    2    0    0 -0.44959107981E+02 -0.27900576115E+01  0.87130143923E-01  0.45045681297E+02  0.00000000000E+00 0. -1.
         11    1    3    3    0    0  0.27782685503E+01 -0.21382338994E+01  0.10546763038E-01  0.35058425295E+01  0.51100000000E-03 0. -1.
        -11    1    3    3    0    0  0.20130226161E+02  0.21771316318E+01  0.18373585605E+01  0.20330808990E+02  0.51100000000E-03 0.  1.
        -12    1    3    3    0    0  0.22050613269E+02  0.27511598791E+01 -0.19350354675E+01  0.22305667183E+02  0.00000000000E+00 0.  1.
</event>
<event>
 7    1  0.2312612E-008  0.4614232E+02  0.7816164E-02  0.1320468E+00
        -11   -1    0    0    0    0  0.00000000000E+00  0.00000000000E+00  0.45593999997E+02  0.45594000000E+02  0.51100000000E-03 0. -1.
         11   -1    0    0    0    0 -0.00000000000E+00 -0.00000000000E+00 -0.45593999997E+02  0.45594000000E+02  0.51100000000E-03 0.  1.
    9900012    2    1    2    0    0 -0.36176986011E+02 -0.51688575873E+00 -0.26834157876E+02  0.46142317447E+02  0.99999971332E+01 0.  0.
         12    1    1    2    0    0  0.36176986011E+02  0.51688575873E+00  0.26834157876E+02  0.45045682553E+02  0.00000000000E+00 0. -1.
         11    1    3    3    0    0 -0.30502946110E+02  0.82846093673E+00 -0.26137094428E+02  0.40177901567E+02  0.51100000000E-03 0.  1.
        -11    1    3    3    0    0 -0.74727407147E+00 -0.40018195643E+00 -0.40459949223E+00  0.93928970312E+00  0.51100000000E-03 0. -1.
        -12    1    3    3    0    0 -0.49267658298E+01 -0.94516473904E+00 -0.29246395605E+00  0.50251261766E+01  0.00000000000E+00 0.  1.
</event>
<event>
 7    1  0.2312612E-008  0.4614232E+02  0.7816164E-02  0.1320468E+00
        -11   -1    0    0    0    0  0.00000000000E+00  0.00000000000E+00  0.45593999997E+02  0.45594000000E+02  0.51100000000E-03 0.  1.
         11   -1    0    0    0    0 -0.00000000000E+00 -0.00000000000E+00 -0.45593999997E+02  0.45594000000E+02  0.51100000000E-03 0. -1.
    9900012    2    1    2    0    0 -0.23536185099E+02 -0.23641523329E+02  0.30269453420E+02  0.46142318246E+02  0.10000004421E+02 0.  0.
         12    1    1    2    0    0  0.23536185099E+02  0.23641523329E+02 -0.30269453420E+02  0.45045681754E+02  0.00000000000E+00 0. -1.
         11    1    3    3    0    0 -0.10872242505E+01 -0.14259193621E+01  0.33641911127E+01  0.38122283119E+01  0.51100000000E-03 0. -1.
        -11    1    3    3    0    0 -0.50240993850E+01 -0.66451646061E+01  0.12017233079E+02  0.14622369111E+02  0.51100000000E-03 0.  1.
        -12    1    3    3    0    0 -0.17424861464E+02 -0.15570439360E+02  0.14888029228E+02  0.27707720823E+02  0.00000000000E+00 0.  1.
</event>
<event>
 7    1  0.2312612E-008  0.4614232E+02  0.7816164E-02  0.1320468E+00
        -11   -1    0    0    0    0  0.00000000000E+00  0.00000000000E+00  0.45593999997E+02  0.45594000000E+02  0.51100000000E-03 0.  1.
         11   -1    0    0    0    0 -0.00000000000E+00 -0.00000000000E+00 -0.45593999997E+02  0.45594000000E+02  0.51100000000E-03 0. -1.
    9900012    2    1    2    0    0 -0.28947174695E+02 -0.34227438652E+02  0.44336222090E+01  0.46142317794E+02  0.10000000296E+02 0.  0.
         12    1    1    2    0    0  0.28947174695E+02  0.34227438652E+02 -0.44336222090E+01  0.45045682206E+02  0.00000000000E+00 0. -1.
         11    1    3    3    0    0 -0.19505489301E+01 -0.29150883039E-01 -0.79652525482E-01  0.19523922988E+01  0.51100000000E-03 0. -1.
        -11    1    3    3    0    0 -0.15508915726E+02 -0.17363997834E+02  0.49621713642E+01  0.23804580078E+02  0.51100000000E-03 0.  1.
         12    1    3    3    0    0 -0.11487710039E+02 -0.16834289936E+02 -0.44889662973E+00  0.20385345417E+02  0.00000000000E+00 0. -1.
</event>
<event>
 7    1  0.2312612E-008  0.4614232E+02  0.7816164E-02  0.1320468E+00
        -11   -1    0    0    0    0  0.00000000000E+00  0.00000000000E+00  0.45593999997E+02  0.45594000000E+02  0.51100000000E-03 0.  1.
         11   -1    0    0    0    0 -0.00000000000E+00 -0.00000000000E+00 -0.45593999997E+02  0.45594000000E+02  0.51100000000E-03 0. -1.
    9900012    2    1    2    0    0  0.23248340299E+02  0.10422954887E+00  0.38582603735E+02  0.46142317616E+02  0.99999986764E+01 0.  0.
         12    1    1    2    0    0 -0.23248340299E+02 -0.10422954887E+00 -0.38582603735E+02  0.45045682384E+02  0.00000000000E+00 0. -1.
         11    1    3    3    0    0  0.29557971395E+01  0.30145952212E+01  0.61758147713E+01  0.74809898695E+01  0.51100000000E-03 0. -1.
        -11    1    3    3    0    0  0.15065137011E+01 -0.11909986535E+01  0.14375264366E+01  0.23988630310E+01  0.51100000000E-03 0.  1.
        -12    1    3    3    0    0  0.18786029458E+02 -0.17193670189E+01  0.30969262527E+02  0.36262464715E+02  0.00000000000E+00 0.  1.
</event>
<event>
 7    1  0.2312612E-008  0.4614232E+02  0.7816164E-02  0.1320468E+00
        -11   -1    0    0    0    0  0.00000000000E+00  0.00000000000E+00  0.45593999997E+02  0.45594000000E+02  0.51100000000E-03 0. -1.
         11   -1    0    0    0    0 -0.00000000000E+00 -0.00000000000E+00 -0.45593999997E+02  0.45594000000E+02  0.51100000000E-03 0.  1.
    9900012    2    1    2    0    0  0.18376475396E+02  0.41126647744E+02  0.13167175442E+00  0.46142319406E+02  0.10000015004E+02 0.  0.
         12    1    1    2    0    0 -0.18376475396E+02 -0.41126647744E+02 -0.13167175442E+00  0.45045680594E+02  0.00000000000E+00 0. -1.
         11    1    3    3    0    0  0.83297726943E+01  0.16243291826E+02  0.28324960740E+01  0.18473025652E+02  0.51100000000E-03 0. -1.
        -11    1    3    3    0    0  0.61283469597E+01  0.15789999853E+02  0.13056261744E+01  0.16987801264E+02  0.51100000000E-03 0.  1.
        -12    1    3    3    0    0  0.39183557424E+01  0.90933560648E+01 -0.40064504940E+01  0.10681492490E+02  0.00000000000E+00 0.  1.
</event>
<event>
 7    1  0.2312612E-008  0.4614232E+02  0.7816164E-02  0.1320468E+00
        -11   -1    0    0    0    0  0.00000000000E+00  0.00000000000E+00  0.45593999997E+02  0.45594000000E+02  0.51100000000E-03 0. -1.
         11   -1    0    0    0    0 -0.00000000000E+00 -0.00000000000E+00 -0.45593999997E+02  0.45594000000E+02  0.51100000000E-03 0.  1.
    9900012    2    1    2    0    0  0.28507159453E+02 -0.87520748748E+01 -0.33761762282E+02  0.46142317109E+02  0.99999940545E+01 0.  0.
         12    1    1    2    0    0 -0.28507159453E+02  0.87520748748E+01  0.33761762282E+02  0.45045682891E+02  0.00000000000E+00 0. -1.
         11    1    3    3    0    0  0.10220326045E+02 -0.20015999166E+00 -0.15698674298E+02  0.18733486154E+02  0.51100000000E-03 0. -1.
        -11    1    3    3    0    0  0.12603810394E+02 -0.71306480940E+01 -0.14787609201E+02  0.20697235681E+02  0.51100000000E-03 0.  1.
         12    1    3    3    0    0  0.56830230149E+01 -0.14212667891E+01 -0.32754787824E+01  0.67115952744E+01  0.00000000000E+00 0. -1.
</event>
<event>
 7    1  0.2312612E-008  0.4614232E+02  0.7816164E-02  0.1320468E+00
        -11   -1    0    0    0    0  0.00000000000E+00  0.00000000000E+00  0.45593999997E+02  0.45594000000E+02  0.51100000000E-03 0.  1.
         11   -1    0    0    0    0 -0.00000000000E+00 -0.00000000000E+00 -0.45593999997E+02  0.45594000000E+02  0.51100000000E-03 0. -1.
    9900012    2    1    2    0    0 -0.35137121901E+02  0.25619987396E+02  0.11752122095E+02  0.46142318039E+02  0.10000002530E+02 0.  0.
         12    1    1    2    0    0  0.35137121901E+02 -0.25619987396E+02 -0.11752122095E+02  0.45045681961E+02  0.00000000000E+00 0. -1.
         11    1    3    3    0    0 -0.11862265476E+02  0.48603782717E+01  0.17884438890E+01  0.12943537035E+02  0.51100000000E-03 0. -1.
        -11    1    3    3    0    0 -0.45057093194E+01  0.61407622376E+01  0.62888300515E+00  0.76423734157E+01  0.51100000000E-03 0.  1.
         12    1    3    3    0    0 -0.18769147105E+02  0.14618846887E+02  0.93347952010E+01  0.25556407588E+02  0.00000000000E+00 0. -1.
</event>
<event>
 7    1  0.2312612E-008  0.4614232E+02  0.7816164E-02  0.1320468E+00
        -11   -1    0    0    0    0  0.00000000000E+00  0.00000000000E+00  0.45593999997E+02  0.45594000000E+02  0.51100000000E-03 0.  1.
         11   -1    0    0    0    0 -0.00000000000E+00 -0.00000000000E+00 -0.45593999997E+02  0.45594000000E+02  0.51100000000E-03 0. -1.
    9900012    2    1    2    0    0 -0.12805706916E+01 -0.26955688760E+02  0.36067495873E+02  0.46142320114E+02  0.10000021458E+02 0.  0.
         12    1    1    2    0    0  0.12805706916E+01  0.26955688760E+02 -0.36067495873E+02  0.45045679886E+02  0.00000000000E+00 0. -1.
         11    1    3    3    0    0  0.12718998340E+01 -0.40319876522E+01  0.26483207612E+01  0.49888131585E+01  0.51100000000E-03 0. -1.
        -11    1    3    3    0    0  0.43494837052E+00 -0.15058368400E+02  0.25394445718E+02  0.29526623792E+02  0.51100000000E-03 0.  1.
        -12    1    3    3    0    0 -0.29874188961E+01 -0.78653327084E+01  0.80247293933E+01  0.11626883164E+02  0.00000000000E+00 0.  1.
</event>
<event>
 7    1  0.2312612E-008  0.4614232E+02  0.7816164E-02  0.1320468E+00
        -11   -1    0    0    0    0  0.00000000000E+00  0.00000000000E+00  0.45593999997E+02  0.45594000000E+02  0.51100000000E-03 0. -1.
         11   -1    0    0    0    0 -0.00000000000E+00 -0.00000000000E+00 -0.45593999997E+02  0.45594000000E+02  0.51100000000E-03 0.  1.
    9900012    2    1    2    0    0 -0.29411851176E+02  0.33485345468E+02 -0.65412297218E+01  0.46142322772E+02  0.10000045689E+02 0.  0.
         12    1    1    2    0    0  0.29411851176E+02 -0.33485345468E+02  0.65412297218E+01  0.45045677228E+02  0.00000000000E+00 0. -1.
         11    1    3    3    0    0 -0.25092550213E+01  0.56818932270E+00 -0.97981329595E+00  0.27530409050E+01  0.51100000000E-03 0. -1.
        -11    1    3    3    0    0 -0.16936751291E+02  0.18207473729E+02 -0.61339212740E+01  0.25612314115E+02  0.51100000000E-03 0.  1.
         12    1    3    3    0    0 -0.99658448639E+01  0.14709682416E+02  0.57250484811E+00  0.17776967751E+02  0.00000000000E+00 0. -1.
</event>
<event>
 7    1  0.2312612E-008  0.4614232E+02  0.7816164E-02  0.1320468E+00
        -11   -1    0    0    0    0  0.00000000000E+00  0.00000000000E+00  0.45593999997E+02  0.45594000000E+02  0.51100000000E-03 0. -1.
         11   -1    0    0    0    0 -0.00000000000E+00 -0.00000000000E+00 -0.45593999997E+02  0.45594000000E+02  0.51100000000E-03 0.  1.
    9900012    2    1    2    0    0  0.27916783077E+02 -0.14541455644E+02  0.32222859482E+02  0.46142318932E+02  0.10000010680E+02 0.  0.
         12    1    1    2    0    0 -0.27916783077E+02  0.14541455644E+02 -0.32222859482E+02  0.45045681068E+02  0.00000000000E+00 0. -1.
         11    1    3    3    0    0  0.88541094268E+01 -0.36062243394E+01  0.12631114869E+02  0.15841249030E+02  0.51100000000E-03 0. -1.
        -11    1    3    3    0    0  0.17227328087E+02 -0.96204001547E+01  0.19898151757E+02  0.28022658257E+02  0.51100000000E-03 0.  1.
        -12    1    3    3    0    0  0.18353455635E+01 -0.13148311499E+01 -0.30640714400E+00  0.22784116459E+01  0.00000000000E+00 0.  1.
</event>
<event>
 7    1  0.2312612E-008  0.4614232E+02  0.7816164E-02  0.1320468E+00
        -11   -1    0    0    0    0  0.00000000000E+00  0.00000000000E+00  0.45593999997E+02  0.45594000000E+02  0.51100000000E-03 0. -1.
         11   -1    0    0    0    0 -0.00000000000E+00 -0.00000000000E+00 -0.45593999997E+02  0.45594000000E+02  0.51100000000E-03 0.  1.
    9900012    2    1    2    0    0 -0.31124693054E+02 -0.31190201490E+02  0.93561883014E+01  0.46142318229E+02  0.10000004263E+02 0.  0.
         12    1    1    2    0    0  0.31124693054E+02  0.31190201490E+02 -0.93561883014E+01  0.45045681771E+02  0.00000000000E+00 0. -1.
         11    1    3    3    0    0 -0.26977926263E+01 -0.31765330695E+01  0.24883302692E+01  0.48538886664E+01  0.51100000000E-03 0. -1.
        -11    1    3    3    0    0 -0.27790508590E+02 -0.28570233229E+02  0.68602100999E+01  0.40442960788E+02  0.51100000000E-03 0.  1.
        -12    1    3    3    0    0 -0.63639183782E+00  0.55656480806E+00  0.76479323291E-02  0.84546877393E+00  0.00000000000E+00 0.  1.
</event>
<event>
 7    1  0.2312612E-008  0.4614233E+02  0.7816164E-02  0.1320468E+00
        -11   -1    0    0    0    0  0.00000000000E+00  0.00000000000E+00  0.45593999997E+02  0.45594000000E+02  0.51100000000E-03 0.  1.
         11   -1    0    0    0    0 -0.00000000000E+00 -0.00000000000E+00 -0.45593999997E+02  0.45594000000E+02  0.51100000000E-03 0. -1.
    9900012    2    1    2    0    0  0.42435123068E+02  0.13416025042E+01  0.15052347635E+02  0.46142326108E+02  0.10000076112E+02 0.  0.
         12    1    1    2    0    0 -0.42435123068E+02 -0.13416025042E+01 -0.15052347635E+02  0.45045673892E+02  0.00000000000E+00 0. -1.
         11    1    3    3    0    0  0.14869989414E+02  0.12881151189E+01  0.63975494026E+01  0.16238979782E+02  0.51100000000E-03 0. -1.
        -11    1    3    3    0    0  0.25863886336E+02  0.20814458804E+01  0.82369253840E+01  0.27223518755E+02  0.51100000000E-03 0.  1.
         12    1    3    3    0    0  0.17012473182E+01 -0.20279584951E+01  0.41787284864E+00  0.26798275716E+01  0.00000000000E+00 0. -1.
</event>
<event>
 7    1  0.2312612E-008  0.4614232E+02  0.7816164E-02  0.1320468E+00
        -11   -1    0    0    0    0  0.00000000000E+00  0.00000000000E+00  0.45593999997E+02  0.45594000000E+02  0.51100000000E-03 0. -1.
         11   -1    0    0    0    0 -0.00000000000E+00 -0.00000000000E+00 -0.45593999997E+02  0.45594000000E+02  0.51100000000E-03 0.  1.
    9900012    2    1    2    0    0 -0.19738333281E+02 -0.19911832280E+02 -0.35256640108E+02  0.46142317220E+02  0.99999950622E+01 0.  0.
         12    1    1    2    0    0  0.19738333281E+02  0.19911832280E+02  0.35256640108E+02  0.45045682780E+02  0.00000000000E+00 0. -1.
         11    1    3    3    0    0 -0.17454743725E+01 -0.64206677126E+01 -0.70870109879E+01  0.97209762712E+01  0.51100000000E-03 0. -1.
        -11    1    3    3    0    0 -0.18285732207E+01 -0.38385150985E+01 -0.48324237884E+01  0.64366294065E+01  0.51100000000E-03 0.  1.
        -12    1    3    3    0    0 -0.16164285688E+02 -0.96526494685E+01 -0.23337205332E+02  0.29984711542E+02  0.00000000000E+00 0.  1.
</event>
<event>
 7    1  0.2312612E-008  0.4614232E+02  0.7816164E-02  0.1320468E+00
        -11   -1    0    0    0    0  0.00000000000E+00  0.00000000000E+00  0.45593999997E+02  0.45594000000E+02  0.51100000000E-03 0.  1.
         11   -1    0    0    0    0 -0.00000000000E+00 -0.00000000000E+00 -0.45593999997E+02  0.45594000000E+02  0.51100000000E-03 0. -1.
    9900012    2    1    2    0    0  0.75633638295E+01 -0.40751907420E+02  0.17640607529E+02  0.46142318023E+02  0.10000002386E+02 0.  0.
         12    1    1    2    0    0 -0.75633638295E+01  0.40751907420E+02 -0.17640607529E+02  0.45045681977E+02  0.00000000000E+00 0. -1.
         11    1    3    3    0    0 -0.51543778377E+00 -0.72815703202E-01  0.14411473550E+01  0.15322807170E+01  0.51100000000E-03 0. -1.
        -11    1    3    3    0    0  0.33257080963E+01 -0.12080646468E+02  0.39532104235E+01  0.13138882233E+02  0.51100000000E-03 0.  1.
        -12    1    3    3    0    0  0.47530935170E+01 -0.28598445249E+02  0.12246249751E+02  0.31471155073E+02  0.00000000000E+00 0.  1.
</event>
<event>
 7    1  0.2312612E-008  0.4614232E+02  0.7816164E-02  0.1320468E+00
        -11   -1    0    0    0    0  0.00000000000E+00  0.00000000000E+00  0.45593999997E+02  0.45594000000E+02  0.51100000000E-03 0. -1.
         11   -1    0    0    0    0 -0.00000000000E+00 -0.00000000000E+00 -0.45593999997E+02  0.45594000000E+02  0.51100000000E-03 0.  1.
    9900012    2    1    2    0    0  0.44225747112E+02  0.85233995053E+01 -0.74050106607E+00  0.46142318868E+02  0.10000010098E+02 0.  0.
         12    1    1    2    0    0 -0.44225747112E+02 -0.85233995053E+01  0.74050106607E+00  0.45045681132E+02  0.00000000000E+00 0. -1.
         11    1    3    3    0    0  0.26270103985E+01  0.96285910002E+00 -0.11674970731E+00  0.28003414141E+01  0.51100000000E-03 0. -1.
        -11    1    3    3    0    0  0.12912274020E+02  0.63542354310E+01 -0.23346977808E+01  0.14579229825E+02  0.51100000000E-03 0.  1.
         12    1    3    3    0    0  0.28686462693E+02  0.12063049742E+01  0.17109464220E+01  0.28762747630E+02  0.00000000000E+00 0. -1.
</event>
<event>
 7    1  0.2312612E-008  0.4614232E+02  0.7816164E-02  0.1320468E+00
        -11   -1    0    0    0    0  0.00000000000E+00  0.00000000000E+00  0.45593999997E+02  0.45594000000E+02  0.51100000000E-03 0.  1.
         11   -1    0    0    0    0 -0.00000000000E+00 -0.00000000000E+00 -0.45593999997E+02  0.45594000000E+02  0.51100000000E-03 0. -1.
    9900012    2    1    2    0    0 -0.19285760989E+02  0.19553696425E+02  0.35704704066E+02  0.46142317485E+02  0.99999974805E+01 0.  0.
         12    1    1    2    0    0  0.19285760989E+02 -0.19553696425E+02 -0.35704704066E+02  0.45045682515E+02  0.00000000000E+00 0. -1.
         11    1    3    3    0    0 -0.64485555342E+01  0.45089777488E+01  0.58342016337E+01  0.97955427507E+01  0.51100000000E-03 0. -1.
        -11    1    3    3    0    0 -0.12924437889E+01  0.48820523105E+01  0.10155574991E+02  0.11341981722E+02  0.51100000000E-03 0.  1.
        -12    1    3    3    0    0 -0.11544761666E+02  0.10162666366E+02  0.19714927441E+02  0.25004793012E+02  0.00000000000E+00 0.  1.
</event>
<event>
 7    1  0.2312612E-008  0.4614232E+02  0.7816164E-02  0.1320468E+00
        -11   -1    0    0    0    0  0.00000000000E+00  0.00000000000E+00  0.45593999997E+02  0.45594000000E+02  0.51100000000E-03 0. -1.
         11   -1    0    0    0    0 -0.00000000000E+00 -0.00000000000E+00 -0.45593999997E+02  0.45594000000E+02  0.51100000000E-03 0.  1.
    9900012    2    1    2    0    0 -0.16395986117E+02  0.35038447704E+01 -0.41809187444E+02  0.46142318257E+02  0.10000004526E+02 0.  0.
         12    1    1    2    0    0  0.16395986117E+02 -0.35038447704E+01  0.41809187444E+02  0.45045681743E+02  0.00000000000E+00 0. -1.
         11    1    3    3    0    0  0.40663249229E-01  0.98497534524E-01  0.10438586347E+00  0.14917082073E+00  0.51100000000E-03 0. -1.
        -11    1    3    3    0    0 -0.15779760048E+02  0.96835738239E+00 -0.39295712713E+02  0.42356718252E+02  0.51100000000E-03 0.  1.
         12    1    3    3    0    0 -0.65688931779E+00  0.24369898535E+01 -0.26178605943E+01  0.36364291844E+01  0.00000000000E+00 0. -1.
</event>
<event>
 7    1  0.2312612E-008  0.4614232E+02  0.7816164E-02  0.1320468E+00
        -11   -1    0    0    0    0  0.00000000000E+00  0.00000000000E+00  0.45593999997E+02  0.45594000000E+02  0.51100000000E-03 0. -1.
         11   -1    0    0    0    0 -0.00000000000E+00 -0.00000000000E+00 -0.45593999997E+02  0.45594000000E+02  0.51100000000E-03 0.  1.
    9900012    2    1    2    0    0 -0.41666480205E+02  0.29909242700E-01  0.17117737549E+02  0.46142318675E+02  0.10000008333E+02 0.  0.
         12    1    1    2    0    0  0.41666480205E+02 -0.29909242700E-01 -0.17117737549E+02  0.45045681325E+02  0.00000000000E+00 0. -1.
         11    1    3    3    0    0 -0.10866060461E+02 -0.35675655576E+01  0.41373738022E+01  0.12162099169E+02  0.51100000000E-03 0. -1.
        -11    1    3    3    0    0 -0.22614714520E+02  0.45950082181E+00  0.88451758086E+01  0.24287313338E+02  0.51100000000E-03 0.  1.
         12    1    3    3    0    0 -0.81857052244E+01  0.31379739784E+01  0.41351879379E+01  0.96929061685E+01  0.00000000000E+00 0. -1.
</event>
<event>
 7    1  0.2312612E-008  0.4614232E+02  0.7816164E-02  0.1320468E+00
        -11   -1    0    0    0    0  0.00000000000E+00  0.00000000000E+00  0.45593999997E+02  0.45594000000E+02  0.51100000000E-03 0.  1.
         11   -1    0    0    0    0 -0.00000000000E+00 -0.00000000000E+00 -0.45593999997E+02  0.45594000000E+02  0.51100000000E-03 0. -1.
    9900012    2    1    2    0    0 -0.17651152298E+02  0.23876070539E+02  0.33874527568E+02  0.46142317190E+02  0.99999947951E+01 0.  0.
         12    1    1    2    0    0  0.17651152298E+02 -0.23876070539E+02 -0.33874527568E+02  0.45045682810E+02  0.00000000000E+00 0. -1.
         11    1    3    3    0    0 -0.10689021388E+02  0.17504421754E+02  0.20056449813E+02  0.28686602074E+02  0.51100000000E-03 0. -1.
        -11    1    3    3    0    0 -0.29533501769E+00  0.30862473361E+01  0.28812107207E+01  0.42324367533E+01  0.51100000000E-03 0.  1.
         12    1    3    3    0    0 -0.66667958923E+01  0.32854014493E+01  0.10936867034E+02  0.13223278363E+02  0.00000000000E+00 0. -1.
</event>
<event>
 7    1  0.2312612E-008  0.4614232E+02  0.7816164E-02  0.1320468E+00
        -11   -1    0    0    0    0  0.00000000000E+00  0.00000000000E+00  0.45593999997E+02  0.45594000000E+02  0.51100000000E-03 0.  1.
         11   -1    0    0    0    0 -0.00000000000E+00 -0.00000000000E+00 -0.45593999997E+02  0.45594000000E+02  0.51100000000E-03 0. -1.
    9900012    2    1    2    0    0 -0.76041362489E+01 -0.15770636109E+02  0.41503947631E+02  0.46142317406E+02  0.99999967637E+01 0.  0.
         12    1    1    2    0    0  0.76041362489E+01  0.15770636109E+02 -0.41503947631E+02  0.45045682594E+02  0.00000000000E+00 0. -1.
         11    1    3    3    0    0 -0.60085144421E+01 -0.49038814063E+01  0.10047658584E+02  0.12692743672E+02  0.51100000000E-03 0. -1.
        -11    1    3    3    0    0 -0.20313290533E+01 -0.39301589269E+01  0.12255411198E+02  0.13029487741E+02  0.51100000000E-03 0.  1.
         12    1    3    3    0    0  0.43570724654E+00 -0.69365957761E+01  0.19200877849E+02  0.20420085993E+02  0.00000000000E+00 0. -1.
</event>
<event>
 7    1  0.2312612E-008  0.4614232E+02  0.7816164E-02  0.1320468E+00
        -11   -1    0    0    0    0  0.00000000000E+00  0.00000000000E+00  0.45593999997E+02  0.45594000000E+02  0.51100000000E-03 0. -1.
         11   -1    0    0    0    0 -0.00000000000E+00 -0.00000000000E+00 -0.45593999997E+02  0.45594000000E+02  0.51100000000E-03 0.  1.
    9900012    2    1    2    0    0 -0.32512660645E+02 -0.26300531956E+02 -0.16742837252E+02  0.46142315605E+02  0.99999803349E+01 0.  0.
         12    1    1    2    0    0  0.32512660645E+02  0.26300531956E+02  0.16742837252E+02  0.45045684395E+02  0.00000000000E+00 0. -1.
         11    1    3    3    0    0 -0.27930043993E+01 -0.14826906200E+01 -0.40631193558E+01  0.51486099298E+01  0.51100000000E-03 0. -1.
        -11    1    3    3    0    0 -0.69078293289E+01 -0.42057564949E+01 -0.12013267217E+01  0.81761653534E+01  0.51100000000E-03 0.  1.
        -12    1    3    3    0    0 -0.22811826917E+02 -0.20612084841E+02 -0.11478391175E+02  0.32817540321E+02  0.00000000000E+00 0.  1.
</event>
<event>
 7    1  0.2312612E-008  0.4614232E+02  0.7816164E-02  0.1320468E+00
        -11   -1    0    0    0    0  0.00000000000E+00  0.00000000000E+00  0.45593999997E+02  0.45594000000E+02  0.51100000000E-03 0. -1.
         11   -1    0    0    0    0 -0.00000000000E+00 -0.00000000000E+00 -0.45593999997E+02  0.45594000000E+02  0.51100000000E-03 0.  1.
    9900012    2    1    2    0    0 -0.37649525242E+02  0.24706415470E+02  0.11044387169E+01  0.46142317619E+02  0.99999987032E+01 0.  0.
         12    1    1    2    0    0  0.37649525242E+02 -0.24706415470E+02 -0.11044387169E+01  0.45045682381E+02  0.00000000000E+00 0. -1.
         11    1    3    3    0    0 -0.11418023670E+01  0.25659890607E+01  0.98565636342E-01  0.28102896560E+01  0.51100000000E-03 0. -1.
        -11    1    3    3    0    0 -0.18103427698E+02  0.70519901307E+01  0.18653757175E+01  0.19517794087E+02  0.51100000000E-03 0.  1.
        -12    1    3    3    0    0 -0.18404295177E+02  0.15088436278E+02 -0.85950263703E+00  0.23814233876E+02  0.00000000000E+00 0.  1.
</event>
<event>
 7    1  0.2312612E-008  0.4614232E+02  0.7816164E-02  0.1320468E+00
        -11   -1    0    0    0    0  0.00000000000E+00  0.00000000000E+00  0.45593999997E+02  0.45594000000E+02  0.51100000000E-03 0.  1.
         11   -1    0    0    0    0 -0.00000000000E+00 -0.00000000000E+00 -0.45593999997E+02  0.45594000000E+02  0.51100000000E-03 0. -1.
    9900012    2    1    2    0    0 -0.17933507653E+01 -0.23691095237E+02  0.38270476264E+02  0.46142318143E+02  0.10000003480E+02 0.  0.
         12    1    1    2    0    0  0.17933507653E+01  0.23691095237E+02 -0.38270476264E+02  0.45045681857E+02  0.00000000000E+00 0. -1.
         11    1    3    3    0    0 -0.17751139481E+00 -0.95839015952E+01  0.13375016834E+02  0.16455204516E+02  0.51100000000E-03 0. -1.
        -11    1    3    3    0    0 -0.70051323046E-01 -0.13772711255E+02  0.24419009258E+02  0.28035343691E+02  0.51100000000E-03 0.  1.
         12    1    3    3    0    0 -0.15457880474E+01 -0.33448238671E+00  0.47645017306E+00  0.16517699362E+01  0.00000000000E+00 0. -1.
</event>
<event>
 7    1  0.2312612E-008  0.4614232E+02  0.7816164E-02  0.1320468E+00
        -11   -1    0    0    0    0  0.00000000000E+00  0.00000000000E+00  0.45593999997E+02  0.45594000000E+02  0.51100000000E-03 0.  1.
         11   -1    0    0    0    0 -0.00000000000E+00 -0.00000000000E+00 -0.45593999997E+02  0.45594000000E+02  0.51100000000E-03 0. -1.
    9900012    2    1    2    0    0 -0.23247793117E+02 -0.13222230664E+02  0.36246740407E+02  0.46142318091E+02  0.10000003004E+02 0.  0.
         12    1    1    2    0    0  0.23247793117E+02  0.13222230664E+02 -0.36246740407E+02  0.45045681909E+02  0.00000000000E+00 0. -1.
         11    1    3    3    0    0 -0.52792448839E+01 -0.45990067522E+01  0.10265226401E+02  0.12425625255E+02  0.51100000000E-03 0. -1.
        -11    1    3    3    0    0 -0.14939152350E+02 -0.94541268143E+01  0.18433928272E+02  0.25541505409E+02  0.51100000000E-03 0.  1.
        -12    1    3    3    0    0 -0.30293958833E+01  0.83090290212E+00  0.75475857341E+01  0.81751874269E+01  0.00000000000E+00 0.  1.
</event>
<event>
 7    1  0.2312612E-008  0.4614232E+02  0.7816164E-02  0.1320468E+00
        -11   -1    0    0    0    0  0.00000000000E+00  0.00000000000E+00  0.45593999997E+02  0.45594000000E+02  0.51100000000E-03 0.  1.
         11   -1    0    0    0    0 -0.00000000000E+00 -0.00000000000E+00 -0.45593999997E+02  0.45594000000E+02  0.51100000000E-03 0. -1.
    9900012    2    1    2    0    0  0.25394433560E+02  0.33716114769E+02  0.15730854313E+02  0.46142318427E+02  0.10000006075E+02 0.  0.
         12    1    1    2    0    0 -0.25394433560E+02 -0.33716114769E+02 -0.15730854313E+02  0.45045681573E+02  0.00000000000E+00 0. -1.
         11    1    3    3    0    0  0.12039101223E+02  0.14188713152E+02  0.28857326517E+01  0.18830480407E+02  0.51100000000E-03 0. -1.
        -11    1    3    3    0    0  0.13114748180E+02  0.19530864592E+02  0.11953275144E+02  0.26388104867E+02  0.51100000000E-03 0.  1.
        -12    1    3    3    0    0  0.24058415697E+00 -0.34629750105E-02  0.89184651690E+00  0.92373315329E+00  0.00000000000E+00 0.  1.
</event>
<event>
 7    1  0.2312612E-008  0.4614232E+02  0.7816164E-02  0.1320468E+00
        -11   -1    0    0    0    0  0.00000000000E+00  0.00000000000E+00  0.45593999997E+02  0.45594000000E+02  0.51100000000E-03 0.  1.
         11   -1    0    0    0    0 -0.00000000000E+00 -0.00000000000E+00 -0.45593999997E+02  0.45594000000E+02  0.51100000000E-03 0. -1.
    9900012    2    1    2    0    0 -0.13625413407E+02 -0.32375038775E+02  0.28201390979E+02  0.46142317861E+02  0.10000000912E+02 0.  0.
         12    1    1    2    0    0  0.13625413407E+02  0.32375038775E+02 -0.28201390979E+02  0.45045682139E+02  0.00000000000E+00 0. -1.
         11    1    3    3    0    0 -0.21874120706E+01 -0.54938324376E+00  0.12277622366E+01  0.25678773113E+01  0.51100000000E-03 0. -1.
        -11    1    3    3    0    0 -0.12780412192E+01 -0.77196916500E+01  0.84764000047E+01  0.11535873865E+02  0.51100000000E-03 0.  1.
         12    1    3    3    0    0 -0.10159960118E+02 -0.24105963881E+02  0.18497228738E+02  0.32038566685E+02  0.00000000000E+00 0. -1.
</event>
<event>
 7    1  0.2312612E-008  0.4614232E+02  0.7816164E-02  0.1320468E+00
        -11   -1    0    0    0    0  0.00000000000E+00  0.00000000000E+00  0.45593999997E+02  0.45594000000E+02  0.51100000000E-03 0.  1.
         11   -1    0    0    0    0 -0.00000000000E+00 -0.00000000000E+00 -0.45593999997E+02  0.45594000000E+02  0.51100000000E-03 0. -1.
    9900012    2    1    2    0    0 -0.89323857813E+01 -0.32983565846E+02  0.29349794033E+02  0.46142317172E+02  0.99999946259E+01 0.  0.
         12    1    1    2    0    0  0.89323857813E+01  0.32983565846E+02 -0.29349794033E+02  0.45045682828E+02  0.00000000000E+00 0. -1.
         11    1    3    3    0    0 -0.27345444005E+01 -0.90506163763E+01  0.44082083129E+01  0.10431859406E+02  0.51100000000E-03 0. -1.
        -11    1    3    3    0    0 -0.48648801326E+01 -0.70701360167E+01  0.72649167596E+01  0.11244238426E+02  0.51100000000E-03 0.  1.
        -12    1    3    3    0    0 -0.13329612483E+01 -0.16862813453E+02  0.17676668961E+02  0.24466219340E+02  0.00000000000E+00 0.  1.
</event>
<event>
 7    1  0.2312612E-008  0.4614232E+02  0.7816164E-02  0.1320468E+00
        -11   -1    0    0    0    0  0.00000000000E+00  0.00000000000E+00  0.45593999997E+02  0.45594000000E+02  0.51100000000E-03 0.  1.
         11   -1    0    0    0    0 -0.00000000000E+00 -0.00000000000E+00 -0.45593999997E+02  0.45594000000E+02  0.51100000000E-03 0. -1.
    9900012    2    1    2    0    0 -0.13585189601E+02 -0.31851017479E+02  0.28810914886E+02  0.46142317549E+02  0.99999980633E+01 0.  0.
         12    1    1    2    0    0  0.13585189601E+02  0.31851017479E+02 -0.28810914886E+02  0.45045682451E+02  0.00000000000E+00 0. -1.
         11    1    3    3    0    0 -0.20657368303E+01 -0.12239026896E+02  0.11636341529E+02  0.17013685446E+02  0.51100000000E-03 0. -1.
        -11    1    3    3    0    0  0.20354875304E+00 -0.35581126657E+01  0.17659393673E+01  0.39774539528E+01  0.51100000000E-03 0.  1.
        -12    1    3    3    0    0 -0.11723001524E+02 -0.16053877917E+02  0.15408633990E+02  0.25151178150E+02  0.00000000000E+00 0.  1.
</event>
<event>
 7    1  0.2312612E-008  0.4614232E+02  0.7816164E-02  0.1320468E+00
        -11   -1    0    0    0    0  0.00000000000E+00  0.00000000000E+00  0.45593999997E+02  0.45594000000E+02  0.51100000000E-03 0.  1.
         11   -1    0    0    0    0 -0.00000000000E+00 -0.00000000000E+00 -0.45593999997E+02  0.45594000000E+02  0.51100000000E-03 0. -1.
    9900012    2    1    2    0    0 -0.98559748050E+01 -0.17974816228E+02  0.40110836674E+02  0.46142317894E+02  0.10000001207E+02 0.  0.
         12    1    1    2    0    0  0.98559748050E+01  0.17974816228E+02 -0.40110836674E+02  0.45045682106E+02  0.00000000000E+00 0. -1.
         11    1    3    3    0    0 -0.31567930447E+01 -0.28749837657E+01  0.45805970074E+01  0.62620079197E+01  0.51100000000E-03 0. -1.
        -11    1    3    3    0    0 -0.82163198844E+01 -0.10924916428E+02  0.26748550894E+02  0.30039085981E+02  0.51100000000E-03 0.  1.
        -12    1    3    3    0    0  0.15171381241E+01 -0.41749160341E+01  0.87816887724E+01  0.98412239927E+01  0.00000000000E+00 0.  1.
</event>
<event>
 7    1  0.2312612E-008  0.4614232E+02  0.7816164E-02  0.1320468E+00
        -11   -1    0    0    0    0  0.00000000000E+00  0.00000000000E+00  0.45593999997E+02  0.45594000000E+02  0.51100000000E-03 0.  1.
         11   -1    0    0    0    0 -0.00000000000E+00 -0.00000000000E+00 -0.45593999997E+02  0.45594000000E+02  0.51100000000E-03 0. -1.
    9900012    2    1    2    0    0  0.14756928812E+02 -0.17383857067E+01  0.42524399396E+02  0.46142317889E+02  0.10000001166E+02 0.  0.
         12    1    1    2    0    0 -0.14756928812E+02  0.17383857067E+01 -0.42524399396E+02  0.45045682111E+02  0.00000000000E+00 0. -1.
         11    1    3    3    0    0 -0.22574998581E+00  0.19020342627E+00 -0.90262586153E-01  0.30868753625E+00  0.51100000000E-03 0. -1.
        -11    1    3    3    0    0  0.39312666756E+01 -0.15753375593E+01  0.22359088314E+02  0.22756655655E+02  0.51100000000E-03 0.  1.
        -12    1    3    3    0    0  0.11051412122E+02 -0.35325157371E+00  0.20255573668E+02  0.23076974697E+02  0.00000000000E+00 0.  1.
</event>
<event>
 7    1  0.2312612E-008  0.4614232E+02  0.7816164E-02  0.1320468E+00
        -11   -1    0    0    0    0  0.00000000000E+00  0.00000000000E+00  0.45593999997E+02  0.45594000000E+02  0.51100000000E-03 0. -1.
         11   -1    0    0    0    0 -0.00000000000E+00 -0.00000000000E+00 -0.45593999997E+02  0.45594000000E+02  0.51100000000E-03 0.  1.
    9900012    2    1    2    0    0  0.37037085727E+02  0.17197436919E+02  0.19016201503E+02  0.46142317905E+02  0.10000001316E+02 0.  0.
         12    1    1    2    0    0 -0.37037085727E+02 -0.17197436919E+02 -0.19016201503E+02  0.45045682095E+02  0.00000000000E+00 0. -1.
         11    1    3    3    0    0  0.22050201338E+02  0.81931626506E+01  0.87931477637E+01  0.25112919805E+02  0.51100000000E-03 0.  1.
        -11    1    3    3    0    0  0.12609975933E+02  0.49504490096E+01  0.86537913462E+01  0.16075028565E+02  0.51100000000E-03 0. -1.
         12    1    3    3    0    0  0.23769084560E+01  0.40538252591E+01  0.15692623932E+01  0.49543695359E+01  0.00000000000E+00 0. -1.
</event>
<event>
 7    1  0.2312612E-008  0.4614232E+02  0.7816164E-02  0.1320468E+00
        -11   -1    0    0    0    0  0.00000000000E+00  0.00000000000E+00  0.45593999997E+02  0.45594000000E+02  0.51100000000E-03 0.  1.
         11   -1    0    0    0    0 -0.00000000000E+00 -0.00000000000E+00 -0.45593999997E+02  0.45594000000E+02  0.51100000000E-03 0. -1.
    9900012    2    1    2    0    0  0.12542824119E+02  0.16094026893E+02  0.40159349802E+02  0.46142317465E+02  0.99999973023E+01 0.  0.
         12    1    1    2    0    0 -0.12542824119E+02 -0.16094026893E+02 -0.40159349802E+02  0.45045682535E+02  0.00000000000E+00 0. -1.
         11    1    3    3    0    0  0.18998146093E+00  0.21182418719E+00 -0.35056602741E+00  0.45150774353E+00  0.51100000000E-03 0. -1.
        -11    1    3    3    0    0  0.28727678360E+01  0.10126102891E+01  0.99730623248E+01  0.10427854383E+02  0.51100000000E-03 0.  1.
        -12    1    3    3    0    0  0.94800748218E+01  0.14869592417E+02  0.30536853505E+02  0.35262955339E+02  0.00000000000E+00 0.  1.
</event>
<event>
 7    1  0.2312612E-008  0.4614231E+02  0.7816164E-02  0.1320468E+00
        -11   -1    0    0    0    0  0.00000000000E+00  0.00000000000E+00  0.45593999997E+02  0.45594000000E+02  0.51100000000E-03 0. -1.
         11   -1    0    0    0    0 -0.00000000000E+00 -0.00000000000E+00 -0.45593999997E+02  0.45594000000E+02  0.51100000000E-03 0.  1.
    9900012    2    1    2    0    0 -0.83621306960E+01 -0.42261467115E+02  0.13158910639E+02  0.46142314727E+02  0.99999723346E+01 0.  0.
         12    1    1    2    0    0  0.83621306960E+01  0.42261467115E+02 -0.13158910639E+02  0.45045685273E+02  0.00000000000E+00 0. -1.
         11    1    3    3    0    0 -0.55960609490E+01 -0.16102048391E+02  0.12621740756E+01  0.17093418154E+02  0.51100000000E-03 0. -1.
        -11    1    3    3    0    0  0.33795146030E+00 -0.10221347467E+01  0.10234406128E+01  0.14853961017E+01  0.51100000000E-03 0.  1.
        -12    1    3    3    0    0 -0.31040212073E+01 -0.25137283977E+02  0.10873295951E+02  0.27563500471E+02  0.00000000000E+00 0.  1.
</event>
<event>
 7    1  0.2312612E-008  0.4614232E+02  0.7816164E-02  0.1320468E+00
        -11   -1    0    0    0    0  0.00000000000E+00  0.00000000000E+00  0.45593999997E+02  0.45594000000E+02  0.51100000000E-03 0.  1.
         11   -1    0    0    0    0 -0.00000000000E+00 -0.00000000000E+00 -0.45593999997E+02  0.45594000000E+02  0.51100000000E-03 0. -1.
    9900012    2    1    2    0    0  0.26938526909E+02  0.35001765527E+02  0.88490496725E+01  0.46142317608E+02  0.99999986056E+01 0.  0.
         12    1    1    2    0    0 -0.26938526909E+02 -0.35001765527E+02 -0.88490496725E+01  0.45045682392E+02  0.00000000000E+00 0. -1.
         11    1    3    3    0    0  0.38362609472E+01  0.26667557603E+01  0.33621116222E+01  0.57560645550E+01  0.51100000000E-03 0. -1.
        -11    1    3    3    0    0  0.15222386447E+02  0.21078560484E+02  0.58110288532E+01  0.26641974736E+02  0.51100000000E-03 0.  1.
         12    1    3    3    0    0  0.78798795148E+01  0.11256449282E+02 -0.32409080292E+00  0.13744278317E+02  0.00000000000E+00 0. -1.
</event>
<event>
 7    1  0.2312612E-008  0.4614232E+02  0.7816164E-02  0.1320468E+00
        -11   -1    0    0    0    0  0.00000000000E+00  0.00000000000E+00  0.45593999997E+02  0.45594000000E+02  0.51100000000E-03 0.  1.
         11   -1    0    0    0    0 -0.00000000000E+00 -0.00000000000E+00 -0.45593999997E+02  0.45594000000E+02  0.51100000000E-03 0. -1.
    9900012    2    1    2    0    0  0.12208669964E+02 -0.35783753985E+02  0.24486411470E+02  0.46142322979E+02  0.10000047582E+02 0.  0.
         12    1    1    2    0    0 -0.12208669964E+02  0.35783753985E+02 -0.24486411470E+02  0.45045677021E+02  0.00000000000E+00 0. -1.
         11    1    3    3    0    0  0.52798861510E+01 -0.17803805409E+02  0.84427630263E+01  0.20399336572E+02  0.51100000000E-03 0. -1.
        -11    1    3    3    0    0  0.25018193482E+01 -0.37531523410E+01  0.11046800975E+01  0.46438745595E+01  0.51100000000E-03 0.  1.
        -12    1    3    3    0    0  0.44269644653E+01 -0.14226796235E+02  0.14938968346E+02  0.21099111847E+02  0.00000000000E+00 0.  1.
</event>
<event>
 7    1  0.2312612E-008  0.4614232E+02  0.7816164E-02  0.1320468E+00
        -11   -1    0    0    0    0  0.00000000000E+00  0.00000000000E+00  0.45593999997E+02  0.45594000000E+02  0.51100000000E-03 0. -1.
         11   -1    0    0    0    0 -0.00000000000E+00 -0.00000000000E+00 -0.45593999997E+02  0.45594000000E+02  0.51100000000E-03 0.  1.
    9900012    2    1    2    0    0 -0.43662741502E+02 -0.84104640720E+00  0.11044052700E+02  0.46142318137E+02  0.10000003425E+02 0.  0.
         12    1    1    2    0    0  0.43662741502E+02  0.84104640720E+00 -0.11044052700E+02  0.45045681863E+02  0.00000000000E+00 0. -1.
         11    1    3    3    0    0 -0.97762795049E+01 -0.22963944143E+01 -0.91748725362E+00  0.10084188187E+02  0.51100000000E-03 0. -1.
        -11    1    3    3    0    0 -0.22380944709E+02  0.82305519771E-01  0.69672412287E+01  0.23440475909E+02  0.51100000000E-03 0.  1.
         12    1    3    3    0    0 -0.11505517288E+02  0.13730424874E+01  0.49942987250E+01  0.12617654041E+02  0.00000000000E+00 0. -1.
</event>
<event>
 7    1  0.2312612E-008  0.4614232E+02  0.7816164E-02  0.1320468E+00
        -11   -1    0    0    0    0  0.00000000000E+00  0.00000000000E+00  0.45593999997E+02  0.45594000000E+02  0.51100000000E-03 0. -1.
         11   -1    0    0    0    0 -0.00000000000E+00 -0.00000000000E+00 -0.45593999997E+02  0.45594000000E+02  0.51100000000E-03 0.  1.
    9900012    2    1    2    0    0  0.44010576409E+02 -0.88454740616E+01  0.37336663907E+01  0.46142317499E+02  0.99999976135E+01 0.  0.
         12    1    1    2    0    0 -0.44010576409E+02  0.88454740616E+01 -0.37336663907E+01  0.45045682501E+02  0.00000000000E+00 0. -1.
         11    1    3    3    0    0  0.19613475839E+02 -0.73101050323E+01  0.15452461314E+01  0.20988421950E+02  0.51100000000E-03 0. -1.
        -11    1    3    3    0    0  0.21122011683E+02 -0.31033846041E+01  0.11613875502E+01  0.21380345994E+02  0.51100000000E-03 0.  1.
         12    1    3    3    0    0  0.32750888872E+01  0.15680155749E+01  0.10270327091E+01  0.37735495555E+01  0.00000000000E+00 0. -1.
</event>
<event>
 7    1  0.2312612E-008  0.4614232E+02  0.7816164E-02  0.1320468E+00
        -11   -1    0    0    0    0  0.00000000000E+00  0.00000000000E+00  0.45593999997E+02  0.45594000000E+02  0.51100000000E-03 0. -1.
         11   -1    0    0    0    0 -0.00000000000E+00 -0.00000000000E+00 -0.45593999997E+02  0.45594000000E+02  0.51100000000E-03 0.  1.
    9900012    2    1    2    0    0  0.31244779573E+02 -0.15008621615E+02 -0.28768359678E+02  0.46142317721E+02  0.99999996377E+01 0.  0.
         12    1    1    2    0    0 -0.31244779573E+02  0.15008621615E+02  0.28768359678E+02  0.45045682279E+02  0.00000000000E+00 0. -1.
         11    1    3    3    0    0  0.11044211390E+01 -0.20581618275E+01 -0.46017202478E+01  0.51605819111E+01  0.51100000000E-03 0. -1.
        -11    1    3    3    0    0  0.40107763319E+01 -0.30801831572E+01 -0.49622551200E+01  0.70850427807E+01  0.51100000000E-03 0.  1.
        -12    1    3    3    0    0  0.26129582102E+02 -0.98702766308E+01 -0.19204384310E+02  0.33896693030E+02  0.00000000000E+00 0.  1.
</event>
<event>
 7    1  0.2312612E-008  0.4614232E+02  0.7816164E-02  0.1320468E+00
        -11   -1    0    0    0    0  0.00000000000E+00  0.00000000000E+00  0.45593999997E+02  0.45594000000E+02  0.51100000000E-03 0.  1.
         11   -1    0    0    0    0 -0.00000000000E+00 -0.00000000000E+00 -0.45593999997E+02  0.45594000000E+02  0.51100000000E-03 0. -1.
    9900012    2    1    2    0    0 -0.11975631585E+02  0.23539051458E+02  0.36491240596E+02  0.46142319457E+02  0.10000015463E+02 0.  0.
         12    1    1    2    0    0  0.11975631585E+02 -0.23539051458E+02 -0.36491240596E+02  0.45045680543E+02  0.00000000000E+00 0. -1.
         11    1    3    3    0    0 -0.69692181461E+01  0.84557984883E+01  0.14690377396E+02  0.18326966960E+02  0.51100000000E-03 0. -1.
        -11    1    3    3    0    0 -0.20032668487E+01  0.21394978299E+00  0.35647589584E+01  0.40946745010E+01  0.51100000000E-03 0.  1.
        -12    1    3    3    0    0 -0.30031465900E+01  0.14869303187E+02  0.18236104241E+02  0.23720677996E+02  0.00000000000E+00 0.  1.
</event>
<event>
 7    1  0.2312612E-008  0.4614232E+02  0.7816164E-02  0.1320468E+00
        -11   -1    0    0    0    0  0.00000000000E+00  0.00000000000E+00  0.45593999997E+02  0.45594000000E+02  0.51100000000E-03 0.  1.
         11   -1    0    0    0    0 -0.00000000000E+00 -0.00000000000E+00 -0.45593999997E+02  0.45594000000E+02  0.51100000000E-03 0. -1.
    9900012    2    1    2    0    0  0.10312566940E+02  0.40687036785E+02  0.16350198311E+02  0.46142323359E+02  0.10000051043E+02 0.  0.
         12    1    1    2    0    0 -0.10312566940E+02 -0.40687036785E+02 -0.16350198311E+02  0.45045676641E+02  0.00000000000E+00 0. -1.
         11    1    3    3    0    0  0.44622983744E+01  0.13642346837E+02  0.13190871541E+01  0.14414080796E+02  0.51100000000E-03 0. -1.
        -11    1    3    3    0    0  0.65777164162E+00  0.95901070396E+00  0.14662014724E+01  0.18713930858E+01  0.51100000000E-03 0.  1.
        -12    1    3    3    0    0  0.51924969237E+01  0.26085679244E+02  0.13564909685E+02  0.29856849477E+02  0.00000000000E+00 0.  1.
</event>
<event>
 7    1  0.2312612E-008  0.4614232E+02  0.7816164E-02  0.1320468E+00
        -11   -1    0    0    0    0  0.00000000000E+00  0.00000000000E+00  0.45593999997E+02  0.45594000000E+02  0.51100000000E-03 0.  1.
         11   -1    0    0    0    0 -0.00000000000E+00 -0.00000000000E+00 -0.45593999997E+02  0.45594000000E+02  0.51100000000E-03 0. -1.
    9900012    2    1    2    0    0  0.27950376119E+02  0.26465865300E+02  0.23397604574E+02  0.46142318175E+02  0.10000003775E+02 0.  0.
         12    1    1    2    0    0 -0.27950376119E+02 -0.26465865300E+02 -0.23397604574E+02  0.45045681825E+02  0.00000000000E+00 0. -1.
         11    1    3    3    0    0  0.69383522417E+01  0.42445758964E+01  0.62947648268E+01  0.10284999799E+02  0.51100000000E-03 0. -1.
        -11    1    3    3    0    0  0.17577508464E+02  0.17414832219E+02  0.10178210991E+02  0.26755208171E+02  0.51100000000E-03 0.  1.
        -12    1    3    3    0    0  0.34345154135E+01  0.48064571848E+01  0.69246287558E+01  0.91021102059E+01  0.00000000000E+00 0.  1.
</event>
<event>
 7    1  0.2312612E-008  0.4614232E+02  0.7816164E-02  0.1320468E+00
        -11   -1    0    0    0    0  0.00000000000E+00  0.00000000000E+00  0.45593999997E+02  0.45594000000E+02  0.51100000000E-03 0.  1.
         11   -1    0    0    0    0 -0.00000000000E+00 -0.00000000000E+00 -0.45593999997E+02  0.45594000000E+02  0.51100000000E-03 0. -1.
    9900012    2    1    2    0    0 -0.27080957343E+02  0.83715256815E+01  0.35009324261E+02  0.46142317875E+02  0.10000001041E+02 0.  0.
         12    1    1    2    0    0  0.27080957343E+02 -0.83715256815E+01 -0.35009324261E+02  0.45045682125E+02  0.00000000000E+00 0. -1.
         11    1    3    3    0    0 -0.18274765886E+01 -0.10389797144E+01  0.49903407961E+01  0.54150393398E+01  0.51100000000E-03 0. -1.
        -11    1    3    3    0    0 -0.17359132618E+02  0.52163353590E+01  0.23425747280E+02  0.29619508364E+02  0.51100000000E-03 0.  1.
        -12    1    3    3    0    0 -0.78943481357E+01  0.41941700369E+01  0.65932361852E+01  0.11107770171E+02  0.00000000000E+00 0.  1.
</event>
<event>
 7    1  0.2312612E-008  0.4614232E+02  0.7816164E-02  0.1320468E+00
        -11   -1    0    0    0    0  0.00000000000E+00  0.00000000000E+00  0.45593999997E+02  0.45594000000E+02  0.51100000000E-03 0.  1.
         11   -1    0    0    0    0 -0.00000000000E+00 -0.00000000000E+00 -0.45593999997E+02  0.45594000000E+02  0.51100000000E-03 0. -1.
    9900012    2    1    2    0    0  0.49185665366E+01 -0.41946625528E+02  0.15665300401E+02  0.46142319557E+02  0.10000016375E+02 0.  0.
         12    1    1    2    0    0 -0.49185665366E+01  0.41946625528E+02 -0.15665300401E+02  0.45045680443E+02  0.00000000000E+00 0. -1.
         11    1    3    3    0    0  0.28525452094E+01 -0.19688744467E+02  0.10774451484E+02  0.22624598956E+02  0.51100000000E-03 0. -1.
        -11    1    3    3    0    0 -0.10102099799E+00 -0.13140509371E+02  0.52221192037E+01  0.14140499320E+02  0.51100000000E-03 0.  1.
         12    1    3    3    0    0  0.21670423252E+01 -0.91173716893E+01 -0.33127028640E+00  0.93772212815E+01  0.00000000000E+00 0. -1.
</event>
<event>
 7    1  0.2312612E-008  0.4614232E+02  0.7816164E-02  0.1320468E+00
        -11   -1    0    0    0    0  0.00000000000E+00  0.00000000000E+00  0.45593999997E+02  0.45594000000E+02  0.51100000000E-03 0. -1.
         11   -1    0    0    0    0 -0.00000000000E+00 -0.00000000000E+00 -0.45593999997E+02  0.45594000000E+02  0.51100000000E-03 0.  1.
    9900012    2    1    2    0    0  0.51184224618E+01 -0.43360091532E+02  0.11082311354E+02  0.46142318619E+02  0.10000007820E+02 0.  0.
         12    1    1    2    0    0 -0.51184224618E+01  0.43360091532E+02 -0.11082311354E+02  0.45045681381E+02  0.00000000000E+00 0. -1.
         11    1    3    3    0    0  0.34082143057E+01 -0.88729979056E+01  0.51848839745E+01  0.10827235967E+02  0.51100000000E-03 0. -1.
        -11    1    3    3    0    0  0.12492616197E+01 -0.81249322427E+01  0.31612062785E+01  0.88072926566E+01  0.51100000000E-03 0.  1.
         12    1    3    3    0    0  0.46094653636E+00 -0.26362161384E+02  0.27362211006E+01  0.26507789995E+02  0.00000000000E+00 0. -1.
</event>
<event>
 7    1  0.2312612E-008  0.4614232E+02  0.7816164E-02  0.1320468E+00
        -11   -1    0    0    0    0  0.00000000000E+00  0.00000000000E+00  0.45593999997E+02  0.45594000000E+02  0.51100000000E-03 0.  1.
         11   -1    0    0    0    0 -0.00000000000E+00 -0.00000000000E+00 -0.45593999997E+02  0.45594000000E+02  0.51100000000E-03 0. -1.
    9900012    2    1    2    0    0 -0.23004247497E+01 -0.35782614360E+02  0.27265836914E+02  0.46142319773E+02  0.10000018348E+02 0.  0.
         12    1    1    2    0    0  0.23004247497E+01  0.35782614360E+02 -0.27265836914E+02  0.45045680227E+02  0.00000000000E+00 0. -1.
         11    1    3    3    0    0  0.57303705603E+00 -0.18611635803E+02  0.15675612917E+02  0.24340217734E+02  0.51100000000E-03 0. -1.
        -11    1    3    3    0    0  0.26627144666E+00 -0.13800943016E+02  0.94125049565E+01  0.16707249278E+02  0.51100000000E-03 0.  1.
         12    1    3    3    0    0 -0.31397332524E+01 -0.33700355409E+01  0.21777190399E+01  0.50948527613E+01  0.00000000000E+00 0. -1.
</event>
<event>
 7    1  0.2312612E-008  0.4614232E+02  0.7816164E-02  0.1320468E+00
        -11   -1    0    0    0    0  0.00000000000E+00  0.00000000000E+00  0.45593999997E+02  0.45594000000E+02  0.51100000000E-03 0. -1.
         11   -1    0    0    0    0 -0.00000000000E+00 -0.00000000000E+00 -0.45593999997E+02  0.45594000000E+02  0.51100000000E-03 0.  1.
    9900012    2    1    2    0    0  0.20660387869E+02 -0.38873202364E+02 -0.95465278142E+01  0.46142315609E+02  0.99999803723E+01 0.  0.
         12    1    1    2    0    0 -0.20660387869E+02  0.38873202364E+02  0.95465278142E+01  0.45045684391E+02  0.00000000000E+00 0. -1.
         11    1    3    3    0    0  0.10685287597E+01 -0.24293470905E+01 -0.91150334134E+00  0.28061218076E+01  0.51100000000E-03 0. -1.
        -11    1    3    3    0    0  0.13225581902E+02 -0.32029955062E+02 -0.79927343379E+01  0.35562871655E+02  0.51100000000E-03 0.  1.
        -12    1    3    3    0    0  0.63662772077E+01 -0.44139002124E+01 -0.64229013501E+00  0.77733221462E+01  0.00000000000E+00 0.  1.
</event>
<event>
 7    1  0.2312612E-008  0.4614232E+02  0.7816164E-02  0.1320468E+00
        -11   -1    0    0    0    0  0.00000000000E+00  0.00000000000E+00  0.45593999997E+02  0.45594000000E+02  0.51100000000E-03 0. -1.
         11   -1    0    0    0    0 -0.00000000000E+00 -0.00000000000E+00 -0.45593999997E+02  0.45594000000E+02  0.51100000000E-03 0.  1.
    9900012    2    1    2    0    0  0.51423039002E+01  0.30872557516E+02 -0.32396839980E+02  0.46142319434E+02  0.10000015254E+02 0.  0.
         12    1    1    2    0    0 -0.51423039002E+01 -0.30872557516E+02  0.32396839980E+02  0.45045680566E+02  0.00000000000E+00 0. -1.
         11    1    3    3    0    0  0.46254347783E+01  0.13904356175E+02 -0.19645702134E+02  0.24508761293E+02  0.51100000000E-03 0. -1.
        -11    1    3    3    0    0  0.14496788378E+01  0.50929143180E+01 -0.22485668244E+01  0.57528599851E+01  0.51100000000E-03 0.  1.
        -12    1    3    3    0    0 -0.93280971592E+00  0.11875287023E+02 -0.10502571021E+02  0.15880698156E+02  0.00000000000E+00 0.  1.
</event>
<event>
 7    1  0.2312612E-008  0.4614232E+02  0.7816164E-02  0.1320468E+00
        -11   -1    0    0    0    0  0.00000000000E+00  0.00000000000E+00  0.45593999997E+02  0.45594000000E+02  0.51100000000E-03 0.  1.
         11   -1    0    0    0    0 -0.00000000000E+00 -0.00000000000E+00 -0.45593999997E+02  0.45594000000E+02  0.51100000000E-03 0. -1.
    9900012    2    1    2    0    0 -0.19022108281E+02 -0.40097101799E+02  0.77133226683E+01  0.46142317380E+02  0.99999965216E+01 0.  0.
         12    1    1    2    0    0  0.19022108281E+02  0.40097101799E+02 -0.77133226683E+01  0.45045682620E+02  0.00000000000E+00 0. -1.
         11    1    3    3    0    0 -0.12242926778E+01 -0.42863860479E+01  0.21546587319E+01  0.49512172670E+01  0.51100000000E-03 0. -1.
        -11    1    3    3    0    0 -0.13669834580E+02 -0.26600682533E+02  0.76797473026E+01  0.30877810925E+02  0.51100000000E-03 0.  1.
         12    1    3    3    0    0 -0.41279810238E+01 -0.92100332183E+01 -0.21210833662E+01  0.10313289187E+02  0.00000000000E+00 0. -1.
</event>
<event>
 7    1  0.2312612E-008  0.4614232E+02  0.7816164E-02  0.1320468E+00
        -11   -1    0    0    0    0  0.00000000000E+00  0.00000000000E+00  0.45593999997E+02  0.45594000000E+02  0.51100000000E-03 0.  1.
         11   -1    0    0    0    0 -0.00000000000E+00 -0.00000000000E+00 -0.45593999997E+02  0.45594000000E+02  0.51100000000E-03 0. -1.
    9900012    2    1    2    0    0  0.17147839322E+02 -0.21105586667E+02  0.35911269764E+02  0.46142317876E+02  0.10000001046E+02 0.  0.
         12    1    1    2    0    0 -0.17147839322E+02  0.21105586667E+02 -0.35911269764E+02  0.45045682124E+02  0.00000000000E+00 0. -1.
         11    1    3    3    0    0  0.65062888977E+01 -0.36566147314E+01  0.12314118673E+02  0.14399310590E+02  0.51100000000E-03 0. -1.
        -11    1    3    3    0    0  0.91971472441E+01 -0.12525213631E+02  0.14269306080E+02  0.21096956894E+02  0.51100000000E-03 0.  1.
        -12    1    3    3    0    0  0.14444031799E+01 -0.49237583044E+01  0.93278450109E+01  0.10646050391E+02  0.00000000000E+00 0.  1.
</event>
<event>
 7    1  0.2312612E-008  0.4614232E+02  0.7816164E-02  0.1320468E+00
        -11   -1    0    0    0    0  0.00000000000E+00  0.00000000000E+00  0.45593999997E+02  0.45594000000E+02  0.51100000000E-03 0. -1.
         11   -1    0    0    0    0 -0.00000000000E+00 -0.00000000000E+00 -0.45593999997E+02  0.45594000000E+02  0.51100000000E-03 0.  1.
    9900012    2    1    2    0    0  0.29133481337E+02 -0.41420320359E+01 -0.34105678370E+02  0.46142318062E+02  0.10000002743E+02 0.  0.
         12    1    1    2    0    0 -0.29133481337E+02  0.41420320359E+01  0.34105678370E+02  0.45045681938E+02  0.00000000000E+00 0. -1.
         11    1    3    3    0    0  0.14395600880E+02 -0.32344345973E+01 -0.18841465754E+02  0.23931061905E+02  0.51100000000E-03 0. -1.
        -11    1    3    3    0    0  0.11497703739E+02 -0.29149355516E+01 -0.90436896053E+01  0.14915842667E+02  0.51100000000E-03 0.  1.
        -12    1    3    3    0    0  0.32401767182E+01  0.20073381131E+01 -0.62205230105E+01  0.72954134899E+01  0.00000000000E+00 0.  1.
</event>
<event>
 7    1  0.2312612E-008  0.4614232E+02  0.7816164E-02  0.1320468E+00
        -11   -1    0    0    0    0  0.00000000000E+00  0.00000000000E+00  0.45593999997E+02  0.45594000000E+02  0.51100000000E-03 0.  1.
         11   -1    0    0    0    0 -0.00000000000E+00 -0.00000000000E+00 -0.45593999997E+02  0.45594000000E+02  0.51100000000E-03 0. -1.
    9900012    2    1    2    0    0 -0.22879691655E+02 -0.33970545273E+02  0.18751939434E+02  0.46142317977E+02  0.10000001967E+02 0.  0.
         12    1    1    2    0    0  0.22879691655E+02  0.33970545273E+02 -0.18751939434E+02  0.45045682023E+02  0.00000000000E+00 0. -1.
         11    1    3    3    0    0 -0.61359913175E+01 -0.11287521208E+02  0.83460442146E+01  0.15320410529E+02  0.51100000000E-03 0. -1.
        -11    1    3    3    0    0 -0.96732888142E+01 -0.16244341307E+02  0.96567712497E+01  0.21229799156E+02  0.51100000000E-03 0.  1.
         12    1    3    3    0    0 -0.70704115229E+01 -0.64386827582E+01  0.74912397017E+00  0.95921082920E+01  0.00000000000E+00 0. -1.
</event>
<event>
 7    1  0.2312612E-008  0.4614232E+02  0.7816164E-02  0.1320468E+00
        -11   -1    0    0    0    0  0.00000000000E+00  0.00000000000E+00  0.45593999997E+02  0.45594000000E+02  0.51100000000E-03 0.  1.
         11   -1    0    0    0    0 -0.00000000000E+00 -0.00000000000E+00 -0.45593999997E+02  0.45594000000E+02  0.51100000000E-03 0. -1.
    9900012    2    1    2    0    0  0.29907775680E+02  0.32584406626E+02 -0.85378489616E+01  0.46142318008E+02  0.10000002249E+02 0.  0.
         12    1    1    2    0    0 -0.29907775680E+02 -0.32584406626E+02  0.85378489616E+01  0.45045681992E+02  0.00000000000E+00 0. -1.
         11    1    3    3    0    0  0.16635504191E+02  0.15514746325E+02 -0.51689843347E+01  0.23327360599E+02  0.51100000000E-03 0. -1.
        -11    1    3    3    0    0  0.10428445075E+02  0.10936516938E+02  0.31731318997E+00  0.15114911755E+02  0.51100000000E-03 0.  1.
        -12    1    3    3    0    0  0.28438264139E+01  0.61331433620E+01 -0.36861778169E+01  0.77000456537E+01  0.00000000000E+00 0.  1.
</event>
<event>
 7    1  0.2312612E-008  0.4614232E+02  0.7816164E-02  0.1320468E+00
        -11   -1    0    0    0    0  0.00000000000E+00  0.00000000000E+00  0.45593999997E+02  0.45594000000E+02  0.51100000000E-03 0.  1.
         11   -1    0    0    0    0 -0.00000000000E+00 -0.00000000000E+00 -0.45593999997E+02  0.45594000000E+02  0.51100000000E-03 0. -1.
    9900012    2    1    2    0    0 -0.11650388868E+02  0.21313993343E+02  0.37935413817E+02  0.46142317693E+02  0.99999993821E+01 0.  0.
         12    1    1    2    0    0  0.11650388868E+02 -0.21313993343E+02 -0.37935413817E+02  0.45045682307E+02  0.00000000000E+00 0. -1.
         11    1    3    3    0    0 -0.29096801427E+01  0.59882501819E+00  0.69821920002E+01  0.75878742296E+01  0.51100000000E-03 0. -1.
        -11    1    3    3    0    0 -0.86436458738E+01  0.15324332319E+02  0.23663223637E+02  0.29487216352E+02  0.51100000000E-03 0.  1.
         12    1    3    3    0    0 -0.97062851338E-01  0.53908360060E+01  0.72899981794E+01  0.90672271117E+01  0.00000000000E+00 0. -1.
</event>
<event>
 7    1  0.2312612E-008  0.4614232E+02  0.7816164E-02  0.1320468E+00
        -11   -1    0    0    0    0  0.00000000000E+00  0.00000000000E+00  0.45593999997E+02  0.45594000000E+02  0.51100000000E-03 0.  1.
         11   -1    0    0    0    0 -0.00000000000E+00 -0.00000000000E+00 -0.45593999997E+02  0.45594000000E+02  0.51100000000E-03 0. -1.
    9900012    2    1    2    0    0 -0.15035552573E+02 -0.37907817447E+02  0.19132250202E+02  0.46142318047E+02  0.10000002609E+02 0.  0.
         12    1    1    2    0    0  0.15035552573E+02  0.37907817447E+02 -0.19132250202E+02  0.45045681953E+02  0.00000000000E+00 0. -1.
         11    1    3    3    0    0 -0.73078948664E+01 -0.25140619456E+02  0.12230765742E+02  0.28897191990E+02  0.51100000000E-03 0.  1.
        -11    1    3    3    0    0 -0.24381445858E+01 -0.85980337193E+01  0.50280793288E+01  0.10254380277E+02  0.51100000000E-03 0. -1.
         12    1    3    3    0    0 -0.52895131209E+01 -0.41691642714E+01  0.18734051314E+01  0.69907457803E+01  0.00000000000E+00 0. -1.
</event>
<event>
 7    1  0.2312612E-008  0.4614232E+02  0.7816164E-02  0.1320468E+00
        -11   -1    0    0    0    0  0.00000000000E+00  0.00000000000E+00  0.45593999997E+02  0.45594000000E+02  0.51100000000E-03 0.  1.
         11   -1    0    0    0    0 -0.00000000000E+00 -0.00000000000E+00 -0.45593999997E+02  0.45594000000E+02  0.51100000000E-03 0. -1.
    9900012    2    1    2    0    0 -0.26654699314E+02 -0.24606332697E+02  0.26705222669E+02  0.46142317387E+02  0.99999965864E+01 0.  0.
         12    1    1    2    0    0  0.26654699314E+02  0.24606332697E+02 -0.26705222669E+02  0.45045682613E+02  0.00000000000E+00 0. -1.
         11    1    3    3    0    0 -0.36262995989E+01 -0.21856874659E+01  0.11411850257E+01  0.43851547297E+01  0.51100000000E-03 0. -1.
        -11    1    3    3    0    0 -0.43462808774E+01 -0.76109943457E+00  0.32861163796E+01  0.55016352965E+01  0.51100000000E-03 0.  1.
         12    1    3    3    0    0 -0.18682118838E+02 -0.21659545796E+02  0.22277921264E+02  0.36255527361E+02  0.00000000000E+00 0. -1.
</event>
<event>
 7    1  0.2312612E-008  0.4614232E+02  0.7816164E-02  0.1320468E+00
        -11   -1    0    0    0    0  0.00000000000E+00  0.00000000000E+00  0.45593999997E+02  0.45594000000E+02  0.51100000000E-03 0. -1.
         11   -1    0    0    0    0 -0.00000000000E+00 -0.00000000000E+00 -0.45593999997E+02  0.45594000000E+02  0.51100000000E-03 0.  1.
    9900012    2    1    2    0    0  0.39029452334E+02 -0.18103353886E+02 -0.13344807660E+02  0.46142318044E+02  0.10000002582E+02 0.  0.
         12    1    1    2    0    0 -0.39029452334E+02  0.18103353886E+02  0.13344807660E+02  0.45045681956E+02  0.00000000000E+00 0. -1.
         11    1    3    3    0    0  0.15357112591E+01  0.20412123819E+00  0.96377315333E+00  0.18245365174E+01  0.51100000000E-03 0. -1.
        -11    1    3    3    0    0  0.36736538452E+02 -0.17617842889E+02 -0.14554923928E+02  0.43264390165E+02  0.51100000000E-03 0.  1.
        -12    1    3    3    0    0  0.75720262235E+00 -0.68963223538E+00  0.24634311515E+00  0.10533913621E+01  0.00000000000E+00 0.  1.
</event>
<event>
 7    1  0.2312612E-008  0.4614232E+02  0.7816164E-02  0.1320468E+00
        -11   -1    0    0    0    0  0.00000000000E+00  0.00000000000E+00  0.45593999997E+02  0.45594000000E+02  0.51100000000E-03 0. -1.
         11   -1    0    0    0    0 -0.00000000000E+00 -0.00000000000E+00 -0.45593999997E+02  0.45594000000E+02  0.51100000000E-03 0.  1.
    9900012    2    1    2    0    0 -0.32262839163E+02  0.23313875998E+02 -0.21087576256E+02  0.46142317885E+02  0.10000001125E+02 0.  0.
         12    1    1    2    0    0  0.32262839163E+02 -0.23313875998E+02  0.21087576256E+02  0.45045682115E+02  0.00000000000E+00 0. -1.
         11    1    3    3    0    0 -0.14580298067E+02  0.13118090274E+02 -0.15049949369E+02  0.24721859971E+02  0.51100000000E-03 0. -1.
        -11    1    3    3    0    0 -0.95278818753E+01  0.61399246675E+01 -0.22466715427E+01  0.11555377157E+02  0.51100000000E-03 0.  1.
         12    1    3    3    0    0 -0.81546592207E+01  0.40558610563E+01 -0.37909553440E+01  0.98650807566E+01  0.00000000000E+00 0. -1.
</event>
<event>
 7    1  0.2312612E-008  0.4614232E+02  0.7816164E-02  0.1320468E+00
        -11   -1    0    0    0    0  0.00000000000E+00  0.00000000000E+00  0.45593999997E+02  0.45594000000E+02  0.51100000000E-03 0. -1.
         11   -1    0    0    0    0 -0.00000000000E+00 -0.00000000000E+00 -0.45593999997E+02  0.45594000000E+02  0.51100000000E-03 0.  1.
    9900012    2    1    2    0    0 -0.18456645766E+02 -0.28978473722E+02 -0.29132690504E+02  0.46142319095E+02  0.10000012164E+02 0.  0.
         12    1    1    2    0    0  0.18456645766E+02  0.28978473722E+02  0.29132690504E+02  0.45045680905E+02  0.00000000000E+00 0. -1.
         11    1    3    3    0    0 -0.86283800000E+00 -0.50275816600E+01 -0.61940385770E+01  0.80241623187E+01  0.51100000000E-03 0. -1.
        -11    1    3    3    0    0 -0.77152569904E+01 -0.83159917478E+01 -0.12505892829E+02  0.16884260863E+02  0.51100000000E-03 0.  1.
        -12    1    3    3    0    0 -0.98785507751E+01 -0.15634900315E+02 -0.10432759098E+02  0.21233895913E+02  0.00000000000E+00 0.  1.
</event>
<event>
 7    1  0.2312612E-008  0.4614231E+02  0.7816164E-02  0.1320468E+00
        -11   -1    0    0    0    0  0.00000000000E+00  0.00000000000E+00  0.45593999997E+02  0.45594000000E+02  0.51100000000E-03 0. -1.
         11   -1    0    0    0    0 -0.00000000000E+00 -0.00000000000E+00 -0.45593999997E+02  0.45594000000E+02  0.51100000000E-03 0.  1.
    9900012    2    1    2    0    0 -0.22526055861E+02 -0.38640446055E+02 -0.53485406479E+01  0.46142310405E+02  0.99999329242E+01 0.  0.
         12    1    1    2    0    0  0.22526055861E+02  0.38640446055E+02  0.53485406479E+01  0.45045689595E+02  0.00000000000E+00 0. -1.
         11    1    3    3    0    0 -0.40863033431E+00 -0.46412449996E+01  0.11851188831E+00  0.46607058720E+01  0.51100000000E-03 0. -1.
        -11    1    3    3    0    0 -0.22121006230E+01 -0.68477826234E+01 -0.27573998170E+01  0.77064109698E+01  0.51100000000E-03 0.  1.
        -12    1    3    3    0    0 -0.19905324903E+02 -0.27151418432E+02 -0.27096527192E+01  0.33775193563E+02  0.00000000000E+00 0.  1.
</event>
<event>
 7    1  0.2312612E-008  0.4614231E+02  0.7816164E-02  0.1320468E+00
        -11   -1    0    0    0    0  0.00000000000E+00  0.00000000000E+00  0.45593999997E+02  0.45594000000E+02  0.51100000000E-03 0.  1.
         11   -1    0    0    0    0 -0.00000000000E+00 -0.00000000000E+00 -0.45593999997E+02  0.45594000000E+02  0.51100000000E-03 0. -1.
    9900012    2    1    2    0    0  0.24379108482E+02 -0.21300177206E+02  0.31322126575E+02  0.46142311054E+02  0.99999388402E+01 0.  0.
         12    1    1    2    0    0 -0.24379108482E+02  0.21300177206E+02 -0.31322126575E+02  0.45045688946E+02  0.00000000000E+00 0. -1.
         11    1    3    3    0    0 -0.18624239104E+00 -0.16129304854E+01  0.37294201227E+00  0.16659282651E+01  0.51100000000E-03 0. -1.
        -11    1    3    3    0    0  0.90371676934E+01 -0.46826140858E+01  0.78299237292E+01  0.12841533416E+02  0.51100000000E-03 0.  1.
         12    1    3    3    0    0  0.15528183180E+02 -0.15004632635E+02  0.23119260834E+02  0.31634849373E+02  0.00000000000E+00 0. -1.
</event>
<event>
 7    1  0.2312612E-008  0.4614232E+02  0.7816164E-02  0.1320468E+00
        -11   -1    0    0    0    0  0.00000000000E+00  0.00000000000E+00  0.45593999997E+02  0.45594000000E+02  0.51100000000E-03 0. -1.
         11   -1    0    0    0    0 -0.00000000000E+00 -0.00000000000E+00 -0.45593999997E+02  0.45594000000E+02  0.51100000000E-03 0.  1.
    9900012    2    1    2    0    0  0.30167111837E+02  0.29162338757E+02 -0.16389530200E+02  0.46142319425E+02  0.10000015168E+02 0.  0.
         12    1    1    2    0    0 -0.30167111837E+02 -0.29162338757E+02  0.16389530200E+02  0.45045680575E+02  0.00000000000E+00 0. -1.
         11    1    3    3    0    0  0.82157703546E+00  0.23680610301E+01  0.98941594669E+00  0.26947441519E+01  0.51100000000E-03 0. -1.
        -11    1    3    3    0    0  0.15416597033E+02  0.12342873543E+02 -0.85517526665E+01  0.21520930865E+02  0.51100000000E-03 0.  1.
        -12    1    3    3    0    0  0.13928937768E+02  0.14451404184E+02 -0.88271934801E+01  0.21926644407E+02  0.00000000000E+00 0.  1.
</event>
<event>
 7    1  0.2312612E-008  0.4614232E+02  0.7816164E-02  0.1320468E+00
        -11   -1    0    0    0    0  0.00000000000E+00  0.00000000000E+00  0.45593999997E+02  0.45594000000E+02  0.51100000000E-03 0.  1.
         11   -1    0    0    0    0 -0.00000000000E+00 -0.00000000000E+00 -0.45593999997E+02  0.45594000000E+02  0.51100000000E-03 0. -1.
    9900012    2    1    2    0    0  0.29255333352E+02 -0.92049831494E+01  0.32992535820E+02  0.46142315810E+02  0.99999822067E+01 0.  0.
         12    1    1    2    0    0 -0.29255333352E+02  0.92049831494E+01 -0.32992535820E+02  0.45045684190E+02  0.00000000000E+00 0. -1.
         11    1    3    3    0    0  0.51630119780E+01 -0.34898817852E+01  0.25471605684E+01  0.67323097657E+01  0.51100000000E-03 0. -1.
        -11    1    3    3    0    0  0.15291491242E+02 -0.18248477057E+01  0.18993978310E+02  0.24452627381E+02  0.51100000000E-03 0.  1.
         12    1    3    3    0    0  0.88008301315E+01 -0.38902536584E+01  0.11451396942E+02  0.14957378663E+02  0.00000000000E+00 0. -1.
</event>
<event>
 7    1  0.2312612E-008  0.4614232E+02  0.7816164E-02  0.1320468E+00
        -11   -1    0    0    0    0  0.00000000000E+00  0.00000000000E+00  0.45593999997E+02  0.45594000000E+02  0.51100000000E-03 0.  1.
         11   -1    0    0    0    0 -0.00000000000E+00 -0.00000000000E+00 -0.45593999997E+02  0.45594000000E+02  0.51100000000E-03 0. -1.
    9900012    2    1    2    0    0 -0.13389585601E+02  0.41709826450E+02  0.10493947244E+02  0.46142317035E+02  0.99999933751E+01 0.  0.
         12    1    1    2    0    0  0.13389585601E+02 -0.41709826450E+02 -0.10493947244E+02  0.45045682965E+02  0.00000000000E+00 0. -1.
         11    1    3    3    0    0  0.17664813517E+00  0.43451315659E+00  0.98092222804E+00  0.10872970732E+01  0.51100000000E-03 0. -1.
        -11    1    3    3    0    0 -0.29490071295E+01  0.12989205638E+02  0.60988982329E+01  0.14649664367E+02  0.51100000000E-03 0.  1.
        -12    1    3    3    0    0 -0.10617226607E+02  0.28286107655E+02  0.34141267829E+01  0.30405355594E+02  0.00000000000E+00 0.  1.
</event>
<event>
 7    1  0.2312612E-008  0.4614232E+02  0.7816164E-02  0.1320468E+00
        -11   -1    0    0    0    0  0.00000000000E+00  0.00000000000E+00  0.45593999997E+02  0.45594000000E+02  0.51100000000E-03 0.  1.
         11   -1    0    0    0    0 -0.00000000000E+00 -0.00000000000E+00 -0.45593999997E+02  0.45594000000E+02  0.51100000000E-03 0. -1.
    9900012    2    1    2    0    0 -0.63793684651E+01 -0.20984752013E+02  0.39345360029E+02  0.46142317467E+02  0.99999973139E+01 0.  0.
         12    1    1    2    0    0  0.63793684651E+01  0.20984752013E+02 -0.39345360029E+02  0.45045682533E+02  0.00000000000E+00 0. -1.
         11    1    3    3    0    0  0.42095051341E+00 -0.36899800675E+01  0.52642150755E+01  0.64424461856E+01  0.51100000000E-03 0. -1.
        -11    1    3    3    0    0 -0.41252905253E+01 -0.16748714416E+02  0.26284541933E+02  0.31439061713E+02  0.51100000000E-03 0.  1.
         12    1    3    3    0    0 -0.26750284532E+01 -0.54605752964E+00  0.77966030205E+01  0.82608095675E+01  0.00000000000E+00 0. -1.
</event>
<event>
 7    1  0.2312612E-008  0.4614232E+02  0.7816164E-02  0.1320468E+00
        -11   -1    0    0    0    0  0.00000000000E+00  0.00000000000E+00  0.45593999997E+02  0.45594000000E+02  0.51100000000E-03 0.  1.
         11   -1    0    0    0    0 -0.00000000000E+00 -0.00000000000E+00 -0.45593999997E+02  0.45594000000E+02  0.51100000000E-03 0. -1.
    9900012    2    1    2    0    0  0.35407879373E+02 -0.23384308701E+02 -0.15118522136E+02  0.46142317336E+02  0.99999961200E+01 0.  0.
         12    1    1    2    0    0 -0.35407879373E+02  0.23384308701E+02  0.15118522136E+02  0.45045682664E+02  0.00000000000E+00 0. -1.
         11    1    3    3    0    0  0.38003686923E+01 -0.77795370911E+00 -0.16476154374E+01  0.42145760240E+01  0.51100000000E-03 0. -1.
        -11    1    3    3    0    0  0.27463533133E+02 -0.17803061343E+02 -0.83565858485E+01  0.33779093721E+02  0.51100000000E-03 0.  1.
        -12    1    3    3    0    0  0.41439775481E+01 -0.48032936487E+01 -0.51143208504E+01  0.81486475906E+01  0.00000000000E+00 0.  1.
</event>
<event>
 7    1  0.2312612E-008  0.4614232E+02  0.7816164E-02  0.1320468E+00
        -11   -1    0    0    0    0  0.00000000000E+00  0.00000000000E+00  0.45593999997E+02  0.45594000000E+02  0.51100000000E-03 0.  1.
         11   -1    0    0    0    0 -0.00000000000E+00 -0.00000000000E+00 -0.45593999997E+02  0.45594000000E+02  0.51100000000E-03 0. -1.
    9900012    2    1    2    0    0 -0.32900116159E+02  0.35776534640E+01  0.30559717290E+02  0.46142316873E+02  0.99999918970E+01 0.  0.
         12    1    1    2    0    0  0.32900116159E+02 -0.35776534640E+01 -0.30559717290E+02  0.45045683127E+02  0.00000000000E+00 0. -1.
         11    1    3    3    0    0 -0.19130456410E+00 -0.19742033624E+00  0.17606022994E+01  0.17819351681E+01  0.51100000000E-03 0. -1.
        -11    1    3    3    0    0 -0.32457698253E+02  0.46051972411E+01  0.28511389321E+02  0.43446626322E+02  0.51100000000E-03 0.  1.
        -12    1    3    3    0    0 -0.25111334205E+00 -0.83012344084E+00  0.28772566930E+00  0.91375538213E+00  0.00000000000E+00 0.  1.
</event>
<event>
 7    1  0.2312612E-008  0.4614232E+02  0.7816164E-02  0.1320468E+00
        -11   -1    0    0    0    0  0.00000000000E+00  0.00000000000E+00  0.45593999997E+02  0.45594000000E+02  0.51100000000E-03 0. -1.
         11   -1    0    0    0    0 -0.00000000000E+00 -0.00000000000E+00 -0.45593999997E+02  0.45594000000E+02  0.51100000000E-03 0.  1.
    9900012    2    1    2    0    0  0.33547650652E+02  0.10809348772E+02 -0.28050430053E+02  0.46142317507E+02  0.99999976784E+01 0.  0.
         12    1    1    2    0    0 -0.33547650652E+02 -0.10809348772E+02  0.28050430053E+02  0.45045682493E+02  0.00000000000E+00 0. -1.
         11    1    3    3    0    0  0.83471135871E+01  0.11731293158E+01 -0.38516374095E+01  0.92674510316E+01  0.51100000000E-03 0. -1.
        -11    1    3    3    0    0  0.19005480550E+02  0.50831313358E+01 -0.14204312264E+02  0.24265386918E+02  0.51100000000E-03 0.  1.
        -12    1    3    3    0    0  0.61950565157E+01  0.45530881202E+01 -0.99944803788E+01  0.12609479557E+02  0.00000000000E+00 0.  1.
</event>
<event>
 7    1  0.2312612E-008  0.4614232E+02  0.7816164E-02  0.1320468E+00
        -11   -1    0    0    0    0  0.00000000000E+00  0.00000000000E+00  0.45593999997E+02  0.45594000000E+02  0.51100000000E-03 0. -1.
         11   -1    0    0    0    0 -0.00000000000E+00 -0.00000000000E+00 -0.45593999997E+02  0.45594000000E+02  0.51100000000E-03 0.  1.
    9900012    2    1    2    0    0 -0.29261031419E+02  0.10810053831E+02 -0.32496897334E+02  0.46142316967E+02  0.99999927605E+01 0.  0.
         12    1    1    2    0    0  0.29261031419E+02 -0.10810053831E+02  0.32496897334E+02  0.45045683033E+02  0.00000000000E+00 0. -1.
         11    1    3    3    0    0 -0.23819041153E+01  0.16590624914E+01  0.27437066204E-02  0.29027509976E+01  0.51100000000E-03 0. -1.
        -11    1    3    3    0    0 -0.10976586160E+02  0.37088848308E+01 -0.11287963635E+02  0.16175889271E+02  0.51100000000E-03 0.  1.
        -12    1    3    3    0    0 -0.15902541144E+02  0.54421065086E+01 -0.21211677406E+02  0.27063676699E+02  0.00000000000E+00 0.  1.
</event>
<event>
 7    1  0.2312612E-008  0.4614232E+02  0.7816164E-02  0.1320468E+00
        -11   -1    0    0    0    0  0.00000000000E+00  0.00000000000E+00  0.45593999997E+02  0.45594000000E+02  0.51100000000E-03 0. -1.
         11   -1    0    0    0    0 -0.00000000000E+00 -0.00000000000E+00 -0.45593999997E+02  0.45594000000E+02  0.51100000000E-03 0.  1.
    9900012    2    1    2    0    0 -0.50352349971E+01 -0.42962688258E+02  0.12568484840E+02  0.46142323348E+02  0.10000050950E+02 0.  0.
         12    1    1    2    0    0  0.50352349971E+01  0.42962688258E+02 -0.12568484840E+02  0.45045676652E+02  0.00000000000E+00 0. -1.
         11    1    3    3    0    0 -0.17382563699E+01 -0.15259746695E+02  0.12832401843E+01  0.15411946990E+02  0.51100000000E-03 0.  1.
        -11    1    3    3    0    0 -0.17734075846E+01 -0.15495329369E+02  0.95973170176E+01  0.18312801558E+02  0.51100000000E-03 0. -1.
         12    1    3    3    0    0 -0.15235710427E+01 -0.12207612194E+02  0.16879276385E+01  0.12417574800E+02  0.00000000000E+00 0. -1.
</event>
<event>
 7    1  0.2312612E-008  0.4614232E+02  0.7816164E-02  0.1320468E+00
        -11   -1    0    0    0    0  0.00000000000E+00  0.00000000000E+00  0.45593999997E+02  0.45594000000E+02  0.51100000000E-03 0.  1.
         11   -1    0    0    0    0 -0.00000000000E+00 -0.00000000000E+00 -0.45593999997E+02  0.45594000000E+02  0.51100000000E-03 0. -1.
    9900012    2    1    2    0    0 -0.51062043725E+01  0.22881199289E+02  0.38464150864E+02  0.46142317569E+02  0.99999982472E+01 0.  0.
         12    1    1    2    0    0  0.51062043725E+01 -0.22881199289E+02 -0.38464150864E+02  0.45045682431E+02  0.00000000000E+00 0. -1.
         11    1    3    3    0    0 -0.45660962203E+01  0.48915391478E+01  0.83350351592E+01  0.10688741801E+02  0.51100000000E-03 0. -1.
        -11    1    3    3    0    0 -0.65013935833E+00  0.72316173044E+01  0.16957367507E+02  0.18446443642E+02  0.51100000000E-03 0.  1.
        -12    1    3    3    0    0  0.11003120605E+00  0.10758042837E+02  0.13171748198E+02  0.17007132126E+02  0.00000000000E+00 0.  1.
</event>
<event>
 7    1  0.2312612E-008  0.4614232E+02  0.7816164E-02  0.1320468E+00
        -11   -1    0    0    0    0  0.00000000000E+00  0.00000000000E+00  0.45593999997E+02  0.45594000000E+02  0.51100000000E-03 0.  1.
         11   -1    0    0    0    0 -0.00000000000E+00 -0.00000000000E+00 -0.45593999997E+02  0.45594000000E+02  0.51100000000E-03 0. -1.
    9900012    2    1    2    0    0  0.20599888835E+02  0.28025114144E+02  0.28624307841E+02  0.46142318274E+02  0.10000004678E+02 0.  0.
         12    1    1    2    0    0 -0.20599888835E+02 -0.28025114144E+02 -0.28624307841E+02  0.45045681726E+02  0.00000000000E+00 0. -1.
         11    1    3    3    0    0  0.28499411157E+01  0.57580602421E+01  0.20839588923E+01  0.67542806457E+01  0.51100000000E-03 0. -1.
        -11    1    3    3    0    0  0.16420391687E+02  0.18066097781E+02  0.24296880723E+02  0.34443454608E+02  0.51100000000E-03 0.  1.
        -12    1    3    3    0    0  0.13295560319E+01  0.42009561204E+01  0.22434682258E+01  0.49445830206E+01  0.00000000000E+00 0.  1.
</event>
<event>
 7    1  0.2312612E-008  0.4614232E+02  0.7816164E-02  0.1320468E+00
        -11   -1    0    0    0    0  0.00000000000E+00  0.00000000000E+00  0.45593999997E+02  0.45594000000E+02  0.51100000000E-03 0.  1.
         11   -1    0    0    0    0 -0.00000000000E+00 -0.00000000000E+00 -0.45593999997E+02  0.45594000000E+02  0.51100000000E-03 0. -1.
    9900012    2    1    2    0    0 -0.26703069865E+02  0.10598515897E+02  0.34694827130E+02  0.46142317532E+02  0.99999979090E+01 0.  0.
         12    1    1    2    0    0  0.26703069865E+02 -0.10598515897E+02 -0.34694827130E+02  0.45045682468E+02  0.00000000000E+00 0. -1.
         11    1    3    3    0    0 -0.35685616995E+01  0.26180626502E+01  0.18830530325E+01  0.48098621215E+01  0.51100000000E-03 0. -1.
        -11    1    3    3    0    0 -0.68950113094E+00 -0.51813746626E+00  0.28216827953E+00  0.90746759866E+00  0.51100000000E-03 0.  1.
        -12    1    3    3    0    0 -0.22445007035E+02  0.84985907131E+01  0.32529605818E+02  0.40424987812E+02  0.00000000000E+00 0.  1.
</event>
<event>
 7    1  0.2312612E-008  0.4614232E+02  0.7816164E-02  0.1320468E+00
        -11   -1    0    0    0    0  0.00000000000E+00  0.00000000000E+00  0.45593999997E+02  0.45594000000E+02  0.51100000000E-03 0.  1.
         11   -1    0    0    0    0 -0.00000000000E+00 -0.00000000000E+00 -0.45593999997E+02  0.45594000000E+02  0.51100000000E-03 0. -1.
    9900012    2    1    2    0    0  0.18229227759E+02 -0.19783688406E+02  0.36130519750E+02  0.46142317310E+02  0.99999958862E+01 0.  0.
         12    1    1    2    0    0 -0.18229227759E+02  0.19783688406E+02 -0.36130519750E+02  0.45045682690E+02  0.00000000000E+00 0. -1.
         11    1    3    3    0    0  0.99172895748E+01 -0.71875861756E+01  0.18636341001E+02  0.22300834821E+02  0.51100000000E-03 0.  1.
        -11    1    3    3    0    0  0.36191094324E+01 -0.11028225937E+01  0.40872165374E+01  0.55695161407E+01  0.51100000000E-03 0. -1.
         12    1    3    3    0    0  0.46928287515E+01 -0.11493279637E+02  0.13406962211E+02  0.18271966348E+02  0.00000000000E+00 0. -1.
</event>
<event>
 7    1  0.2312612E-008  0.4614232E+02  0.7816164E-02  0.1320468E+00
        -11   -1    0    0    0    0  0.00000000000E+00  0.00000000000E+00  0.45593999997E+02  0.45594000000E+02  0.51100000000E-03 0. -1.
         11   -1    0    0    0    0 -0.00000000000E+00 -0.00000000000E+00 -0.45593999997E+02  0.45594000000E+02  0.51100000000E-03 0.  1.
    9900012    2    1    2    0    0 -0.12563612235E+02 -0.42346454009E+02 -0.88344163408E+01  0.46142318391E+02  0.10000005748E+02 0.  0.
         12    1    1    2    0    0  0.12563612235E+02  0.42346454009E+02  0.88344163408E+01  0.45045681609E+02  0.00000000000E+00 0. -1.
         11    1    3    3    0    0 -0.95755829289E+01 -0.17213386874E+02 -0.38800409269E+01  0.20076035315E+02  0.51100000000E-03 0.  1.
        -11    1    3    3    0    0 -0.28489454654E+00 -0.61729502607E+01  0.36240429083E+00  0.61901386862E+01  0.51100000000E-03 0. -1.
         12    1    3    3    0    0 -0.27031347599E+01 -0.18960116874E+02 -0.53167797047E+01  0.19876144390E+02  0.00000000000E+00 0. -1.
</event>
<event>
 7    1  0.2312612E-008  0.4614232E+02  0.7816164E-02  0.1320468E+00
        -11   -1    0    0    0    0  0.00000000000E+00  0.00000000000E+00  0.45593999997E+02  0.45594000000E+02  0.51100000000E-03 0.  1.
         11   -1    0    0    0    0 -0.00000000000E+00 -0.00000000000E+00 -0.45593999997E+02  0.45594000000E+02  0.51100000000E-03 0. -1.
    9900012    2    1    2    0    0  0.38135188944E+02  0.15154670133E+02  0.18578395669E+02  0.46142318206E+02  0.10000004058E+02 0.  0.
         12    1    1    2    0    0 -0.38135188944E+02 -0.15154670133E+02 -0.18578395669E+02  0.45045681794E+02  0.00000000000E+00 0. -1.
         11    1    3    3    0    0  0.15316231942E+02  0.58905985190E+01  0.79426912773E+01  0.18231084904E+02  0.51100000000E-03 0. -1.
        -11    1    3    3    0    0  0.22085827236E+02  0.10431181240E+02  0.10142559705E+02  0.26447397309E+02  0.51100000000E-03 0.  1.
         12    1    3    3    0    0  0.73312976629E+00 -0.11671096259E+01  0.49314468642E+00  0.14638359931E+01  0.00000000000E+00 0. -1.
</event>
<event>
 7    1  0.2312612E-008  0.4614232E+02  0.7816164E-02  0.1320468E+00
        -11   -1    0    0    0    0  0.00000000000E+00  0.00000000000E+00  0.45593999997E+02  0.45594000000E+02  0.51100000000E-03 0.  1.
         11   -1    0    0    0    0 -0.00000000000E+00 -0.00000000000E+00 -0.45593999997E+02  0.45594000000E+02  0.51100000000E-03 0. -1.
    9900012    2    1    2    0    0 -0.13119912754E+02 -0.38322068028E+02  0.19707874948E+02  0.46142319368E+02  0.10000014654E+02 0.  0.
         12    1    1    2    0    0  0.13119912754E+02  0.38322068028E+02 -0.19707874948E+02  0.45045680632E+02  0.00000000000E+00 0. -1.
         11    1    3    3    0    0 -0.26070054497E+01 -0.10951636097E+02  0.30581862634E+01  0.11665646750E+02  0.51100000000E-03 0. -1.
        -11    1    3    3    0    0 -0.72758209250E+01 -0.25235056522E+02  0.13829362405E+02  0.29681592151E+02  0.51100000000E-03 0.  1.
         12    1    3    3    0    0 -0.32370863792E+01 -0.21353754088E+01  0.28203262798E+01  0.47950804672E+01  0.00000000000E+00 0. -1.
</event>
<event>
 7    1  0.2312612E-008  0.4614232E+02  0.7816164E-02  0.1320468E+00
        -11   -1    0    0    0    0  0.00000000000E+00  0.00000000000E+00  0.45593999997E+02  0.45594000000E+02  0.51100000000E-03 0.  1.
         11   -1    0    0    0    0 -0.00000000000E+00 -0.00000000000E+00 -0.45593999997E+02  0.45594000000E+02  0.51100000000E-03 0. -1.
    9900012    2    1    2    0    0 -0.14202641077E+01 -0.39933065625E+02  0.20795351310E+02  0.46142317449E+02  0.99999971582E+01 0.  0.
         12    1    1    2    0    0  0.14202641077E+01  0.39933065625E+02 -0.20795351310E+02  0.45045682551E+02  0.00000000000E+00 0. -1.
         11    1    3    3    0    0 -0.13002897594E+01 -0.14990445261E+02  0.66089216841E+01  0.16434173197E+02  0.51100000000E-03 0. -1.
        -11    1    3    3    0    0 -0.33245099075E+01 -0.15930747137E+02  0.68635551276E+01  0.17662091035E+02  0.51100000000E-03 0.  1.
         12    1    3    3    0    0  0.32045355591E+01 -0.90118732268E+01  0.73228744982E+01  0.12046053218E+02  0.00000000000E+00 0. -1.
</event>
<event>
 7    1  0.2312612E-008  0.4614232E+02  0.7816164E-02  0.1320468E+00
        -11   -1    0    0    0    0  0.00000000000E+00  0.00000000000E+00  0.45593999997E+02  0.45594000000E+02  0.51100000000E-03 0.  1.
         11   -1    0    0    0    0 -0.00000000000E+00 -0.00000000000E+00 -0.45593999997E+02  0.45594000000E+02  0.51100000000E-03 0. -1.
    9900012    2    1    2    0    0  0.65269977585E+01  0.96126578146E+01  0.43521360187E+02  0.46142315606E+02  0.99999803502E+01 0.  0.
         12    1    1    2    0    0 -0.65269977585E+01 -0.96126578146E+01 -0.43521360187E+02  0.45045684394E+02  0.00000000000E+00 0. -1.
         11    1    3    3    0    0  0.28423570862E+01  0.21833081174E+01  0.78518710945E+01  0.86312054828E+01  0.51100000000E-03 0. -1.
        -11    1    3    3    0    0  0.49617742571E+01  0.37264104647E+01  0.29903204023E+02  0.30540251306E+02  0.51100000000E-03 0.  1.
        -12    1    3    3    0    0 -0.12771335848E+01  0.37029392325E+01  0.57662850690E+01  0.69708588172E+01  0.00000000000E+00 0.  1.
</event>
<event>
 7    1  0.2393241E-008  0.4614232E+02  0.7816164E-02  0.1320468E+00
        -11   -1    0    0    0    0  0.00000000000E+00  0.00000000000E+00  0.45593999997E+02  0.45594000000E+02  0.51100000000E-03 0. -1.
         11   -1    0    0    0    0 -0.00000000000E+00 -0.00000000000E+00 -0.45593999997E+02  0.45594000000E+02  0.51100000000E-03 0.  1.
    9900012    2    1    2    0    0 -0.39777595343E+02 -0.54121348311E+01 -0.20434410265E+02  0.46142318547E+02  0.10000007169E+02 0.  0.
         12    1    1    2    0    0  0.39777595343E+02  0.54121348311E+01  0.20434410265E+02  0.45045681453E+02  0.00000000000E+00 0. -1.
         11    1    3    3    0    0  0.11521877052E-01  0.59524304592E+00  0.82428365916E-01  0.60103388756E+00  0.51100000000E-03 0. -1.
        -11    1    3    3    0    0 -0.34286233678E+01 -0.18366132387E+01 -0.80634541265E+00  0.39722537144E+01  0.51100000000E-03 0.  1.
        -12    1    3    3    0    0 -0.36360493852E+02 -0.41707646384E+01 -0.19710493218E+02  0.41569030945E+02  0.00000000000E+00 0.  1.
</event>
<event>
 7    1  0.2312612E-008  0.4614232E+02  0.7816164E-02  0.1320468E+00
        -11   -1    0    0    0    0  0.00000000000E+00  0.00000000000E+00  0.45593999997E+02  0.45594000000E+02  0.51100000000E-03 0. -1.
         11   -1    0    0    0    0 -0.00000000000E+00 -0.00000000000E+00 -0.45593999997E+02  0.45594000000E+02  0.51100000000E-03 0.  1.
    9900012    2    1    2    0    0  0.39014536754E+02 -0.13534696009E+02 -0.17994207103E+02  0.46142316928E+02  0.99999924016E+01 0.  0.
         12    1    1    2    0    0 -0.39014536754E+02  0.13534696009E+02  0.17994207103E+02  0.45045683072E+02  0.00000000000E+00 0. -1.
         11    1    3    3    0    0  0.17123990588E+01 -0.28299706800E+01 -0.10596229527E+00  0.33094218310E+01  0.51100000000E-03 0. -1.
        -11    1    3    3    0    0  0.22943820257E+02 -0.52198296185E+01 -0.10175392211E+02  0.25635992592E+02  0.51100000000E-03 0.  1.
         12    1    3    3    0    0  0.14358317438E+02 -0.54848957109E+01 -0.77128525966E+01  0.17196902505E+02  0.00000000000E+00 0. -1.
</event>
<event>
 7    1  0.2312612E-008  0.4614232E+02  0.7816164E-02  0.1320468E+00
        -11   -1    0    0    0    0  0.00000000000E+00  0.00000000000E+00  0.45593999997E+02  0.45594000000E+02  0.51100000000E-03 0.  1.
         11   -1    0    0    0    0 -0.00000000000E+00 -0.00000000000E+00 -0.45593999997E+02  0.45594000000E+02  0.51100000000E-03 0. -1.
    9900012    2    1    2    0    0  0.42909631626E+02  0.12569116979E+02  0.54675434639E+01  0.46142320746E+02  0.10000027221E+02 0.  0.
         12    1    1    2    0    0 -0.42909631626E+02 -0.12569116979E+02 -0.54675434639E+01  0.45045679254E+02  0.00000000000E+00 0. -1.
         11    1    3    3    0    0  0.14417851046E-01  0.22492120168E+00 -0.12117237182E+00  0.25589143441E+00  0.51100000000E-03 0. -1.
        -11    1    3    3    0    0  0.14275985923E+02  0.86397982893E+01  0.20715411961E+01  0.16814909210E+02  0.51100000000E-03 0.  1.
         12    1    3    3    0    0  0.28619227852E+02  0.37043974882E+01  0.35171746396E+01  0.29071520102E+02  0.00000000000E+00 0. -1.
</event>
<event>
 7    1  0.2312612E-008  0.4614232E+02  0.7816164E-02  0.1320468E+00
        -11   -1    0    0    0    0  0.00000000000E+00  0.00000000000E+00  0.45593999997E+02  0.45594000000E+02  0.51100000000E-03 0. -1.
         11   -1    0    0    0    0 -0.00000000000E+00 -0.00000000000E+00 -0.45593999997E+02  0.45594000000E+02  0.51100000000E-03 0.  1.
    9900012    2    1    2    0    0  0.27423486485E+02  0.14339270692E+02  0.32733030381E+02  0.46142316823E+02  0.99999914498E+01 0.  0.
         12    1    1    2    0    0 -0.27423486485E+02 -0.14339270692E+02 -0.32733030381E+02  0.45045683177E+02  0.00000000000E+00 0. -1.
         11    1    3    3    0    0 -0.70322217047E-01  0.56414972568E+00  0.15386999653E+01  0.16403682427E+01  0.51100000000E-03 0. -1.
        -11    1    3    3    0    0  0.76258989647E+01  0.71964486217E+01  0.75207909658E+01  0.12903701205E+02  0.51100000000E-03 0.  1.
         12    1    3    3    0    0  0.19867909737E+02  0.65786723442E+01  0.23673539449E+02  0.31598247375E+02  0.00000000000E+00 0. -1.
</event>
<event>
 7    1  0.2312612E-008  0.4614233E+02  0.7816164E-02  0.1320468E+00
        -11   -1    0    0    0    0  0.00000000000E+00  0.00000000000E+00  0.45593999997E+02  0.45594000000E+02  0.51100000000E-03 0.  1.
         11   -1    0    0    0    0 -0.00000000000E+00 -0.00000000000E+00 -0.45593999997E+02  0.45594000000E+02  0.51100000000E-03 0. -1.
    9900012    2    1    2    0    0  0.79658887643E+01 -0.27758923731E+01  0.44248749159E+02  0.46142325797E+02  0.10000073278E+02 0.  0.
         12    1    1    2    0    0 -0.79658887643E+01  0.27758923731E+01 -0.44248749159E+02  0.45045674203E+02  0.00000000000E+00 0. -1.
         11    1    3    3    0    0 -0.15356772633E+01  0.12817624571E+00  0.13518889713E+01  0.20499604530E+01  0.51100000000E-03 0. -1.
        -11    1    3    3    0    0  0.16444002771E+01 -0.10285061984E+01  0.54698982841E+01  0.58035906792E+01  0.51100000000E-03 0.  1.
        -12    1    3    3    0    0  0.78571657505E+01 -0.18755624204E+01  0.37426961903E+02  0.38288774665E+02  0.00000000000E+00 0.  1.
</event>
<event>
 7    1  0.2312612E-008  0.4614232E+02  0.7816164E-02  0.1320468E+00
        -11   -1    0    0    0    0  0.00000000000E+00  0.00000000000E+00  0.45593999997E+02  0.45594000000E+02  0.51100000000E-03 0.  1.
         11   -1    0    0    0    0 -0.00000000000E+00 -0.00000000000E+00 -0.45593999997E+02  0.45594000000E+02  0.51100000000E-03 0. -1.
    9900012    2    1    2    0    0  0.25686411882E+02 -0.11870456770E+02  0.35048729997E+02  0.46142323474E+02  0.10000052090E+02 0.  0.
         12    1    1    2    0    0 -0.25686411882E+02  0.11870456770E+02 -0.35048729997E+02  0.45045676526E+02  0.00000000000E+00 0. -1.
         11    1    3    3    0    0  0.34780923938E+00  0.12703644600E+01  0.22267620441E+01  0.25871348226E+01  0.51100000000E-03 0. -1.
        -11    1    3    3    0    0  0.86149021357E+01 -0.56814093907E+01  0.11899094458E+02  0.15750663498E+02  0.51100000000E-03 0.  1.
        -12    1    3    3    0    0  0.16723700507E+02 -0.74594118396E+01  0.20922873496E+02  0.27804525152E+02  0.00000000000E+00 0.  1.
</event>
<event>
 7    1  0.2312612E-008  0.4614232E+02  0.7816164E-02  0.1320468E+00
        -11   -1    0    0    0    0  0.00000000000E+00  0.00000000000E+00  0.45593999997E+02  0.45594000000E+02  0.51100000000E-03 0.  1.
         11   -1    0    0    0    0 -0.00000000000E+00 -0.00000000000E+00 -0.45593999997E+02  0.45594000000E+02  0.51100000000E-03 0. -1.
    9900012    2    1    2    0    0  0.39603842528E+02  0.21066400063E+02  0.41055928532E+01  0.46142318217E+02  0.10000004158E+02 0.  0.
         12    1    1    2    0    0 -0.39603842528E+02 -0.21066400063E+02 -0.41055928532E+01  0.45045681783E+02  0.00000000000E+00 0. -1.
         11    1    3    3    0    0  0.10955919992E+02  0.45819326536E+01  0.13069747305E+01  0.11947153340E+02  0.51100000000E-03 0. -1.
        -11    1    3    3    0    0  0.28757036721E+02  0.16670207050E+02  0.35359363217E+01  0.33427022152E+02  0.51100000000E-03 0.  1.
         12    1    3    3    0    0 -0.10911418495E+00 -0.18573964030E+00 -0.73731819893E+00  0.76814272490E+00  0.00000000000E+00 0. -1.
</event>
<event>
 7    1  0.2312612E-008  0.4614232E+02  0.7816164E-02  0.1320468E+00
        -11   -1    0    0    0    0  0.00000000000E+00  0.00000000000E+00  0.45593999997E+02  0.45594000000E+02  0.51100000000E-03 0.  1.
         11   -1    0    0    0    0 -0.00000000000E+00 -0.00000000000E+00 -0.45593999997E+02  0.45594000000E+02  0.51100000000E-03 0. -1.
    9900012    2    1    2    0    0  0.10768510803E+02 -0.43235368440E+02  0.66223515656E+01  0.46142318194E+02  0.10000003951E+02 0.  0.
         12    1    1    2    0    0 -0.10768510803E+02  0.43235368440E+02 -0.66223515656E+01  0.45045681806E+02  0.00000000000E+00 0. -1.
         11    1    3    3    0    0  0.15772167521E+01 -0.17162558171E+02  0.48849048845E+01  0.17913774356E+02  0.51100000000E-03 0.  1.
        -11    1    3    3    0    0  0.43799168551E+00 -0.57312847224E+01 -0.12519302103E+01  0.58827536748E+01  0.51100000000E-03 0. -1.
        -12    1    3    3    0    0  0.87533023656E+01 -0.20341525546E+02  0.29893768914E+01  0.22345790164E+02  0.00000000000E+00 0.  1.
</event>
<event>
 7    1  0.2312612E-008  0.4614232E+02  0.7816164E-02  0.1320468E+00
        -11   -1    0    0    0    0  0.00000000000E+00  0.00000000000E+00  0.45593999997E+02  0.45594000000E+02  0.51100000000E-03 0.  1.
         11   -1    0    0    0    0 -0.00000000000E+00 -0.00000000000E+00 -0.45593999997E+02  0.45594000000E+02  0.51100000000E-03 0. -1.
    9900012    2    1    2    0    0 -0.89762314548E+01 -0.28723902637E+02  0.33518325939E+02  0.46142317770E+02  0.10000000082E+02 0.  0.
         12    1    1    2    0    0  0.89762314548E+01  0.28723902637E+02 -0.33518325939E+02  0.45045682230E+02  0.00000000000E+00 0. -1.
         11    1    3    3    0    0 -0.21906839952E+01 -0.49177515803E+01  0.10568401878E+02  0.11860627955E+02  0.51100000000E-03 0. -1.
        -11    1    3    3    0    0 -0.57392150443E+01 -0.20293967876E+02  0.16172613340E+02  0.26577004045E+02  0.51100000000E-03 0.  1.
        -12    1    3    3    0    0 -0.10463324153E+01 -0.35121831805E+01  0.67773107211E+01  0.77046857708E+01  0.00000000000E+00 0.  1.
</event>
<event>
 7    1  0.2312612E-008  0.4614232E+02  0.7816164E-02  0.1320468E+00
        -11   -1    0    0    0    0  0.00000000000E+00  0.00000000000E+00  0.45593999997E+02  0.45594000000E+02  0.51100000000E-03 0.  1.
         11   -1    0    0    0    0 -0.00000000000E+00 -0.00000000000E+00 -0.45593999997E+02  0.45594000000E+02  0.51100000000E-03 0. -1.
    9900012    2    1    2    0    0 -0.42417132169E+02  0.23042760764E+01  0.14986350882E+02  0.46142317605E+02  0.99999985765E+01 0.  0.
         12    1    1    2    0    0  0.42417132169E+02 -0.23042760764E+01 -0.14986350882E+02  0.45045682395E+02  0.00000000000E+00 0. -1.
         11    1    3    3    0    0 -0.16016930763E+02  0.41544842234E+01  0.67683753400E+01  0.17877715604E+02  0.51100000000E-03 0. -1.
        -11    1    3    3    0    0 -0.13715345471E+02  0.11489045885E+01  0.61182133122E+01  0.15061979204E+02  0.51100000000E-03 0.  1.
         12    1    3    3    0    0 -0.12684855936E+02 -0.29991127355E+01  0.20997622298E+01  0.13202622797E+02  0.00000000000E+00 0. -1.
</event>
<event>
 7    1  0.2312612E-008  0.4614232E+02  0.7816164E-02  0.1320468E+00
        -11   -1    0    0    0    0  0.00000000000E+00  0.00000000000E+00  0.45593999997E+02  0.45594000000E+02  0.51100000000E-03 0. -1.
         11   -1    0    0    0    0 -0.00000000000E+00 -0.00000000000E+00 -0.45593999997E+02  0.45594000000E+02  0.51100000000E-03 0.  1.
    9900012    2    1    2    0    0 -0.31371380433E+02  0.27992978820E+02 -0.16166110724E+02  0.46142317527E+02  0.99999978657E+01 0.  0.
         12    1    1    2    0    0  0.31371380433E+02 -0.27992978820E+02  0.16166110724E+02  0.45045682473E+02  0.00000000000E+00 0. -1.
         11    1    3    3    0    0 -0.31876944662E+01  0.17697072292E+01 -0.17194225942E+00  0.36500443954E+01  0.51100000000E-03 0. -1.
        -11    1    3    3    0    0 -0.25964471458E+02  0.20103926269E+02 -0.13847564081E+02  0.35638134923E+02  0.51100000000E-03 0.  1.
        -12    1    3    3    0    0 -0.22192145087E+01  0.61193453221E+01 -0.21466043837E+01  0.68541382089E+01  0.00000000000E+00 0.  1.
</event>
<event>
 7    1  0.2312612E-008  0.4614232E+02  0.7816164E-02  0.1320468E+00
        -11   -1    0    0    0    0  0.00000000000E+00  0.00000000000E+00  0.45593999997E+02  0.45594000000E+02  0.51100000000E-03 0. -1.
         11   -1    0    0    0    0 -0.00000000000E+00 -0.00000000000E+00 -0.45593999997E+02  0.45594000000E+02  0.51100000000E-03 0.  1.
    9900012    2    1    2    0    0 -0.39826651445E+02  0.61109919336E+01  0.20139685139E+02  0.46142319794E+02  0.10000018536E+02 0.  0.
         12    1    1    2    0    0  0.39826651445E+02 -0.61109919336E+01 -0.20139685139E+02  0.45045680206E+02  0.00000000000E+00 0. -1.
         11    1    3    3    0    0 -0.14922602390E+01  0.80918227764E+00  0.26514218764E+01  0.31482780701E+01  0.51100000000E-03 0. -1.
        -11    1    3    3    0    0 -0.19628486445E+02  0.22984823102E+01  0.52799421723E+01  0.20455764240E+02  0.51100000000E-03 0.  1.
        -12    1    3    3    0    0 -0.18705904761E+02  0.30033273458E+01  0.12208321091E+02  0.22538277484E+02  0.00000000000E+00 0.  1.
</event>
<event>
 7    1  0.2312612E-008  0.4614232E+02  0.7816164E-02  0.1320468E+00
        -11   -1    0    0    0    0  0.00000000000E+00  0.00000000000E+00  0.45593999997E+02  0.45594000000E+02  0.51100000000E-03 0.  1.
         11   -1    0    0    0    0 -0.00000000000E+00 -0.00000000000E+00 -0.45593999997E+02  0.45594000000E+02  0.51100000000E-03 0. -1.
    9900012    2    1    2    0    0 -0.28881767159E+02  0.17637697187E+02  0.29729923014E+02  0.46142321421E+02  0.10000033370E+02 0.  0.
         12    1    1    2    0    0  0.28881767159E+02 -0.17637697187E+02 -0.29729923014E+02  0.45045678579E+02  0.00000000000E+00 0. -1.
         11    1    3    3    0    0 -0.49028634543E+01  0.60774705178E+00  0.50188155977E+01  0.70424382706E+01  0.51100000000E-03 0. -1.
        -11    1    3    3    0    0 -0.46597111772E-01  0.16747100545E+01  0.48471056027E+00  0.17440669843E+01  0.51100000000E-03 0.  1.
         12    1    3    3    0    0 -0.23932306593E+02  0.15355240081E+02  0.24226396856E+02  0.37355816166E+02  0.00000000000E+00 0. -1.
</event>
<event>
 7    1  0.2312612E-008  0.4614232E+02  0.7816164E-02  0.1320468E+00
        -11   -1    0    0    0    0  0.00000000000E+00  0.00000000000E+00  0.45593999997E+02  0.45594000000E+02  0.51100000000E-03 0.  1.
         11   -1    0    0    0    0 -0.00000000000E+00 -0.00000000000E+00 -0.45593999997E+02  0.45594000000E+02  0.51100000000E-03 0. -1.
    9900012    2    1    2    0    0  0.24276197429E+02 -0.49875596511E+01  0.37615209433E+02  0.46142317703E+02  0.99999994697E+01 0.  0.
         12    1    1    2    0    0 -0.24276197429E+02  0.49875596511E+01 -0.37615209433E+02  0.45045682297E+02  0.00000000000E+00 0. -1.
         11    1    3    3    0    0  0.13684426804E+01 -0.17608615854E+01  0.12916215723E+01  0.25771215415E+01  0.51100000000E-03 0.  1.
        -11    1    3    3    0    0  0.13381244604E+00  0.70913146847E+00  0.24818259207E+01  0.25846147435E+01  0.51100000000E-03 0. -1.
        -12    1    3    3    0    0  0.22773942303E+02 -0.39358295342E+01  0.33841761940E+02  0.40980581418E+02  0.00000000000E+00 0.  1.
</event>
<event>
 7    1  0.2312612E-008  0.4614232E+02  0.7816164E-02  0.1320468E+00
        -11   -1    0    0    0    0  0.00000000000E+00  0.00000000000E+00  0.45593999997E+02  0.45594000000E+02  0.51100000000E-03 0.  1.
         11   -1    0    0    0    0 -0.00000000000E+00 -0.00000000000E+00 -0.45593999997E+02  0.45594000000E+02  0.51100000000E-03 0. -1.
    9900012    2    1    2    0    0  0.31227937895E+02  0.12013561773E+02  0.30159637707E+02  0.46142317429E+02  0.99999969705E+01 0.  0.
         12    1    1    2    0    0 -0.31227937895E+02 -0.12013561773E+02 -0.30159637707E+02  0.45045682571E+02  0.00000000000E+00 0. -1.
         11    1    3    3    0    0  0.17278301167E+02  0.33942318245E+01  0.16536765423E+02  0.24156264443E+02  0.51100000000E-03 0. -1.
        -11    1    3    3    0    0  0.48469040657E+01  0.68786714663E+00  0.22065092340E+01  0.53697600965E+01  0.51100000000E-03 0.  1.
         12    1    3    3    0    0  0.91027326624E+01  0.79314628024E+01  0.11416363050E+02  0.16616292890E+02  0.00000000000E+00 0. -1.
</event>
<event>
 7    1  0.2312612E-008  0.4614232E+02  0.7816164E-02  0.1320468E+00
        -11   -1    0    0    0    0  0.00000000000E+00  0.00000000000E+00  0.45593999997E+02  0.45594000000E+02  0.51100000000E-03 0.  1.
         11   -1    0    0    0    0 -0.00000000000E+00 -0.00000000000E+00 -0.45593999997E+02  0.45594000000E+02  0.51100000000E-03 0. -1.
    9900012    2    1    2    0    0  0.18538148816E+02  0.32663924131E+02  0.24870033481E+02  0.46142318004E+02  0.10000002210E+02 0.  0.
         12    1    1    2    0    0 -0.18538148816E+02 -0.32663924131E+02 -0.24870033481E+02  0.45045681996E+02  0.00000000000E+00 0. -1.
         11    1    3    3    0    0  0.99959098579E+01  0.25980915064E+02  0.18127750719E+02  0.33219595239E+02  0.51100000000E-03 0. -1.
        -11    1    3    3    0    0  0.48826341674E+01  0.49797760005E+01  0.39569757600E+01  0.80184750953E+01  0.51100000000E-03 0.  1.
         12    1    3    3    0    0  0.36596047908E+01  0.17032330666E+01  0.27853070020E+01  0.49042476690E+01  0.00000000000E+00 0. -1.
</event>
<event>
 7    1  0.2312612E-008  0.4614232E+02  0.7816164E-02  0.1320468E+00
        -11   -1    0    0    0    0  0.00000000000E+00  0.00000000000E+00  0.45593999997E+02  0.45594000000E+02  0.51100000000E-03 0.  1.
         11   -1    0    0    0    0 -0.00000000000E+00 -0.00000000000E+00 -0.45593999997E+02  0.45594000000E+02  0.51100000000E-03 0. -1.
    9900012    2    1    2    0    0  0.25218006432E+01 -0.42800522874E+02  0.13815542390E+02  0.46142318206E+02  0.10000004057E+02 0.  0.
         12    1    1    2    0    0 -0.25218006432E+01  0.42800522874E+02 -0.13815542390E+02  0.45045681794E+02  0.00000000000E+00 0. -1.
         11    1    3    3    0    0  0.22699384966E+01 -0.93432453778E+01  0.45686627072E+01  0.10645258764E+02  0.51100000000E-03 0. -1.
        -11    1    3    3    0    0  0.34520848085E+01 -0.17564134323E+02  0.65568482092E+01  0.19063262122E+02  0.51100000000E-03 0.  1.
         12    1    3    3    0    0 -0.32002226619E+01 -0.15893143173E+02  0.26900314739E+01  0.16433797320E+02  0.00000000000E+00 0. -1.
</event>
<event>
 7    1  0.2312612E-008  0.4614232E+02  0.7816164E-02  0.1320468E+00
        -11   -1    0    0    0    0  0.00000000000E+00  0.00000000000E+00  0.45593999997E+02  0.45594000000E+02  0.51100000000E-03 0.  1.
         11   -1    0    0    0    0 -0.00000000000E+00 -0.00000000000E+00 -0.45593999997E+02  0.45594000000E+02  0.51100000000E-03 0. -1.
    9900012    2    1    2    0    0  0.21409952892E+02  0.35138128835E+02 -0.18331374993E+02  0.46142317743E+02  0.99999998347E+01 0.  0.
         12    1    1    2    0    0 -0.21409952892E+02 -0.35138128835E+02  0.18331374993E+02  0.45045682257E+02  0.00000000000E+00 0. -1.
         11    1    3    3    0    0  0.38844530626E+01  0.13125305454E+02 -0.70883552429E+01  0.15414519103E+02  0.51100000000E-03 0. -1.
        -11    1    3    3    0    0  0.39040323285E+01  0.68373397894E+01 -0.10919514835E+01  0.79487761399E+01  0.51100000000E-03 0.  1.
         12    1    3    3    0    0  0.13621467501E+02  0.15175483591E+02 -0.10151068266E+02  0.22779022500E+02  0.00000000000E+00 0. -1.
</event>
<event>
 7    1  0.2312612E-008  0.4614232E+02  0.7816164E-02  0.1320468E+00
        -11   -1    0    0    0    0  0.00000000000E+00  0.00000000000E+00  0.45593999997E+02  0.45594000000E+02  0.51100000000E-03 0.  1.
         11   -1    0    0    0    0 -0.00000000000E+00 -0.00000000000E+00 -0.45593999997E+02  0.45594000000E+02  0.51100000000E-03 0. -1.
    9900012    2    1    2    0    0  0.37659192707E+02  0.22499690392E+02 -0.10230475612E+02  0.46142317695E+02  0.99999993976E+01 0.  0.
         12    1    1    2    0    0 -0.37659192707E+02 -0.22499690392E+02  0.10230475612E+02  0.45045682305E+02  0.00000000000E+00 0. -1.
         11    1    3    3    0    0  0.95289278516E+01  0.41940135393E+01 -0.41844822054E+01  0.11220521697E+02  0.51100000000E-03 0. -1.
        -11    1    3    3    0    0  0.20657239801E+02  0.92643276919E+01 -0.33508464622E+01  0.22886185703E+02  0.51100000000E-03 0.  1.
        -12    1    3    3    0    0  0.74730250547E+01  0.90413491607E+01 -0.26951469441E+01  0.12035610295E+02  0.00000000000E+00 0.  1.
</event>
<event>
 7    1  0.2312612E-008  0.4614232E+02  0.7816164E-02  0.1320468E+00
        -11   -1    0    0    0    0  0.00000000000E+00  0.00000000000E+00  0.45593999997E+02  0.45594000000E+02  0.51100000000E-03 0.  1.
         11   -1    0    0    0    0 -0.00000000000E+00 -0.00000000000E+00 -0.45593999997E+02  0.45594000000E+02  0.51100000000E-03 0. -1.
    9900012    2    1    2    0    0  0.42099155639E+02 -0.15977445232E+02 -0.12229815951E+01  0.46142319346E+02  0.10000014450E+02 0.  0.
         12    1    1    2    0    0 -0.42099155639E+02  0.15977445232E+02  0.12229815951E+01  0.45045680654E+02  0.00000000000E+00 0. -1.
         11    1    3    3    0    0  0.19431646530E+02 -0.10054062160E+02 -0.24355693039E+01  0.22013746862E+02  0.51100000000E-03 0. -1.
        -11    1    3    3    0    0  0.11699804736E+02 -0.51143282646E+01 -0.13394456586E+01  0.12838843382E+02  0.51100000000E-03 0.  1.
         12    1    3    3    0    0  0.10967704373E+02 -0.80905480697E+00  0.25520333674E+01  0.11289729102E+02  0.00000000000E+00 0. -1.
</event>
<event>
 7    1  0.2312612E-008  0.4614232E+02  0.7816164E-02  0.1320468E+00
        -11   -1    0    0    0    0  0.00000000000E+00  0.00000000000E+00  0.45593999997E+02  0.45594000000E+02  0.51100000000E-03 0.  1.
         11   -1    0    0    0    0 -0.00000000000E+00 -0.00000000000E+00 -0.45593999997E+02  0.45594000000E+02  0.51100000000E-03 0. -1.
    9900012    2    1    2    0    0  0.17257572958E+00 -0.40988193988E+02  0.18682924547E+02  0.46142317649E+02  0.99999989817E+01 0.  0.
         12    1    1    2    0    0 -0.17257572958E+00  0.40988193988E+02 -0.18682924547E+02  0.45045682351E+02  0.00000000000E+00 0. -1.
         11    1    3    3    0    0 -0.50353275362E+00 -0.77558265459E+00 -0.26734906673E+00  0.96257439852E+00  0.51100000000E-03 0. -1.
        -11    1    3    3    0    0  0.27150341105E+01 -0.23679599478E+02  0.75803347924E+01  0.25011123875E+02  0.51100000000E-03 0.  1.
        -12    1    3    3    0    0 -0.20389256273E+01 -0.16533011856E+02  0.11369938821E+02  0.20168619376E+02  0.00000000000E+00 0.  1.
</event>
<event>
 7    1  0.2312612E-008  0.4614232E+02  0.7816164E-02  0.1320468E+00
        -11   -1    0    0    0    0  0.00000000000E+00  0.00000000000E+00  0.45593999997E+02  0.45594000000E+02  0.51100000000E-03 0.  1.
         11   -1    0    0    0    0 -0.00000000000E+00 -0.00000000000E+00 -0.45593999997E+02  0.45594000000E+02  0.51100000000E-03 0. -1.
    9900012    2    1    2    0    0 -0.42134616512E+02 -0.15930639706E+02  0.47582382212E-01  0.46142318141E+02  0.10000003469E+02 0.  0.
         12    1    1    2    0    0  0.42134616512E+02  0.15930639706E+02 -0.47582382212E-01  0.45045681859E+02  0.00000000000E+00 0. -1.
         11    1    3    3    0    0 -0.16066284261E+02 -0.42251092369E+01 -0.32607462711E+01  0.16929545313E+02  0.51100000000E-03 0.  1.
        -11    1    3    3    0    0 -0.27277748066E+01 -0.59263677054E+00 -0.10777667226E+01  0.29922491719E+01  0.51100000000E-03 0. -1.
        -12    1    3    3    0    0 -0.23340557444E+02 -0.11112893699E+02  0.43860953760E+01  0.26220523656E+02  0.00000000000E+00 0.  1.
</event>
<event>
 7    1  0.2312612E-008  0.4614232E+02  0.7816164E-02  0.1320468E+00
        -11   -1    0    0    0    0  0.00000000000E+00  0.00000000000E+00  0.45593999997E+02  0.45594000000E+02  0.51100000000E-03 0.  1.
         11   -1    0    0    0    0 -0.00000000000E+00 -0.00000000000E+00 -0.45593999997E+02  0.45594000000E+02  0.51100000000E-03 0. -1.
    9900012    2    1    2    0    0  0.37149401771E+02  0.93023104501E+00  0.25459183671E+02  0.46142318576E+02  0.10000007432E+02 0.  0.
         12    1    1    2    0    0 -0.37149401771E+02 -0.93023104501E+00 -0.25459183671E+02  0.45045681424E+02  0.00000000000E+00 0. -1.
         11    1    3    3    0    0  0.82508552557E+01  0.12286302613E+01  0.72567490815E+01  0.11056516281E+02  0.51100000000E-03 0. -1.
        -11    1    3    3    0    0  0.20598892374E+02  0.17818908788E+01  0.16280446652E+02  0.26316201200E+02  0.51100000000E-03 0.  1.
         12    1    3    3    0    0  0.82996541414E+01 -0.20802900951E+01  0.19219879373E+01  0.87696010957E+01  0.00000000000E+00 0. -1.
</event>
<event>
 7    1  0.2312612E-008  0.4614232E+02  0.7816164E-02  0.1320468E+00
        -11   -1    0    0    0    0  0.00000000000E+00  0.00000000000E+00  0.45593999997E+02  0.45594000000E+02  0.51100000000E-03 0.  1.
         11   -1    0    0    0    0 -0.00000000000E+00 -0.00000000000E+00 -0.45593999997E+02  0.45594000000E+02  0.51100000000E-03 0. -1.
    9900012    2    1    2    0    0  0.26355861488E+02 -0.20085796481E+02  0.30512997245E+02  0.46142315901E+02  0.99999830401E+01 0.  0.
         12    1    1    2    0    0 -0.26355861488E+02  0.20085796481E+02 -0.30512997245E+02  0.45045684099E+02  0.00000000000E+00 0. -1.
         11    1    3    3    0    0  0.86296725205E+01 -0.68537729754E+01  0.70941795353E+01  0.13106213616E+02  0.51100000000E-03 0. -1.
        -11    1    3    3    0    0  0.93037956696E+01 -0.11197294103E+02  0.13352144877E+02  0.19753981425E+02  0.51100000000E-03 0.  1.
         12    1    3    3    0    0  0.84223932976E+01 -0.20347294029E+01  0.10066672833E+02  0.13282120860E+02  0.00000000000E+00 0. -1.
</event>
<event>
 7    1  0.2312612E-008  0.4614232E+02  0.7816164E-02  0.1320468E+00
        -11   -1    0    0    0    0  0.00000000000E+00  0.00000000000E+00  0.45593999997E+02  0.45594000000E+02  0.51100000000E-03 0. -1.
         11   -1    0    0    0    0 -0.00000000000E+00 -0.00000000000E+00 -0.45593999997E+02  0.45594000000E+02  0.51100000000E-03 0.  1.
    9900012    2    1    2    0    0  0.18111983470E+02  0.40538460218E+02 -0.75962358902E+01  0.46142317612E+02  0.99999986428E+01 0.  0.
         12    1    1    2    0    0 -0.18111983470E+02 -0.40538460218E+02  0.75962358902E+01  0.45045682388E+02  0.00000000000E+00 0. -1.
         11    1    3    3    0    0  0.30271969719E+00  0.65915182514E+00 -0.47530092248E+00  0.86719753902E+00  0.51100000000E-03 0. -1.
        -11    1    3    3    0    0  0.65771658519E+01  0.25991497437E+02 -0.33415015649E+01  0.27018191698E+02  0.51100000000E-03 0.  1.
        -12    1    3    3    0    0  0.11232097921E+02  0.13887810956E+02 -0.37794334029E+01  0.18256928375E+02  0.00000000000E+00 0.  1.
</event>
<event>
 7    1  0.2312612E-008  0.4614232E+02  0.7816164E-02  0.1320468E+00
        -11   -1    0    0    0    0  0.00000000000E+00  0.00000000000E+00  0.45593999997E+02  0.45594000000E+02  0.51100000000E-03 0. -1.
         11   -1    0    0    0    0 -0.00000000000E+00 -0.00000000000E+00 -0.45593999997E+02  0.45594000000E+02  0.51100000000E-03 0.  1.
    9900012    2    1    2    0    0 -0.30461548455E+01  0.44834930181E+02 -0.31086137643E+01  0.46142317596E+02  0.99999984971E+01 0.  0.
         12    1    1    2    0    0  0.30461548455E+01 -0.44834930181E+02  0.31086137643E+01  0.45045682404E+02  0.00000000000E+00 0. -1.
         11    1    3    3    0    0  0.16582500392E+01  0.90653186637E+01 -0.26689326674E+01  0.95944253351E+01  0.51100000000E-03 0.  1.
        -11    1    3    3    0    0 -0.30866358937E+01  0.80688648250E+01 -0.15532368635E+01  0.87776104789E+01  0.51100000000E-03 0. -1.
        -12    1    3    3    0    0 -0.16177689911E+01  0.27700746692E+02  0.11135557667E+01  0.27770281782E+02  0.00000000000E+00 0.  1.
</event>
<event>
 7    1  0.2312612E-008  0.4614232E+02  0.7816164E-02  0.1320468E+00
        -11   -1    0    0    0    0  0.00000000000E+00  0.00000000000E+00  0.45593999997E+02  0.45594000000E+02  0.51100000000E-03 0. -1.
         11   -1    0    0    0    0 -0.00000000000E+00 -0.00000000000E+00 -0.45593999997E+02  0.45594000000E+02  0.51100000000E-03 0.  1.
    9900012    2    1    2    0    0  0.41608722228E+02  0.71662652178E+01 -0.15699440257E+02  0.46142317110E+02  0.99999940621E+01 0.  0.
         12    1    1    2    0    0 -0.41608722228E+02 -0.71662652178E+01  0.15699440257E+02  0.45045682890E+02  0.00000000000E+00 0. -1.
         11    1    3    3    0    0  0.69015320122E+01  0.27672685875E+01 -0.25221146257E+01  0.78517502506E+01  0.51100000000E-03 0. -1.
        -11    1    3    3    0    0  0.48716164772E+01  0.13216459465E+01 -0.52150912028E+01  0.72578627449E+01  0.51100000000E-03 0.  1.
         12    1    3    3    0    0  0.29835573739E+02  0.30773506838E+01 -0.79622344286E+01  0.31032704115E+02  0.00000000000E+00 0. -1.
</event>
<event>
 7    1  0.2312612E-008  0.4614232E+02  0.7816164E-02  0.1320468E+00
        -11   -1    0    0    0    0  0.00000000000E+00  0.00000000000E+00  0.45593999997E+02  0.45594000000E+02  0.51100000000E-03 0.  1.
         11   -1    0    0    0    0 -0.00000000000E+00 -0.00000000000E+00 -0.45593999997E+02  0.45594000000E+02  0.51100000000E-03 0. -1.
    9900012    2    1    2    0    0 -0.84671351014E+01 -0.31562419941E+02  0.31003786477E+02  0.46142317573E+02  0.99999982884E+01 0.  0.
         12    1    1    2    0    0  0.84671351014E+01  0.31562419941E+02 -0.31003786477E+02  0.45045682427E+02  0.00000000000E+00 0. -1.
         11    1    3    3    0    0 -0.71149417227E+01 -0.26760791370E+02  0.27613663850E+02  0.39105968623E+02  0.51100000000E-03 0. -1.
        -11    1    3    3    0    0 -0.14926991629E+01 -0.43546867207E+01  0.41141556789E+01  0.61739553317E+01  0.51100000000E-03 0.  1.
         12    1    3    3    0    0  0.14050578414E+00 -0.44694185068E+00 -0.72403305201E+00  0.86239361876E+00  0.00000000000E+00 0. -1.
</event>
<event>
 7    1  0.2312612E-008  0.4614232E+02  0.7816164E-02  0.1320468E+00
        -11   -1    0    0    0    0  0.00000000000E+00  0.00000000000E+00  0.45593999997E+02  0.45594000000E+02  0.51100000000E-03 0.  1.
         11   -1    0    0    0    0 -0.00000000000E+00 -0.00000000000E+00 -0.45593999997E+02  0.45594000000E+02  0.51100000000E-03 0. -1.
    9900012    2    1    2    0    0  0.21663159711E+02  0.36164782980E+02 -0.15872287341E+02  0.46142317387E+02  0.99999965847E+01 0.  0.
         12    1    1    2    0    0 -0.21663159711E+02 -0.36164782980E+02  0.15872287341E+02  0.45045682613E+02  0.00000000000E+00 0. -1.
         11    1    3    3    0    0  0.45774075634E+01  0.87748877607E+01 -0.57320928883E+01  0.11437141442E+02  0.51100000000E-03 0. -1.
        -11    1    3    3    0    0  0.83900224137E+01  0.19724609973E+02 -0.82115770157E+01  0.22953925853E+02  0.51100000000E-03 0.  1.
         12    1    3    3    0    0  0.86957297343E+01  0.76652852459E+01 -0.19286174372E+01  0.11751250092E+02  0.00000000000E+00 0. -1.
</event>
<event>
 7    1  0.2312612E-008  0.4614232E+02  0.7816164E-02  0.1320468E+00
        -11   -1    0    0    0    0  0.00000000000E+00  0.00000000000E+00  0.45593999997E+02  0.45594000000E+02  0.51100000000E-03 0. -1.
         11   -1    0    0    0    0 -0.00000000000E+00 -0.00000000000E+00 -0.45593999997E+02  0.45594000000E+02  0.51100000000E-03 0.  1.
    9900012    2    1    2    0    0  0.23043824970E+01 -0.44948991913E+02  0.18415616689E+01  0.46142318719E+02  0.10000008739E+02 0.  0.
         12    1    1    2    0    0 -0.23043824970E+01  0.44948991913E+02 -0.18415616689E+01  0.45045681281E+02  0.00000000000E+00 0. -1.
         11    1    3    3    0    0 -0.62657291647E+00 -0.65153226784E+01  0.26249189061E+01  0.70521076813E+01  0.51100000000E-03 0. -1.
        -11    1    3    3    0    0 -0.27738112500E+00 -0.17517308962E+02  0.24279326756E+01  0.17686941819E+02  0.51100000000E-03 0.  1.
         12    1    3    3    0    0  0.32083365385E+01 -0.20916360272E+02 -0.32112899128E+01  0.21403269220E+02  0.00000000000E+00 0. -1.
</event>
<event>
 7    1  0.2312612E-008  0.4614232E+02  0.7816164E-02  0.1320468E+00
        -11   -1    0    0    0    0  0.00000000000E+00  0.00000000000E+00  0.45593999997E+02  0.45594000000E+02  0.51100000000E-03 0.  1.
         11   -1    0    0    0    0 -0.00000000000E+00 -0.00000000000E+00 -0.45593999997E+02  0.45594000000E+02  0.51100000000E-03 0. -1.
    9900012    2    1    2    0    0  0.10208424337E+02  0.43714178931E+02 -0.37379336109E+01  0.46142317469E+02  0.99999973324E+01 0.  0.
         12    1    1    2    0    0 -0.10208424337E+02 -0.43714178931E+02  0.37379336109E+01  0.45045682531E+02  0.00000000000E+00 0. -1.
         11    1    3    3    0    0  0.71170714778E+01  0.24028984201E+02 -0.59382606840E+01  0.25754761276E+02  0.51100000000E-03 0. -1.
        -11    1    3    3    0    0  0.13200165605E+01  0.71516708385E+01 -0.97432951345E+00  0.73374489957E+01  0.51100000000E-03 0.  1.
         12    1    3    3    0    0  0.17713362991E+01  0.12533523891E+02  0.31746565866E+01  0.13050107197E+02  0.00000000000E+00 0. -1.
</event>
<event>
 7    1  0.2312612E-008  0.4614232E+02  0.7816164E-02  0.1320468E+00
        -11   -1    0    0    0    0  0.00000000000E+00  0.00000000000E+00  0.45593999997E+02  0.45594000000E+02  0.51100000000E-03 0. -1.
         11   -1    0    0    0    0 -0.00000000000E+00 -0.00000000000E+00 -0.45593999997E+02  0.45594000000E+02  0.51100000000E-03 0.  1.
    9900012    2    1    2    0    0 -0.15270729670E+02  0.87426194589E+00 -0.42369259766E+02  0.46142315504E+02  0.99999794136E+01 0.  0.
         12    1    1    2    0    0  0.15270729670E+02 -0.87426194589E+00  0.42369259766E+02  0.45045684496E+02  0.00000000000E+00 0. -1.
         11    1    3    3    0    0 -0.74142209414E+01 -0.27046013487E+01 -0.17997005977E+02  0.19651406184E+02  0.51100000000E-03 0. -1.
        -11    1    3    3    0    0 -0.53057791643E+01  0.38503040461E+01 -0.22141070118E+02  0.23091191394E+02  0.51100000000E-03 0.  1.
         12    1    3    3    0    0 -0.25507295647E+01 -0.27144075149E+00 -0.22311836719E+01  0.33997179253E+01  0.00000000000E+00 0. -1.
</event>
<event>
 7    1  0.2312612E-008  0.4614232E+02  0.7816164E-02  0.1320468E+00
        -11   -1    0    0    0    0  0.00000000000E+00  0.00000000000E+00  0.45593999997E+02  0.45594000000E+02  0.51100000000E-03 0. -1.
         11   -1    0    0    0    0 -0.00000000000E+00 -0.00000000000E+00 -0.45593999997E+02  0.45594000000E+02  0.51100000000E-03 0.  1.
    9900012    2    1    2    0    0 -0.29386378070E+02  0.81467468880E+01 -0.33153956132E+02  0.46142317542E+02  0.99999980026E+01 0.  0.
         12    1    1    2    0    0  0.29386378070E+02 -0.81467468880E+01  0.33153956132E+02  0.45045682458E+02  0.00000000000E+00 0. -1.
         11    1    3    3    0    0 -0.16067509517E+02  0.55704284113E+01 -0.18599925254E+02  0.25202217253E+02  0.51100000000E-03 0. -1.
        -11    1    3    3    0    0 -0.12163599755E+02  0.40686117278E+01 -0.13969262229E+02  0.18964362574E+02  0.51100000000E-03 0.  1.
         12    1    3    3    0    0 -0.11552687986E+01 -0.14922932510E+01 -0.58476864909E+00  0.19757377146E+01  0.00000000000E+00 0. -1.
</event>
<event>
 7    1  0.2312612E-008  0.4614232E+02  0.7816164E-02  0.1320468E+00
        -11   -1    0    0    0    0  0.00000000000E+00  0.00000000000E+00  0.45593999997E+02  0.45594000000E+02  0.51100000000E-03 0. -1.
         11   -1    0    0    0    0 -0.00000000000E+00 -0.00000000000E+00 -0.45593999997E+02  0.45594000000E+02  0.51100000000E-03 0.  1.
    9900012    2    1    2    0    0  0.39154478448E+02  0.14178911020E+02  0.17175535691E+02  0.46142315117E+02  0.99999758927E+01 0.  0.
         12    1    1    2    0    0 -0.39154478448E+02 -0.14178911020E+02 -0.17175535691E+02  0.45045684883E+02  0.00000000000E+00 0. -1.
         11    1    3    3    0    0  0.17041013393E+01  0.25432490521E+00 -0.12134770516E+00  0.17272429067E+01  0.51100000000E-03 0. -1.
        -11    1    3    3    0    0  0.23046629292E+02  0.10867189397E+02  0.69260195152E+01  0.26404785053E+02  0.51100000000E-03 0.  1.
        -12    1    3    3    0    0  0.14403747817E+02  0.30573967175E+01  0.10370863881E+02  0.18010287158E+02  0.00000000000E+00 0.  1.
</event>
<event>
 7    1  0.2312612E-008  0.4614232E+02  0.7816164E-02  0.1320468E+00
        -11   -1    0    0    0    0  0.00000000000E+00  0.00000000000E+00  0.45593999997E+02  0.45594000000E+02  0.51100000000E-03 0.  1.
         11   -1    0    0    0    0 -0.00000000000E+00 -0.00000000000E+00 -0.45593999997E+02  0.45594000000E+02  0.51100000000E-03 0. -1.
    9900012    2    1    2    0    0  0.16511335405E+02 -0.10609965849E+02  0.40545257137E+02  0.46142318204E+02  0.10000004037E+02 0.  0.
         12    1    1    2    0    0 -0.16511335405E+02  0.10609965849E+02 -0.40545257137E+02  0.45045681796E+02  0.00000000000E+00 0. -1.
         11    1    3    3    0    0  0.81707538697E+01 -0.46879788574E+01  0.19762794426E+02  0.21893067586E+02  0.51100000000E-03 0. -1.
        -11    1    3    3    0    0  0.91268759285E+01 -0.62878432150E+01  0.20555086776E+02  0.23352696400E+02  0.51100000000E-03 0.  1.
         12    1    3    3    0    0 -0.78629439350E+00  0.36585622308E+00  0.22737593523E+00  0.89655421763E+00  0.00000000000E+00 0. -1.
</event>
<event>
 7    1  0.2312612E-008  0.4614232E+02  0.7816164E-02  0.1320468E+00
        -11   -1    0    0    0    0  0.00000000000E+00  0.00000000000E+00  0.45593999997E+02  0.45594000000E+02  0.51100000000E-03 0. -1.
         11   -1    0    0    0    0 -0.00000000000E+00 -0.00000000000E+00 -0.45593999997E+02  0.45594000000E+02  0.51100000000E-03 0.  1.
    9900012    2    1    2    0    0  0.34343992726E+02 -0.64916977874E+01  0.28415868126E+02  0.46142317211E+02  0.99999949872E+01 0.  0.
         12    1    1    2    0    0 -0.34343992726E+02  0.64916977874E+01 -0.28415868126E+02  0.45045682789E+02  0.00000000000E+00 0. -1.
         11    1    3    3    0    0  0.17813024629E+01 -0.44805177940E+00 -0.48529800211E-01  0.18374287099E+01  0.51100000000E-03 0. -1.
        -11    1    3    3    0    0  0.27881676823E+02 -0.77993851765E+01  0.24279219985E+02  0.37784902209E+02  0.51100000000E-03 0.  1.
        -12    1    3    3    0    0  0.46810134400E+01  0.17557391685E+01  0.41851779412E+01  0.65199862924E+01  0.00000000000E+00 0.  1.
</event>
<event>
 7    1  0.2312612E-008  0.4614232E+02  0.7816164E-02  0.1320468E+00
        -11   -1    0    0    0    0  0.00000000000E+00  0.00000000000E+00  0.45593999997E+02  0.45594000000E+02  0.51100000000E-03 0.  1.
         11   -1    0    0    0    0 -0.00000000000E+00 -0.00000000000E+00 -0.45593999997E+02  0.45594000000E+02  0.51100000000E-03 0. -1.
    9900012    2    1    2    0    0  0.15322678626E+02 -0.23357806037E+02  0.35337541475E+02  0.46142318513E+02  0.10000006854E+02 0.  0.
         12    1    1    2    0    0 -0.15322678626E+02  0.23357806037E+02 -0.35337541475E+02  0.45045681487E+02  0.00000000000E+00 0. -1.
         11    1    3    3    0    0  0.20827107766E+01 -0.81847022248E+01  0.10214538478E+02  0.13253823270E+02  0.51100000000E-03 0. -1.
        -11    1    3    3    0    0  0.96867945702E+01 -0.14669750945E+02  0.21722427172E+02  0.27944577727E+02  0.51100000000E-03 0.  1.
         12    1    3    3    0    0  0.35531732796E+01 -0.50335286765E+00  0.34005758243E+01  0.49439175156E+01  0.00000000000E+00 0. -1.
</event>
<event>
 7    1  0.2312612E-008  0.4614232E+02  0.7816164E-02  0.1320468E+00
        -11   -1    0    0    0    0  0.00000000000E+00  0.00000000000E+00  0.45593999997E+02  0.45594000000E+02  0.51100000000E-03 0.  1.
         11   -1    0    0    0    0 -0.00000000000E+00 -0.00000000000E+00 -0.45593999997E+02  0.45594000000E+02  0.51100000000E-03 0. -1.
    9900012    2    1    2    0    0  0.12737788755E+02 -0.16041459737E+02  0.40118996593E+02  0.46142316739E+02  0.99999906764E+01 0.  0.
         12    1    1    2    0    0 -0.12737788755E+02  0.16041459737E+02 -0.40118996593E+02  0.45045683261E+02  0.00000000000E+00 0. -1.
         11    1    3    3    0    0  0.12528172476E+00  0.51145937327E+00  0.39118804314E+01  0.39471629016E+01  0.51100000000E-03 0. -1.
        -11    1    3    3    0    0  0.15703401355E+01 -0.65459622794E+01  0.12377723473E+02  0.14089841338E+02  0.51100000000E-03 0.  1.
        -12    1    3    3    0    0  0.11042166895E+02 -0.10006956831E+02  0.23829392688E+02  0.28105312499E+02  0.00000000000E+00 0.  1.
</event>
<event>
 7    1  0.2312612E-008  0.4614232E+02  0.7816164E-02  0.1320468E+00
        -11   -1    0    0    0    0  0.00000000000E+00  0.00000000000E+00  0.45593999997E+02  0.45594000000E+02  0.51100000000E-03 0.  1.
         11   -1    0    0    0    0 -0.00000000000E+00 -0.00000000000E+00 -0.45593999997E+02  0.45594000000E+02  0.51100000000E-03 0. -1.
    9900012    2    1    2    0    0 -0.34383127900E+02 -0.28703700837E+02  0.47970028167E+01  0.46142321385E+02  0.10000033042E+02 0.  0.
         12    1    1    2    0    0  0.34383127900E+02  0.28703700837E+02 -0.47970028167E+01  0.45045678615E+02  0.00000000000E+00 0. -1.
         11    1    3    3    0    0 -0.70202901370E+01 -0.64708331392E+01  0.27765657087E+01  0.99431118127E+01  0.51100000000E-03 0.  1.
        -11    1    3    3    0    0 -0.87375043229E+01 -0.42641535944E+01 -0.22234248040E+01  0.99734951642E+01  0.51100000000E-03 0. -1.
         12    1    3    3    0    0 -0.18625333440E+02 -0.17968714103E+02  0.42438619120E+01  0.26225714408E+02  0.00000000000E+00 0. -1.
</event>
<event>
 7    1  0.2312612E-008  0.4614232E+02  0.7816164E-02  0.1320468E+00
        -11   -1    0    0    0    0  0.00000000000E+00  0.00000000000E+00  0.45593999997E+02  0.45594000000E+02  0.51100000000E-03 0.  1.
         11   -1    0    0    0    0 -0.00000000000E+00 -0.00000000000E+00 -0.45593999997E+02  0.45594000000E+02  0.51100000000E-03 0. -1.
    9900012    2    1    2    0    0 -0.41272317507E+02 -0.18041113405E+02  0.47702085767E+00  0.46142317474E+02  0.99999973827E+01 0.  0.
         12    1    1    2    0    0  0.41272317507E+02  0.18041113405E+02 -0.47702085767E+00  0.45045682526E+02  0.00000000000E+00 0. -1.
         11    1    3    3    0    0 -0.10418697645E+02 -0.44393937330E+01 -0.33002500068E+01  0.11796148850E+02  0.51100000000E-03 0. -1.
        -11    1    3    3    0    0 -0.11020140800E+02 -0.47052650409E+01 -0.12113887996E+01  0.12043690691E+02  0.51100000000E-03 0.  1.
         12    1    3    3    0    0 -0.19833479062E+02 -0.88964546314E+01  0.49886596641E+01  0.22302477933E+02  0.00000000000E+00 0. -1.
</event>
<event>
 7    1  0.2312612E-008  0.4614232E+02  0.7816164E-02  0.1320468E+00
        -11   -1    0    0    0    0  0.00000000000E+00  0.00000000000E+00  0.45593999997E+02  0.45594000000E+02  0.51100000000E-03 0. -1.
         11   -1    0    0    0    0 -0.00000000000E+00 -0.00000000000E+00 -0.45593999997E+02  0.45594000000E+02  0.51100000000E-03 0.  1.
    9900012    2    1    2    0    0 -0.10850926624E+01 -0.20581836693E+02 -0.40054013459E+02  0.46142318499E+02  0.10000006729E+02 0.  0.
         12    1    1    2    0    0  0.10850926624E+01  0.20581836693E+02  0.40054013459E+02  0.45045681501E+02  0.00000000000E+00 0. -1.
         11    1    3    3    0    0 -0.13856517703E+01  0.38074366744E+00 -0.36584238602E+01  0.39305294771E+01  0.51100000000E-03 0. -1.
        -11    1    3    3    0    0  0.41635836151E+00 -0.93080896924E+01 -0.20333490752E+02  0.22366598634E+02  0.51100000000E-03 0.  1.
         12    1    3    3    0    0 -0.11579925369E+00 -0.11654490668E+02 -0.16062098846E+02  0.19845190388E+02  0.00000000000E+00 0. -1.
</event>
<event>
 7    1  0.2312612E-008  0.4614232E+02  0.7816164E-02  0.1320468E+00
        -11   -1    0    0    0    0  0.00000000000E+00  0.00000000000E+00  0.45593999997E+02  0.45594000000E+02  0.51100000000E-03 0.  1.
         11   -1    0    0    0    0 -0.00000000000E+00 -0.00000000000E+00 -0.45593999997E+02  0.45594000000E+02  0.51100000000E-03 0. -1.
    9900012    2    1    2    0    0 -0.30237145550E+02  0.11972189557E+02  0.31168816664E+02  0.46142318453E+02  0.10000006306E+02 0.  0.
         12    1    1    2    0    0  0.30237145550E+02 -0.11972189557E+02 -0.31168816664E+02  0.45045681547E+02  0.00000000000E+00 0. -1.
         11    1    3    3    0    0 -0.16924319735E+01  0.15146871900E+01  0.20142082583E+01  0.30357270031E+01  0.51100000000E-03 0. -1.
        -11    1    3    3    0    0 -0.20372411780E+02  0.98652493856E+01  0.25608962077E+02  0.34178608019E+02  0.51100000000E-03 0.  1.
         12    1    3    3    0    0 -0.81723017966E+01  0.59225298099E+00  0.35456463292E+01  0.89279834307E+01  0.00000000000E+00 0. -1.
</event>
<event>
 7    1  0.2312612E-008  0.4614232E+02  0.7816164E-02  0.1320468E+00
        -11   -1    0    0    0    0  0.00000000000E+00  0.00000000000E+00  0.45593999997E+02  0.45594000000E+02  0.51100000000E-03 0. -1.
         11   -1    0    0    0    0 -0.00000000000E+00 -0.00000000000E+00 -0.45593999997E+02  0.45594000000E+02  0.51100000000E-03 0.  1.
    9900012    2    1    2    0    0  0.79419013388E+01 -0.36016102124E+02 -0.25862714860E+02  0.46142318420E+02  0.10000006012E+02 0.  0.
         12    1    1    2    0    0 -0.79419013388E+01  0.36016102124E+02  0.25862714860E+02  0.45045681580E+02  0.00000000000E+00 0. -1.
         11    1    3    3    0    0  0.67592337602E+00 -0.15576042892E+02 -0.12573460828E+02  0.20029026487E+02  0.51100000000E-03 0. -1.
        -11    1    3    3    0    0  0.16041437057E+01 -0.11580791014E+02 -0.90164323417E+01  0.14764282914E+02  0.51100000000E-03 0.  1.
         12    1    3    3    0    0  0.56618342571E+01 -0.88592682180E+01 -0.42728216897E+01  0.11349009019E+02  0.00000000000E+00 0. -1.
</event>
<event>
 7    1  0.2312612E-008  0.4614232E+02  0.7816164E-02  0.1320468E+00
        -11   -1    0    0    0    0  0.00000000000E+00  0.00000000000E+00  0.45593999997E+02  0.45594000000E+02  0.51100000000E-03 0.  1.
         11   -1    0    0    0    0 -0.00000000000E+00 -0.00000000000E+00 -0.45593999997E+02  0.45594000000E+02  0.51100000000E-03 0. -1.
    9900012    2    1    2    0    0  0.10748675016E+02 -0.40518161875E+02  0.16488113791E+02  0.46142319267E+02  0.10000013732E+02 0.  0.
         12    1    1    2    0    0 -0.10748675016E+02  0.40518161875E+02 -0.16488113791E+02  0.45045680733E+02  0.00000000000E+00 0. -1.
         11    1    3    3    0    0  0.63786682125E+01 -0.21916650761E+02  0.60797723923E+01  0.23621825106E+02  0.51100000000E-03 0. -1.
        -11    1    3    3    0    0  0.94323406183E+00 -0.11469717623E+02  0.35335257535E+01  0.12038684204E+02  0.51100000000E-03 0.  1.
        -12    1    3    3    0    0  0.34267727420E+01 -0.71317934904E+01  0.68748156451E+01  0.10481809957E+02  0.00000000000E+00 0.  1.
</event>
<event>
 7    1  0.2312612E-008  0.4614232E+02  0.7816164E-02  0.1320468E+00
        -11   -1    0    0    0    0  0.00000000000E+00  0.00000000000E+00  0.45593999997E+02  0.45594000000E+02  0.51100000000E-03 0.  1.
         11   -1    0    0    0    0 -0.00000000000E+00 -0.00000000000E+00 -0.45593999997E+02  0.45594000000E+02  0.51100000000E-03 0. -1.
    9900012    2    1    2    0    0  0.54697169001E+01 -0.36428569981E+02  0.25925951787E+02  0.46142317745E+02  0.99999998497E+01 0.  0.
         12    1    1    2    0    0 -0.54697169001E+01  0.36428569981E+02 -0.25925951787E+02  0.45045682255E+02  0.00000000000E+00 0. -1.
         11    1    3    3    0    0  0.19936156665E+01 -0.28469871178E+01  0.38536237432E+01  0.51894368952E+01  0.51100000000E-03 0. -1.
        -11    1    3    3    0    0  0.77289372092E+00 -0.18050278475E+02  0.15747970020E+02  0.23966820351E+02  0.51100000000E-03 0.  1.
         12    1    3    3    0    0  0.27032075128E+01 -0.15531304388E+02  0.63243580237E+01  0.16986060498E+02  0.00000000000E+00 0. -1.
</event>
<event>
 7    1  0.2312612E-008  0.4614232E+02  0.7816164E-02  0.1320468E+00
        -11   -1    0    0    0    0  0.00000000000E+00  0.00000000000E+00  0.45593999997E+02  0.45594000000E+02  0.51100000000E-03 0.  1.
         11   -1    0    0    0    0 -0.00000000000E+00 -0.00000000000E+00 -0.45593999997E+02  0.45594000000E+02  0.51100000000E-03 0. -1.
    9900012    2    1    2    0    0  0.37437943336E+02  0.54337298649E+01 -0.24453805885E+02  0.46142316036E+02  0.99999842724E+01 0.  0.
         12    1    1    2    0    0 -0.37437943336E+02 -0.54337298649E+01  0.24453805885E+02  0.45045683964E+02  0.00000000000E+00 0. -1.
         11    1    3    3    0    0  0.26437692066E+02  0.53233493000E+01 -0.12749041842E+02  0.29829979512E+02  0.51100000000E-03 0. -1.
        -11    1    3    3    0    0  0.35717299997E+01  0.13274938615E+01 -0.44403330160E+01  0.58511582355E+01  0.51100000000E-03 0.  1.
         12    1    3    3    0    0  0.74285212709E+01 -0.12171132966E+01 -0.72644310267E+01  0.10461178289E+02  0.00000000000E+00 0. -1.
</event>
<event>
 7    1  0.2312612E-008  0.4614233E+02  0.7816164E-02  0.1320468E+00
        -11   -1    0    0    0    0  0.00000000000E+00  0.00000000000E+00  0.45593999997E+02  0.45594000000E+02  0.51100000000E-03 0.  1.
         11   -1    0    0    0    0 -0.00000000000E+00 -0.00000000000E+00 -0.45593999997E+02  0.45594000000E+02  0.51100000000E-03 0. -1.
    9900012    2    1    2    0    0  0.34333623982E+02 -0.22744914084E+02  0.18247831329E+02  0.46142332055E+02  0.10000130341E+02 0.  0.
         12    1    1    2    0    0 -0.34333623982E+02  0.22744914084E+02 -0.18247831329E+02  0.45045667945E+02  0.00000000000E+00 0. -1.
         11    1    3    3    0    0  0.20161807703E+02 -0.90834815719E+01  0.10360067354E+02  0.24420055756E+02  0.51100000000E-03 0. -1.
        -11    1    3    3    0    0  0.11487018520E+02 -0.81974428612E+01  0.61276106199E+01  0.15384969162E+02  0.51100000000E-03 0.  1.
         12    1    3    3    0    0  0.26847977600E+01 -0.54639896508E+01  0.17601533546E+01  0.63373071369E+01  0.00000000000E+00 0. -1.
</event>
<event>
 7    1  0.2312612E-008  0.4614232E+02  0.7816164E-02  0.1320468E+00
        -11   -1    0    0    0    0  0.00000000000E+00  0.00000000000E+00  0.45593999997E+02  0.45594000000E+02  0.51100000000E-03 0.  1.
         11   -1    0    0    0    0 -0.00000000000E+00 -0.00000000000E+00 -0.45593999997E+02  0.45594000000E+02  0.51100000000E-03 0. -1.
    9900012    2    1    2    0    0  0.11047119672E+02  0.21915243754E+02  0.37772962221E+02  0.46142318334E+02  0.10000005221E+02 0.  0.
         12    1    1    2    0    0 -0.11047119672E+02 -0.21915243754E+02 -0.37772962221E+02  0.45045681666E+02  0.00000000000E+00 0. -1.
         11    1    3    3    0    0  0.12286006092E+01  0.87177659877E+00  0.78400542200E+00  0.16982693126E+01  0.51100000000E-03 0. -1.
        -11    1    3    3    0    0  0.99893738194E-01 -0.66392115304E+00  0.22156218174E+01  0.23151134649E+01  0.51100000000E-03 0.  1.
        -12    1    3    3    0    0  0.97186253241E+01  0.21707388308E+02  0.34773334982E+02  0.42128935556E+02  0.00000000000E+00 0.  1.
</event>
<event>
 7    1  0.2312612E-008  0.4614232E+02  0.7816164E-02  0.1320468E+00
        -11   -1    0    0    0    0  0.00000000000E+00  0.00000000000E+00  0.45593999997E+02  0.45594000000E+02  0.51100000000E-03 0.  1.
         11   -1    0    0    0    0 -0.00000000000E+00 -0.00000000000E+00 -0.45593999997E+02  0.45594000000E+02  0.51100000000E-03 0. -1.
    9900012    2    1    2    0    0 -0.21813860294E+02 -0.15237156888E+01  0.39382066086E+02  0.46142319411E+02  0.10000015049E+02 0.  0.
         12    1    1    2    0    0  0.21813860294E+02  0.15237156888E+01 -0.39382066086E+02  0.45045680589E+02  0.00000000000E+00 0. -1.
         11    1    3    3    0    0  0.35565149160E+00  0.94079120206E+00  0.37983841376E+01  0.39292872620E+01  0.51100000000E-03 0. -1.
        -11    1    3    3    0    0 -0.13717182867E+02 -0.10770227863E+01  0.18024144150E+02  0.22675776866E+02  0.51100000000E-03 0.  1.
        -12    1    3    3    0    0 -0.84523289193E+01 -0.13874841045E+01  0.17559537798E+02  0.19537255283E+02  0.00000000000E+00 0.  1.
</event>
<event>
 7    1  0.2312612E-008  0.4614232E+02  0.7816164E-02  0.1320468E+00
        -11   -1    0    0    0    0  0.00000000000E+00  0.00000000000E+00  0.45593999997E+02  0.45594000000E+02  0.51100000000E-03 0.  1.
         11   -1    0    0    0    0 -0.00000000000E+00 -0.00000000000E+00 -0.45593999997E+02  0.45594000000E+02  0.51100000000E-03 0. -1.
    9900012    2    1    2    0    0 -0.16662028284E+02  0.41269661939E+02  0.69502029666E+01  0.46142317584E+02  0.99999983805E+01 0.  0.
         12    1    1    2    0    0  0.16662028284E+02 -0.41269661939E+02 -0.69502029666E+01  0.45045682416E+02  0.00000000000E+00 0. -1.
         11    1    3    3    0    0 -0.28859611069E+00  0.21612215281E+01  0.83578593978E+00  0.23351026973E+01  0.51100000000E-03 0. -1.
        -11    1    3    3    0    0 -0.45631499630E+01  0.22484219456E+02  0.42154718174E+01  0.23326651390E+02  0.51100000000E-03 0.  1.
         12    1    3    3    0    0 -0.11810282210E+02  0.16624220954E+02  0.18989452094E+01  0.20480563497E+02  0.00000000000E+00 0. -1.
</event>
<event>
 7    1  0.2312612E-008  0.4614232E+02  0.7816164E-02  0.1320468E+00
        -11   -1    0    0    0    0  0.00000000000E+00  0.00000000000E+00  0.45593999997E+02  0.45594000000E+02  0.51100000000E-03 0.  1.
         11   -1    0    0    0    0 -0.00000000000E+00 -0.00000000000E+00 -0.45593999997E+02  0.45594000000E+02  0.51100000000E-03 0. -1.
    9900012    2    1    2    0    0 -0.33299458321E+02 -0.30669085363E+00  0.30334229754E+02  0.46142317871E+02  0.10000000999E+02 0.  0.
         12    1    1    2    0    0  0.33299458321E+02  0.30669085363E+00 -0.30334229754E+02  0.45045682129E+02  0.00000000000E+00 0. -1.
         11    1    3    3    0    0 -0.10104894742E+02  0.27772710526E+01  0.11952143090E+02  0.15895781106E+02  0.51100000000E-03 0. -1.
        -11    1    3    3    0    0 -0.13551273649E+02  0.51676886755E+00  0.86791156999E+01  0.16100655799E+02  0.51100000000E-03 0.  1.
         12    1    3    3    0    0 -0.96432899293E+01 -0.36007307737E+01  0.97029709640E+01  0.14145880966E+02  0.00000000000E+00 0. -1.
</event>
<event>
 7    1  0.2312612E-008  0.4614232E+02  0.7816164E-02  0.1320468E+00
        -11   -1    0    0    0    0  0.00000000000E+00  0.00000000000E+00  0.45593999997E+02  0.45594000000E+02  0.51100000000E-03 0.  1.
         11   -1    0    0    0    0 -0.00000000000E+00 -0.00000000000E+00 -0.45593999997E+02  0.45594000000E+02  0.51100000000E-03 0. -1.
    9900012    2    1    2    0    0 -0.24408322021E+02 -0.12495057075E+02  0.35738227853E+02  0.46142316907E+02  0.99999922156E+01 0.  0.
         12    1    1    2    0    0  0.24408322021E+02  0.12495057075E+02 -0.35738227853E+02  0.45045683093E+02  0.00000000000E+00 0. -1.
         11    1    3    3    0    0 -0.15943386134E+01 -0.23581561923E+01  0.51702298198E+00  0.28931175687E+01  0.51100000000E-03 0. -1.
        -11    1    3    3    0    0 -0.81096776408E+01 -0.49695610757E+01  0.13610308517E+02  0.16604333980E+02  0.51100000000E-03 0.  1.
         12    1    3    3    0    0 -0.14704305767E+02 -0.51673398072E+01  0.21610896354E+02  0.26644865359E+02  0.00000000000E+00 0. -1.
</event>
<event>
 7    1  0.2312612E-008  0.4614232E+02  0.7816164E-02  0.1320468E+00
        -11   -1    0    0    0    0  0.00000000000E+00  0.00000000000E+00  0.45593999997E+02  0.45594000000E+02  0.51100000000E-03 0. -1.
         11   -1    0    0    0    0 -0.00000000000E+00 -0.00000000000E+00 -0.45593999997E+02  0.45594000000E+02  0.51100000000E-03 0.  1.
    9900012    2    1    2    0    0 -0.30151523821E+02 -0.33257901594E+02 -0.37297558975E+01  0.46142317785E+02  0.10000000217E+02 0.  0.
         12    1    1    2    0    0  0.30151523821E+02  0.33257901594E+02  0.37297558975E+01  0.45045682215E+02  0.00000000000E+00 0. -1.
         11    1    3    3    0    0 -0.73341905323E+01 -0.11004142716E+02 -0.12309770723E+01  0.13281446174E+02  0.51100000000E-03 0. -1.
        -11    1    3    3    0    0 -0.15554719086E+02 -0.19278799828E+02 -0.56494618088E+00  0.24777824221E+02  0.51100000000E-03 0.  1.
         12    1    3    3    0    0 -0.72626142026E+01 -0.29749590499E+01 -0.19338326444E+01  0.80830473895E+01  0.00000000000E+00 0. -1.
</event>
<event>
 7    1  0.2312612E-008  0.4614232E+02  0.7816164E-02  0.1320468E+00
        -11   -1    0    0    0    0  0.00000000000E+00  0.00000000000E+00  0.45593999997E+02  0.45594000000E+02  0.51100000000E-03 0.  1.
         11   -1    0    0    0    0 -0.00000000000E+00 -0.00000000000E+00 -0.45593999997E+02  0.45594000000E+02  0.51100000000E-03 0. -1.
    9900012    2    1    2    0    0 -0.88169300389E+01 -0.24270507501E+02  0.36909589527E+02  0.46142316648E+02  0.99999898460E+01 0.  0.
         12    1    1    2    0    0  0.88169300389E+01  0.24270507501E+02 -0.36909589527E+02  0.45045683352E+02  0.00000000000E+00 0. -1.
         11    1    3    3    0    0 -0.27204131684E+01 -0.14808739225E+02  0.20083558298E+02  0.25100771291E+02  0.51100000000E-03 0.  1.
        -11    1    3    3    0    0 -0.32779141149E+01 -0.51825657739E+01  0.13774107766E+02  0.15077458472E+02  0.51100000000E-03 0. -1.
         12    1    3    3    0    0 -0.28186027555E+01 -0.42792025021E+01  0.30519234618E+01  0.59640868843E+01  0.00000000000E+00 0. -1.
</event>
<event>
 7    1  0.2312612E-008  0.4614232E+02  0.7816164E-02  0.1320468E+00
        -11   -1    0    0    0    0  0.00000000000E+00  0.00000000000E+00  0.45593999997E+02  0.45594000000E+02  0.51100000000E-03 0.  1.
         11   -1    0    0    0    0 -0.00000000000E+00 -0.00000000000E+00 -0.45593999997E+02  0.45594000000E+02  0.51100000000E-03 0. -1.
    9900012    2    1    2    0    0  0.21952046995E+02 -0.71292735388E+01  0.38683255839E+02  0.46142321065E+02  0.10000030123E+02 0.  0.
         12    1    1    2    0    0 -0.21952046995E+02  0.71292735388E+01 -0.38683255839E+02  0.45045678935E+02  0.00000000000E+00 0. -1.
         11    1    3    3    0    0 -0.11139054997E+00 -0.10470604721E+01  0.53750275525E+01  0.54771949881E+01  0.51100000000E-03 0. -1.
        -11    1    3    3    0    0  0.72211907090E+01 -0.26663607595E+01  0.14919113736E+02  0.16787942991E+02  0.51100000000E-03 0.  1.
        -12    1    3    3    0    0  0.14842246836E+02 -0.34158523073E+01  0.18389114551E+02  0.23877183085E+02  0.00000000000E+00 0.  1.
</event>
<event>
 7    1  0.2312612E-008  0.4614232E+02  0.7816164E-02  0.1320468E+00
        -11   -1    0    0    0    0  0.00000000000E+00  0.00000000000E+00  0.45593999997E+02  0.45594000000E+02  0.51100000000E-03 0.  1.
         11   -1    0    0    0    0 -0.00000000000E+00 -0.00000000000E+00 -0.45593999997E+02  0.45594000000E+02  0.51100000000E-03 0. -1.
    9900012    2    1    2    0    0 -0.38395225530E+02 -0.13105027826E+02  0.19574943605E+02  0.46142317466E+02  0.99999973070E+01 0.  0.
         12    1    1    2    0    0  0.38395225530E+02  0.13105027826E+02 -0.19574943605E+02  0.45045682534E+02  0.00000000000E+00 0. -1.
         11    1    3    3    0    0 -0.93435318035E+01 -0.56812353767E+01  0.21184500717E+01  0.11138485217E+02  0.51100000000E-03 0. -1.
        -11    1    3    3    0    0 -0.11622632016E+02 -0.16854545709E+01  0.46692623119E+01  0.12638367889E+02  0.51100000000E-03 0.  1.
         12    1    3    3    0    0 -0.17429061710E+02 -0.57383378783E+01  0.12787231221E+02  0.22365464360E+02  0.00000000000E+00 0. -1.
</event>
<event>
 7    1  0.2312612E-008  0.4614232E+02  0.7816164E-02  0.1320468E+00
        -11   -1    0    0    0    0  0.00000000000E+00  0.00000000000E+00  0.45593999997E+02  0.45594000000E+02  0.51100000000E-03 0.  1.
         11   -1    0    0    0    0 -0.00000000000E+00 -0.00000000000E+00 -0.45593999997E+02  0.45594000000E+02  0.51100000000E-03 0. -1.
    9900012    2    1    2    0    0  0.62976255340E+00  0.28364126156E+02  0.34988473252E+02  0.46142317477E+02  0.99999974062E+01 0.  0.
         12    1    1    2    0    0 -0.62976255340E+00 -0.28364126156E+02 -0.34988473252E+02  0.45045682523E+02  0.00000000000E+00 0. -1.
         11    1    3    3    0    0  0.52523629203E+00  0.20583664449E+02  0.28992316794E+02  0.35560055521E+02  0.51100000000E-03 0. -1.
        -11    1    3    3    0    0 -0.16944096423E+01  0.19976735929E+01  0.23098118959E+01  0.34924139324E+01  0.51100000000E-03 0.  1.
         12    1    3    3    0    0  0.17989359037E+01  0.57827881143E+01  0.36863445620E+01  0.70898480231E+01  0.00000000000E+00 0. -1.
</event>
<event>
 7    1  0.2312612E-008  0.4614232E+02  0.7816164E-02  0.1320468E+00
        -11   -1    0    0    0    0  0.00000000000E+00  0.00000000000E+00  0.45593999997E+02  0.45594000000E+02  0.51100000000E-03 0.  1.
         11   -1    0    0    0    0 -0.00000000000E+00 -0.00000000000E+00 -0.45593999997E+02  0.45594000000E+02  0.51100000000E-03 0. -1.
    9900012    2    1    2    0    0 -0.31409317480E+02  0.31597067310E+02 -0.66478276461E+01  0.46142317637E+02  0.99999988687E+01 0.  0.
         12    1    1    2    0    0  0.31409317480E+02 -0.31597067310E+02  0.66478276461E+01  0.45045682363E+02  0.00000000000E+00 0. -1.
         11    1    3    3    0    0 -0.13085533610E+02  0.11930017629E+02 -0.41721092779E+01  0.18192388699E+02  0.51100000000E-03 0. -1.
        -11    1    3    3    0    0 -0.15181717111E+02  0.11390717077E+02 -0.19914658771E+01  0.19083996085E+02  0.51100000000E-03 0.  1.
         12    1    3    3    0    0 -0.31420667590E+01  0.82763326033E+01 -0.48425249107E+00  0.88659328529E+01  0.00000000000E+00 0. -1.
</event>
<event>
 7    1  0.2312612E-008  0.4614232E+02  0.7816164E-02  0.1320468E+00
        -11   -1    0    0    0    0  0.00000000000E+00  0.00000000000E+00  0.45593999997E+02  0.45594000000E+02  0.51100000000E-03 0.  1.
         11   -1    0    0    0    0 -0.00000000000E+00 -0.00000000000E+00 -0.45593999997E+02  0.45594000000E+02  0.51100000000E-03 0. -1.
    9900012    2    1    2    0    0 -0.18188711328E+02 -0.17067581012E+02  0.37509757568E+02  0.46142318141E+02  0.10000003461E+02 0.  0.
         12    1    1    2    0    0  0.18188711328E+02  0.17067581012E+02 -0.37509757568E+02  0.45045681859E+02  0.00000000000E+00 0. -1.
         11    1    3    3    0    0 -0.35877649554E+00  0.67201542024E+00 -0.25495599442E-01  0.76221754474E+00  0.51100000000E-03 0. -1.
        -11    1    3    3    0    0 -0.67142041956E+01 -0.41045608163E+01  0.10410621393E+02  0.13050248868E+02  0.51100000000E-03 0.  1.
        -12    1    3    3    0    0 -0.11115730637E+02 -0.13635035616E+02  0.27124631774E+02  0.32329851728E+02  0.00000000000E+00 0.  1.
</event>
<event>
 7    1  0.2312612E-008  0.4614232E+02  0.7816164E-02  0.1320468E+00
        -11   -1    0    0    0    0  0.00000000000E+00  0.00000000000E+00  0.45593999997E+02  0.45594000000E+02  0.51100000000E-03 0.  1.
         11   -1    0    0    0    0 -0.00000000000E+00 -0.00000000000E+00 -0.45593999997E+02  0.45594000000E+02  0.51100000000E-03 0. -1.
    9900012    2    1    2    0    0 -0.36293856531E+01 -0.29093197633E+02  0.34198346805E+02  0.46142317489E+02  0.99999975143E+01 0.  0.
         12    1    1    2    0    0  0.36293856531E+01  0.29093197633E+02 -0.34198346805E+02  0.45045682511E+02  0.00000000000E+00 0. -1.
         11    1    3    3    0    0  0.21965513129E+01 -0.71298827619E+01  0.10330054418E+02  0.12742452292E+02  0.51100000000E-03 0. -1.
        -11    1    3    3    0    0 -0.69150298045E+00 -0.12811510546E+02  0.14093649078E+02  0.19058959138E+02  0.51100000000E-03 0.  1.
         12    1    3    3    0    0 -0.51344339856E+01 -0.91518043247E+01  0.97746433092E+01  0.14340906058E+02  0.00000000000E+00 0. -1.
</event>
<event>
 7    1  0.2312612E-008  0.4614232E+02  0.7816164E-02  0.1320468E+00
        -11   -1    0    0    0    0  0.00000000000E+00  0.00000000000E+00  0.45593999997E+02  0.45594000000E+02  0.51100000000E-03 0.  1.
         11   -1    0    0    0    0 -0.00000000000E+00 -0.00000000000E+00 -0.45593999997E+02  0.45594000000E+02  0.51100000000E-03 0. -1.
    9900012    2    1    2    0    0 -0.30776702799E+02 -0.22985009216E+02  0.23528651443E+02  0.46142317382E+02  0.99999965403E+01 0.  0.
         12    1    1    2    0    0  0.30776702799E+02  0.22985009216E+02 -0.23528651443E+02  0.45045682618E+02  0.00000000000E+00 0. -1.
         11    1    3    3    0    0 -0.71982396484E+01 -0.38863971056E+01  0.92299985756E+01  0.12333353577E+02  0.51100000000E-03 0. -1.
        -11    1    3    3    0    0 -0.21396450755E+02 -0.17537445378E+02  0.14263303822E+02  0.31125743871E+02  0.51100000000E-03 0.  1.
         12    1    3    3    0    0 -0.21820123952E+01 -0.15611667321E+01  0.35349045415E-01  0.26832199338E+01  0.00000000000E+00 0. -1.
</event>
<event>
 7    1  0.2312612E-008  0.4614232E+02  0.7816164E-02  0.1320468E+00
        -11   -1    0    0    0    0  0.00000000000E+00  0.00000000000E+00  0.45593999997E+02  0.45594000000E+02  0.51100000000E-03 0.  1.
         11   -1    0    0    0    0 -0.00000000000E+00 -0.00000000000E+00 -0.45593999997E+02  0.45594000000E+02  0.51100000000E-03 0. -1.
    9900012    2    1    2    0    0  0.69970214547E+01  0.19258722597E+02  0.40115542814E+02  0.46142317848E+02  0.10000000795E+02 0.  0.
         12    1    1    2    0    0 -0.69970214547E+01 -0.19258722597E+02 -0.40115542814E+02  0.45045682152E+02  0.00000000000E+00 0. -1.
         11    1    3    3    0    0  0.48391036079E+01  0.68410291665E+01  0.12406917519E+02  0.14971579956E+02  0.51100000000E-03 0. -1.
        -11    1    3    3    0    0  0.33178514120E+01  0.11750098789E+02  0.20675751206E+02  0.24011656497E+02  0.51100000000E-03 0.  1.
         12    1    3    3    0    0 -0.11599335652E+01  0.66759464096E+00  0.70328740881E+01  0.71590813949E+01  0.00000000000E+00 0. -1.
</event>
<event>
 7    1  0.2312612E-008  0.4614232E+02  0.7816164E-02  0.1320468E+00
        -11   -1    0    0    0    0  0.00000000000E+00  0.00000000000E+00  0.45593999997E+02  0.45594000000E+02  0.51100000000E-03 0.  1.
         11   -1    0    0    0    0 -0.00000000000E+00 -0.00000000000E+00 -0.45593999997E+02  0.45594000000E+02  0.51100000000E-03 0. -1.
    9900012    2    1    2    0    0 -0.98795110589E+00  0.43757648660E+02 -0.10649206239E+02  0.46142318107E+02  0.10000003155E+02 0.  0.
         12    1    1    2    0    0  0.98795110589E+00 -0.43757648660E+02  0.10649206239E+02  0.45045681893E+02  0.00000000000E+00 0. -1.
         11    1    3    3    0    0  0.17675731039E+01  0.12213416473E+02 -0.56880090025E+01  0.13588425342E+02  0.51100000000E-03 0. -1.
        -11    1    3    3    0    0 -0.35849862406E+01  0.13381068340E+02 -0.36435032715E+01  0.14324113677E+02  0.51100000000E-03 0.  1.
        -12    1    3    3    0    0  0.82946203081E+00  0.18163163848E+02 -0.13176939650E+01  0.18229779088E+02  0.00000000000E+00 0.  1.
</event>
<event>
 7    1  0.2312612E-008  0.4614232E+02  0.7816164E-02  0.1320468E+00
        -11   -1    0    0    0    0  0.00000000000E+00  0.00000000000E+00  0.45593999997E+02  0.45594000000E+02  0.51100000000E-03 0.  1.
         11   -1    0    0    0    0 -0.00000000000E+00 -0.00000000000E+00 -0.45593999997E+02  0.45594000000E+02  0.51100000000E-03 0. -1.
    9900012    2    1    2    0    0  0.42793404471E+02 -0.83080913668E+01  0.11349610012E+02  0.46142317678E+02  0.99999992427E+01 0.  0.
         12    1    1    2    0    0 -0.42793404471E+02  0.83080913668E+01 -0.11349610012E+02  0.45045682322E+02  0.00000000000E+00 0. -1.
         11    1    3    3    0    0  0.16313975694E+02 -0.30198889332E+01  0.19779108903E+01  0.16708610471E+02  0.51100000000E-03 0. -1.
        -11    1    3    3    0    0  0.31124979538E+01  0.15648477010E+01  0.51314849943E+00  0.35213226894E+01  0.51100000000E-03 0.  1.
        -12    1    3    3    0    0  0.23366930823E+02 -0.68530501346E+01  0.88585506225E+01  0.25912384518E+02  0.00000000000E+00 0.  1.
</event>
<event>
 7    1  0.2312612E-008  0.4614232E+02  0.7816164E-02  0.1320468E+00
        -11   -1    0    0    0    0  0.00000000000E+00  0.00000000000E+00  0.45593999997E+02  0.45594000000E+02  0.51100000000E-03 0.  1.
         11   -1    0    0    0    0 -0.00000000000E+00 -0.00000000000E+00 -0.45593999997E+02  0.45594000000E+02  0.51100000000E-03 0. -1.
    9900012    2    1    2    0    0  0.28745988087E+02 -0.21917629257E+01  0.34611816757E+02  0.46142317465E+02  0.99999973013E+01 0.  0.
         12    1    1    2    0    0 -0.28745988087E+02  0.21917629257E+01 -0.34611816757E+02  0.45045682535E+02  0.00000000000E+00 0. -1.
         11    1    3    3    0    0  0.65678268967E+00  0.11149912491E+00 -0.14296970689E+00  0.68134877597E+00  0.51100000000E-03 0.  1.
        -11    1    3    3    0    0  0.11742413727E+02 -0.33439437292E+01  0.19908526646E+02  0.23354136106E+02  0.51100000000E-03 0. -1.
        -12    1    3    3    0    0  0.16346791670E+02  0.10406816786E+01  0.14846259818E+02  0.22106832583E+02  0.00000000000E+00 0.  1.
</event>
<event>
 7    1  0.2312612E-008  0.4614232E+02  0.7816164E-02  0.1320468E+00
        -11   -1    0    0    0    0  0.00000000000E+00  0.00000000000E+00  0.45593999997E+02  0.45594000000E+02  0.51100000000E-03 0. -1.
         11   -1    0    0    0    0 -0.00000000000E+00 -0.00000000000E+00 -0.45593999997E+02  0.45594000000E+02  0.51100000000E-03 0.  1.
    9900012    2    1    2    0    0 -0.39275738462E+02  0.18326631335E+02  0.12274543501E+02  0.46142318010E+02  0.10000002266E+02 0.  0.
         12    1    1    2    0    0  0.39275738462E+02 -0.18326631335E+02 -0.12274543501E+02  0.45045681990E+02  0.00000000000E+00 0. -1.
         11    1    3    3    0    0 -0.82528276335E+01  0.78848601481E+00  0.13104019336E+01  0.83933323318E+01  0.51100000000E-03 0. -1.
        -11    1    3    3    0    0 -0.25160131320E+02  0.13431178918E+02  0.63086100377E+01  0.29210055392E+02  0.51100000000E-03 0.  1.
         12    1    3    3    0    0 -0.58627795088E+01  0.41069664021E+01  0.46555315293E+01  0.85389302853E+01  0.00000000000E+00 0. -1.
</event>
<event>
 7    1  0.2312612E-008  0.4614232E+02  0.7816164E-02  0.1320468E+00
        -11   -1    0    0    0    0  0.00000000000E+00  0.00000000000E+00  0.45593999997E+02  0.45594000000E+02  0.51100000000E-03 0. -1.
         11   -1    0    0    0    0 -0.00000000000E+00 -0.00000000000E+00 -0.45593999997E+02  0.45594000000E+02  0.51100000000E-03 0.  1.
    9900012    2    1    2    0    0 -0.26860529800E+02  0.31947086234E+02 -0.16941342349E+02  0.46142318069E+02  0.10000002811E+02 0.  0.
         12    1    1    2    0    0  0.26860529800E+02 -0.31947086234E+02  0.16941342349E+02  0.45045681931E+02  0.00000000000E+00 0. -1.
         11    1    3    3    0    0 -0.10075368579E+02  0.13401762860E+02 -0.91756213806E+01  0.19113145418E+02  0.51100000000E-03 0. -1.
        -11    1    3    3    0    0 -0.12116747047E+02  0.17125114225E+02 -0.68179571364E+01  0.22058323508E+02  0.51100000000E-03 0.  1.
         12    1    3    3    0    0 -0.46684141742E+01  0.14202091491E+01 -0.94776383214E+00  0.49708491438E+01  0.00000000000E+00 0. -1.
</event>
<event>
 7    1  0.2312612E-008  0.4614232E+02  0.7816164E-02  0.1320468E+00
        -11   -1    0    0    0    0  0.00000000000E+00  0.00000000000E+00  0.45593999997E+02  0.45594000000E+02  0.51100000000E-03 0.  1.
         11   -1    0    0    0    0 -0.00000000000E+00 -0.00000000000E+00 -0.45593999997E+02  0.45594000000E+02  0.51100000000E-03 0. -1.
    9900012    2    1    2    0    0  0.68999757914E+01 -0.34288166537E+02 -0.28387064337E+02  0.46142318164E+02  0.10000003678E+02 0.  0.
         12    1    1    2    0    0 -0.68999757914E+01  0.34288166537E+02  0.28387064337E+02  0.45045681836E+02  0.00000000000E+00 0. -1.
         11    1    3    3    0    0  0.22469318504E+01 -0.15009403390E+02 -0.92170465038E+01  0.17756261977E+02  0.51100000000E-03 0. -1.
        -11    1    3    3    0    0  0.29989543121E+01 -0.18914118855E+02 -0.16813385789E+02  0.25483868642E+02  0.51100000000E-03 0.  1.
         12    1    3    3    0    0  0.16540896289E+01 -0.36464429176E+00 -0.23566320440E+01  0.29021875458E+01  0.00000000000E+00 0. -1.
</event>
<event>
 7    1  0.2312612E-008  0.4614232E+02  0.7816164E-02  0.1320468E+00
        -11   -1    0    0    0    0  0.00000000000E+00  0.00000000000E+00  0.45593999997E+02  0.45594000000E+02  0.51100000000E-03 0.  1.
         11   -1    0    0    0    0 -0.00000000000E+00 -0.00000000000E+00 -0.45593999997E+02  0.45594000000E+02  0.51100000000E-03 0. -1.
    9900012    2    1    2    0    0  0.38832595444E+02 -0.15610077048E+02  0.16657389693E+02  0.46142316458E+02  0.99999881173E+01 0.  0.
         12    1    1    2    0    0 -0.38832595444E+02  0.15610077048E+02 -0.16657389693E+02  0.45045683542E+02  0.00000000000E+00 0. -1.
         11    1    3    3    0    0  0.35969503788E+01 -0.33247943729E+01 -0.40169807637E+00  0.49146384664E+01  0.51100000000E-03 0. -1.
        -11    1    3    3    0    0  0.10892664924E+02 -0.33251381267E+01  0.32611386017E+01  0.11846590984E+02  0.51100000000E-03 0.  1.
         12    1    3    3    0    0  0.24342980141E+02 -0.89601445484E+01  0.13797949168E+02  0.29381087007E+02  0.00000000000E+00 0. -1.
</event>
<event>
 7    1  0.2312612E-008  0.4614232E+02  0.7816164E-02  0.1320468E+00
        -11   -1    0    0    0    0  0.00000000000E+00  0.00000000000E+00  0.45593999997E+02  0.45594000000E+02  0.51100000000E-03 0. -1.
         11   -1    0    0    0    0 -0.00000000000E+00 -0.00000000000E+00 -0.45593999997E+02  0.45594000000E+02  0.51100000000E-03 0.  1.
    9900012    2    1    2    0    0 -0.26725195405E+02  0.20269773227E+02 -0.30066821450E+02  0.46142317318E+02  0.99999959617E+01 0.  0.
         12    1    1    2    0    0  0.26725195405E+02 -0.20269773227E+02  0.30066821450E+02  0.45045682682E+02  0.00000000000E+00 0. -1.
         11    1    3    3    0    0 -0.10545393507E+02  0.56116411538E+01 -0.68639778153E+01  0.13777156178E+02  0.51100000000E-03 0. -1.
        -11    1    3    3    0    0 -0.68346039819E+01  0.63277639721E+01 -0.59632996283E+01  0.11059536663E+02  0.51100000000E-03 0.  1.
        -12    1    3    3    0    0 -0.93451979167E+01  0.83303681015E+01 -0.17239544007E+02  0.21305624477E+02  0.00000000000E+00 0.  1.
</event>
<event>
 7    1  0.2312612E-008  0.4614232E+02  0.7816164E-02  0.1320468E+00
        -11   -1    0    0    0    0  0.00000000000E+00  0.00000000000E+00  0.45593999997E+02  0.45594000000E+02  0.51100000000E-03 0. -1.
         11   -1    0    0    0    0 -0.00000000000E+00 -0.00000000000E+00 -0.45593999997E+02  0.45594000000E+02  0.51100000000E-03 0.  1.
    9900012    2    1    2    0    0  0.23664769462E+02 -0.24689524018E+02 -0.29317564935E+02  0.46142317369E+02  0.99999964288E+01 0.  0.
         12    1    1    2    0    0 -0.23664769462E+02  0.24689524018E+02  0.29317564935E+02  0.45045682631E+02  0.00000000000E+00 0. -1.
         11    1    3    3    0    0  0.10627982995E+01 -0.10929980096E+01  0.68244012035E+00  0.16703022641E+01  0.51100000000E-03 0. -1.
        -11    1    3    3    0    0  0.53576941164E+01 -0.51324614494E+01 -0.86381430649E+01  0.11387034849E+02  0.51100000000E-03 0.  1.
         12    1    3    3    0    0  0.17244277046E+02 -0.18464064559E+02 -0.21361861990E+02  0.33084980257E+02  0.00000000000E+00 0. -1.
</event>
<event>
 7    1  0.2312612E-008  0.4614232E+02  0.7816164E-02  0.1320468E+00
        -11   -1    0    0    0    0  0.00000000000E+00  0.00000000000E+00  0.45593999997E+02  0.45594000000E+02  0.51100000000E-03 0.  1.
         11   -1    0    0    0    0 -0.00000000000E+00 -0.00000000000E+00 -0.45593999997E+02  0.45594000000E+02  0.51100000000E-03 0. -1.
    9900012    2    1    2    0    0  0.30215552527E+01  0.29850922140E+02  0.33599197943E+02  0.46142318174E+02  0.10000003764E+02 0.  0.
         12    1    1    2    0    0 -0.30215552527E+01 -0.29850922140E+02 -0.33599197943E+02  0.45045681826E+02  0.00000000000E+00 0. -1.
         11    1    3    3    0    0  0.12190539297E+01  0.32601264678E+01  0.20179909690E+01  0.40232828488E+01  0.51100000000E-03 0. -1.
        -11    1    3    3    0    0  0.10673050938E+01  0.13506079992E+02  0.98815217494E+01  0.16768953732E+02  0.51100000000E-03 0.  1.
         12    1    3    3    0    0  0.73519622923E+00  0.13084715680E+02  0.21699685225E+02  0.25350081593E+02  0.00000000000E+00 0. -1.
</event>
<event>
 7    1  0.2312612E-008  0.4614232E+02  0.7816164E-02  0.1320468E+00
        -11   -1    0    0    0    0  0.00000000000E+00  0.00000000000E+00  0.45593999997E+02  0.45594000000E+02  0.51100000000E-03 0. -1.
         11   -1    0    0    0    0 -0.00000000000E+00 -0.00000000000E+00 -0.45593999997E+02  0.45594000000E+02  0.51100000000E-03 0.  1.
    9900012    2    1    2    0    0 -0.29650774425E+02 -0.18586736681E+02 -0.28363326417E+02  0.46142317744E+02  0.99999998460E+01 0.  0.
         12    1    1    2    0    0  0.29650774425E+02  0.18586736681E+02  0.28363326417E+02  0.45045682256E+02  0.00000000000E+00 0. -1.
         11    1    3    3    0    0 -0.54946444338E+01 -0.46708970926E+01 -0.18906408477E+01  0.74553953738E+01  0.51100000000E-03 0. -1.
        -11    1    3    3    0    0 -0.12961973550E+02 -0.90143704704E+01 -0.17194515526E+02  0.23343585794E+02  0.51100000000E-03 0.  1.
         12    1    3    3    0    0 -0.11194156441E+02 -0.49014691180E+01 -0.92781700436E+01  0.15343336576E+02  0.00000000000E+00 0. -1.
</event>
<event>
 7    1  0.2312612E-008  0.4614232E+02  0.7816164E-02  0.1320468E+00
        -11   -1    0    0    0    0  0.00000000000E+00  0.00000000000E+00  0.45593999997E+02  0.45594000000E+02  0.51100000000E-03 0. -1.
         11   -1    0    0    0    0 -0.00000000000E+00 -0.00000000000E+00 -0.45593999997E+02  0.45594000000E+02  0.51100000000E-03 0.  1.
    9900012    2    1    2    0    0  0.42987005220E+02 -0.77459052321E+01 -0.11010523697E+02  0.46142319877E+02  0.10000019295E+02 0.  0.
         12    1    1    2    0    0 -0.42987005220E+02  0.77459052321E+01  0.11010523697E+02  0.45045680123E+02  0.00000000000E+00 0. -1.
         11    1    3    3    0    0  0.12805199239E+02 -0.17105763232E+01 -0.75443023682E+01  0.14960471162E+02  0.51100000000E-03 0.  1.
        -11    1    3    3    0    0  0.47115163054E+01 -0.29014745811E+00  0.59462128938E+00  0.47577459141E+01  0.51100000000E-03 0. -1.
        -12    1    3    3    0    0  0.25470289676E+02 -0.57451814507E+01 -0.40608426178E+01  0.26424102801E+02  0.00000000000E+00 0.  1.
</event>
<event>
 7    1  0.2312612E-008  0.4614232E+02  0.7816164E-02  0.1320468E+00
        -11   -1    0    0    0    0  0.00000000000E+00  0.00000000000E+00  0.45593999997E+02  0.45594000000E+02  0.51100000000E-03 0.  1.
         11   -1    0    0    0    0 -0.00000000000E+00 -0.00000000000E+00 -0.45593999997E+02  0.45594000000E+02  0.51100000000E-03 0. -1.
    9900012    2    1    2    0    0  0.12842704501E+02  0.40070424314E+02  0.16079163578E+02  0.46142318020E+02  0.10000002365E+02 0.  0.
         12    1    1    2    0    0 -0.12842704501E+02 -0.40070424314E+02 -0.16079163578E+02  0.45045681980E+02  0.00000000000E+00 0. -1.
         11    1    3    3    0    0  0.63626908343E+01  0.77774107564E+01  0.24093053483E+01  0.10333281437E+02  0.51100000000E-03 0. -1.
        -11    1    3    3    0    0  0.17155248129E+01  0.13836521364E+02  0.71069724540E+01  0.15649326074E+02  0.51100000000E-03 0.  1.
         12    1    3    3    0    0  0.47644888539E+01  0.18456492194E+02  0.65628857757E+01  0.20159710510E+02  0.00000000000E+00 0. -1.
</event>
<event>
 7    1  0.2312612E-008  0.4614232E+02  0.7816164E-02  0.1320468E+00
        -11   -1    0    0    0    0  0.00000000000E+00  0.00000000000E+00  0.45593999997E+02  0.45594000000E+02  0.51100000000E-03 0.  1.
         11   -1    0    0    0    0 -0.00000000000E+00 -0.00000000000E+00 -0.45593999997E+02  0.45594000000E+02  0.51100000000E-03 0. -1.
    9900012    2    1    2    0    0  0.36529180246E+02  0.25685580166E+02 -0.59146838503E+01  0.46142317377E+02  0.99999964975E+01 0.  0.
         12    1    1    2    0    0 -0.36529180246E+02 -0.25685580166E+02  0.59146838503E+01  0.45045682623E+02  0.00000000000E+00 0. -1.
         11    1    3    3    0    0  0.27578868148E+01  0.24518311846E+01 -0.15782587452E+01  0.40135167583E+01  0.51100000000E-03 0. -1.
        -11    1    3    3    0    0  0.26893095322E+02  0.17583137499E+02  0.21346846663E+00  0.32131773517E+02  0.51100000000E-03 0.  1.
        -12    1    3    3    0    0  0.68781981095E+01  0.56506114831E+01 -0.45498935718E+01  0.99970271021E+01  0.00000000000E+00 0.  1.
</event>
<event>
 7    1  0.2312612E-008  0.4614232E+02  0.7816164E-02  0.1320468E+00
        -11   -1    0    0    0    0  0.00000000000E+00  0.00000000000E+00  0.45593999997E+02  0.45594000000E+02  0.51100000000E-03 0.  1.
         11   -1    0    0    0    0 -0.00000000000E+00 -0.00000000000E+00 -0.45593999997E+02  0.45594000000E+02  0.51100000000E-03 0. -1.
    9900012    2    1    2    0    0  0.32375142417E+02 -0.23706442077E+02  0.20468715718E+02  0.46142316904E+02  0.99999921817E+01 0.  0.
         12    1    1    2    0    0 -0.32375142417E+02  0.23706442077E+02 -0.20468715718E+02  0.45045683096E+02  0.00000000000E+00 0. -1.
         11    1    3    3    0    0  0.55695577917E-01  0.37799685608E+00  0.21023944430E+00  0.43610148551E+00  0.51100000000E-03 0. -1.
        -11    1    3    3    0    0  0.26157395191E+02 -0.16348934256E+02  0.13179495203E+02  0.33543942352E+02  0.51100000000E-03 0.  1.
         12    1    3    3    0    0  0.61620516481E+01 -0.77355046778E+01  0.70789810709E+01  0.12162273066E+02  0.00000000000E+00 0. -1.
</event>
<event>
 7    1  0.2312612E-008  0.4614232E+02  0.7816164E-02  0.1320468E+00
        -11   -1    0    0    0    0  0.00000000000E+00  0.00000000000E+00  0.45593999997E+02  0.45594000000E+02  0.51100000000E-03 0.  1.
         11   -1    0    0    0    0 -0.00000000000E+00 -0.00000000000E+00 -0.45593999997E+02  0.45594000000E+02  0.51100000000E-03 0. -1.
    9900012    2    1    2    0    0  0.15862186345E+02 -0.20288975829E+02  0.36957570199E+02  0.46142317734E+02  0.99999997522E+01 0.  0.
         12    1    1    2    0    0 -0.15862186345E+02  0.20288975829E+02 -0.36957570199E+02  0.45045682266E+02  0.00000000000E+00 0. -1.
         11    1    3    3    0    0  0.62148853081E+01 -0.95390534515E+01  0.93818418507E+01  0.14752535271E+02  0.51100000000E-03 0. -1.
        -11    1    3    3    0    0  0.85035306259E+01 -0.10780925429E+02  0.26350193574E+02  0.29713146717E+02  0.51100000000E-03 0.  1.
         12    1    3    3    0    0  0.11437704106E+01  0.31003051381E-01  0.12255347743E+01  0.16766357459E+01  0.00000000000E+00 0. -1.
</event>
<event>
 7    1  0.2312612E-008  0.4614232E+02  0.7816164E-02  0.1320468E+00
        -11   -1    0    0    0    0  0.00000000000E+00  0.00000000000E+00  0.45593999997E+02  0.45594000000E+02  0.51100000000E-03 0.  1.
         11   -1    0    0    0    0 -0.00000000000E+00 -0.00000000000E+00 -0.45593999997E+02  0.45594000000E+02  0.51100000000E-03 0. -1.
    9900012    2    1    2    0    0 -0.95089893415E+00 -0.37911535636E+02  0.24308943220E+02  0.46142318037E+02  0.10000002512E+02 0.  0.
         12    1    1    2    0    0  0.95089893415E+00  0.37911535636E+02 -0.24308943220E+02  0.45045681963E+02  0.00000000000E+00 0. -1.
         11    1    3    3    0    0 -0.50665701874E+00 -0.24985985592E+02  0.11356028749E+02  0.27450238005E+02  0.51100000000E-03 0. -1.
        -11    1    3    3    0    0  0.31683088732E-01 -0.11251825383E+02  0.91238255437E+01  0.14486157913E+02  0.51100000000E-03 0.  1.
        -12    1    3    3    0    0 -0.47592500414E+00 -0.16737246608E+01  0.38290889275E+01  0.42059221182E+01  0.00000000000E+00 0.  1.
</event>
<event>
 7    1  0.2312612E-008  0.4614232E+02  0.7816164E-02  0.1320468E+00
        -11   -1    0    0    0    0  0.00000000000E+00  0.00000000000E+00  0.45593999997E+02  0.45594000000E+02  0.51100000000E-03 0. -1.
         11   -1    0    0    0    0 -0.00000000000E+00 -0.00000000000E+00 -0.45593999997E+02  0.45594000000E+02  0.51100000000E-03 0.  1.
    9900012    2    1    2    0    0 -0.31040907441E+02  0.30472096880E+02  0.11705846270E+02  0.46142318077E+02  0.10000002877E+02 0.  0.
         12    1    1    2    0    0  0.31040907441E+02 -0.30472096880E+02 -0.11705846270E+02  0.45045681923E+02  0.00000000000E+00 0. -1.
         11    1    3    3    0    0 -0.10036833488E+02  0.12707494435E+02  0.12294145641E+01  0.16239762982E+02  0.51100000000E-03 0. -1.
        -11    1    3    3    0    0 -0.10802790132E+02  0.92122139271E+01  0.25956063784E+01  0.14432682800E+02  0.51100000000E-03 0.  1.
        -12    1    3    3    0    0 -0.10201283820E+02  0.85523885183E+01  0.78808253280E+01  0.15469872294E+02  0.00000000000E+00 0.  1.
</event>
<event>
 7    1  0.2312612E-008  0.4614232E+02  0.7816164E-02  0.1320468E+00
        -11   -1    0    0    0    0  0.00000000000E+00  0.00000000000E+00  0.45593999997E+02  0.45594000000E+02  0.51100000000E-03 0. -1.
         11   -1    0    0    0    0 -0.00000000000E+00 -0.00000000000E+00 -0.45593999997E+02  0.45594000000E+02  0.51100000000E-03 0.  1.
    9900012    2    1    2    0    0  0.20955633839E+02  0.37827953812E+02  0.12610351527E+02  0.46142316024E+02  0.99999841612E+01 0.  0.
         12    1    1    2    0    0 -0.20955633839E+02 -0.37827953812E+02 -0.12610351527E+02  0.45045683976E+02  0.00000000000E+00 0. -1.
         11    1    3    3    0    0  0.47266922821E+01  0.12208859037E+02  0.27361737672E+01  0.13374771253E+02  0.51100000000E-03 0. -1.
        -11    1    3    3    0    0  0.37882669373E+01  0.12487684202E+02  0.54740906898E+01  0.14151285887E+02  0.51100000000E-03 0.  1.
         12    1    3    3    0    0  0.12440674619E+02  0.13131410574E+02  0.44000870701E+01  0.18616258885E+02  0.00000000000E+00 0. -1.
</event>
<event>
 7    1  0.2312612E-008  0.4614232E+02  0.7816164E-02  0.1320468E+00
        -11   -1    0    0    0    0  0.00000000000E+00  0.00000000000E+00  0.45593999997E+02  0.45594000000E+02  0.51100000000E-03 0.  1.
         11   -1    0    0    0    0 -0.00000000000E+00 -0.00000000000E+00 -0.45593999997E+02  0.45594000000E+02  0.51100000000E-03 0. -1.
    9900012    2    1    2    0    0 -0.43938632103E+02 -0.81560736154E+01  0.56558612079E+01  0.46142315479E+02  0.99999791924E+01 0.  0.
         12    1    1    2    0    0  0.43938632103E+02  0.81560736154E+01 -0.56558612079E+01  0.45045684521E+02  0.00000000000E+00 0. -1.
         11    1    3    3    0    0 -0.22726759630E+02 -0.41778756190E+01  0.72688804342E+01  0.24223890501E+02  0.51100000000E-03 0.  1.
        -11    1    3    3    0    0 -0.52890544453E+01 -0.25244414979E+01 -0.14933464386E+00  0.58625253005E+01  0.51100000000E-03 0. -1.
        -12    1    3    3    0    0 -0.15922818028E+02 -0.14537564985E+01 -0.14636845824E+01  0.16055899678E+02  0.00000000000E+00 0.  1.
</event>
<event>
 7    1  0.2312612E-008  0.4614232E+02  0.7816164E-02  0.1320468E+00
        -11   -1    0    0    0    0  0.00000000000E+00  0.00000000000E+00  0.45593999997E+02  0.45594000000E+02  0.51100000000E-03 0.  1.
         11   -1    0    0    0    0 -0.00000000000E+00 -0.00000000000E+00 -0.45593999997E+02  0.45594000000E+02  0.51100000000E-03 0. -1.
    9900012    2    1    2    0    0 -0.12987489564E+02 -0.12104082800E+02  0.41399634861E+02  0.46142317940E+02  0.10000001633E+02 0.  0.
         12    1    1    2    0    0  0.12987489564E+02  0.12104082800E+02 -0.41399634861E+02  0.45045682060E+02  0.00000000000E+00 0. -1.
         11    1    3    3    0    0 -0.35134319507E+00  0.11400337857E+01  0.23822363262E+01  0.26642389624E+01  0.51100000000E-03 0. -1.
        -11    1    3    3    0    0 -0.34222879522E+01 -0.42728917248E+01  0.64287828189E+01  0.84438680304E+01  0.51100000000E-03 0.  1.
        -12    1    3    3    0    0 -0.92138584166E+01 -0.89712248605E+01  0.32588615716E+02  0.35034210947E+02  0.00000000000E+00 0.  1.
</event>
<event>
 7    1  0.2312612E-008  0.4614232E+02  0.7816164E-02  0.1320468E+00
        -11   -1    0    0    0    0  0.00000000000E+00  0.00000000000E+00  0.45593999997E+02  0.45594000000E+02  0.51100000000E-03 0. -1.
         11   -1    0    0    0    0 -0.00000000000E+00 -0.00000000000E+00 -0.45593999997E+02  0.45594000000E+02  0.51100000000E-03 0.  1.
    9900012    2    1    2    0    0  0.85486006686E+01  0.36218941395E+02  0.25381549826E+02  0.46142319178E+02  0.10000012924E+02 0.  0.
         12    1    1    2    0    0 -0.85486006686E+01 -0.36218941395E+02 -0.25381549826E+02  0.45045680822E+02  0.00000000000E+00 0. -1.
         11    1    3    3    0    0  0.70168858375E+01  0.20630667314E+02  0.17190495191E+02  0.27755616474E+02  0.51100000000E-03 0. -1.
        -11    1    3    3    0    0  0.11601202241E+01  0.15831838658E+02  0.74801593309E+01  0.17548383918E+02  0.51100000000E-03 0.  1.
         12    1    3    3    0    0  0.37159460701E+00 -0.24356457806E+00  0.71089530341E+00  0.83831878665E+00  0.00000000000E+00 0. -1.
</event>
<event>
 7    1  0.2312612E-008  0.4614232E+02  0.7816164E-02  0.1320468E+00
        -11   -1    0    0    0    0  0.00000000000E+00  0.00000000000E+00  0.45593999997E+02  0.45594000000E+02  0.51100000000E-03 0.  1.
         11   -1    0    0    0    0 -0.00000000000E+00 -0.00000000000E+00 -0.45593999997E+02  0.45594000000E+02  0.51100000000E-03 0. -1.
    9900012    2    1    2    0    0 -0.42377828859E+02  0.53012362392E+01  0.14322360841E+02  0.46142317582E+02  0.99999983656E+01 0.  0.
         12    1    1    2    0    0  0.42377828859E+02 -0.53012362392E+01 -0.14322360841E+02  0.45045682418E+02  0.00000000000E+00 0. -1.
         11    1    3    3    0    0 -0.80758312010E+01  0.26586177186E+01  0.55884410280E+01  0.10174378170E+02  0.51100000000E-03 0. -1.
        -11    1    3    3    0    0 -0.19381942709E+01 -0.25560765230E+00  0.19753150021E+01  0.27791728846E+01  0.51100000000E-03 0.  1.
         12    1    3    3    0    0 -0.32363803387E+02  0.28982261729E+01  0.67586048113E+01  0.33188766527E+02  0.00000000000E+00 0. -1.
</event>
<event>
 7    1  0.2312612E-008  0.4614232E+02  0.7816164E-02  0.1320468E+00
        -11   -1    0    0    0    0  0.00000000000E+00  0.00000000000E+00  0.45593999997E+02  0.45594000000E+02  0.51100000000E-03 0.  1.
         11   -1    0    0    0    0 -0.00000000000E+00 -0.00000000000E+00 -0.45593999997E+02  0.45594000000E+02  0.51100000000E-03 0. -1.
    9900012    2    1    2    0    0  0.29617983324E+02 -0.23315910509E+02  0.24662862261E+02  0.46142318809E+02  0.10000009558E+02 0.  0.
         12    1    1    2    0    0 -0.29617983324E+02  0.23315910509E+02 -0.24662862261E+02  0.45045681191E+02  0.00000000000E+00 0. -1.
         11    1    3    3    0    0  0.14209650636E+02 -0.10898693011E+02  0.88068010690E+01  0.19956337988E+02  0.51100000000E-03 0. -1.
        -11    1    3    3    0    0  0.14172603692E+02 -0.13055563888E+02  0.15551738913E+02  0.24762209662E+02  0.51100000000E-03 0.  1.
         12    1    3    3    0    0  0.12357289954E+01  0.63834639057E+00  0.30432227835E+00  0.14237711591E+01  0.00000000000E+00 0. -1.
</event>
<event>
 7    1  0.2312612E-008  0.4614232E+02  0.7816164E-02  0.1320468E+00
        -11   -1    0    0    0    0  0.00000000000E+00  0.00000000000E+00  0.45593999997E+02  0.45594000000E+02  0.51100000000E-03 0. -1.
         11   -1    0    0    0    0 -0.00000000000E+00 -0.00000000000E+00 -0.45593999997E+02  0.45594000000E+02  0.51100000000E-03 0.  1.
    9900012    2    1    2    0    0 -0.25712570219E+02  0.35827884490E+01 -0.36812237859E+02  0.46142317670E+02  0.99999991716E+01 0.  0.
         12    1    1    2    0    0  0.25712570219E+02 -0.35827884490E+01  0.36812237859E+02  0.45045682330E+02  0.00000000000E+00 0. -1.
         11    1    3    3    0    0 -0.76284937945E+01  0.37400214612E+01 -0.90763950482E+01  0.12432321804E+02  0.51100000000E-03 0. -1.
        -11    1    3    3    0    0 -0.65435830933E+00  0.83811096788E+00 -0.46285378241E+01  0.47491028039E+01  0.51100000000E-03 0.  1.
        -12    1    3    3    0    0 -0.17429718116E+02 -0.99534398008E+00 -0.23107304987E+02  0.28960893063E+02  0.00000000000E+00 0.  1.
</event>
<event>
 7    1  0.2312612E-008  0.4614232E+02  0.7816164E-02  0.1320468E+00
        -11   -1    0    0    0    0  0.00000000000E+00  0.00000000000E+00  0.45593999997E+02  0.45594000000E+02  0.51100000000E-03 0.  1.
         11   -1    0    0    0    0 -0.00000000000E+00 -0.00000000000E+00 -0.45593999997E+02  0.45594000000E+02  0.51100000000E-03 0. -1.
    9900012    2    1    2    0    0  0.31040771684E+02 -0.29326835212E+02  0.14335994357E+02  0.46142317582E+02  0.99999983633E+01 0.  0.
         12    1    1    2    0    0 -0.31040771684E+02  0.29326835212E+02 -0.14335994357E+02  0.45045682418E+02  0.00000000000E+00 0. -1.
         11    1    3    3    0    0  0.37738289716E+01 -0.69979096731E+01  0.26329893574E+01  0.83752706295E+01  0.51100000000E-03 0. -1.
        -11    1    3    3    0    0  0.42496041309E+01 -0.14683142134E+01 -0.20053560154E+00  0.45005884823E+01  0.51100000000E-03 0.  1.
        -12    1    3    3    0    0  0.23017338582E+02 -0.20860611326E+02  0.11903540601E+02  0.33266458470E+02  0.00000000000E+00 0.  1.
</event>
<event>
 7    1  0.2312612E-008  0.4614232E+02  0.7816164E-02  0.1320468E+00
        -11   -1    0    0    0    0  0.00000000000E+00  0.00000000000E+00  0.45593999997E+02  0.45594000000E+02  0.51100000000E-03 0.  1.
         11   -1    0    0    0    0 -0.00000000000E+00 -0.00000000000E+00 -0.45593999997E+02  0.45594000000E+02  0.51100000000E-03 0. -1.
    9900012    2    1    2    0    0 -0.12122044493E+02  0.17634062623E+02  0.39638483510E+02  0.46142317607E+02  0.99999985935E+01 0.  0.
         12    1    1    2    0    0  0.12122044493E+02 -0.17634062623E+02 -0.39638483510E+02  0.45045682393E+02  0.00000000000E+00 0. -1.
         11    1    3    3    0    0 -0.13318666431E+01  0.91611002506E+00  0.10486972328E+01  0.19268867326E+01  0.51100000000E-03 0. -1.
        -11    1    3    3    0    0 -0.58170835384E+01  0.38065992399E+01  0.77319823214E+01  0.10397702128E+02  0.51100000000E-03 0.  1.
         12    1    3    3    0    0 -0.49730943114E+01  0.12911353358E+02  0.30857803956E+02  0.33817728746E+02  0.00000000000E+00 0. -1.
</event>
<event>
 7    1  0.2312612E-008  0.4614231E+02  0.7816164E-02  0.1320468E+00
        -11   -1    0    0    0    0  0.00000000000E+00  0.00000000000E+00  0.45593999997E+02  0.45594000000E+02  0.51100000000E-03 0.  1.
         11   -1    0    0    0    0 -0.00000000000E+00 -0.00000000000E+00 -0.45593999997E+02  0.45594000000E+02  0.51100000000E-03 0. -1.
    9900012    2    1    2    0    0  0.10361991584E+02 -0.40609691105E+02  0.16510483136E+02  0.46142312808E+02  0.99999548290E+01 0.  0.
         12    1    1    2    0    0 -0.10361991584E+02  0.40609691105E+02 -0.16510483136E+02  0.45045687192E+02  0.00000000000E+00 0. -1.
         11    1    3    3    0    0  0.31742422081E+01 -0.11192591656E+02  0.90973137958E+01  0.14768582875E+02  0.51100000000E-03 0. -1.
        -11    1    3    3    0    0  0.13556077477E+01 -0.11105183193E+02  0.38248702462E+01  0.11823383558E+02  0.51100000000E-03 0.  1.
        -12    1    3    3    0    0  0.58321416277E+01 -0.18311916257E+02  0.35882990944E+01  0.19550346374E+02  0.00000000000E+00 0.  1.
</event>
<event>
 7    1  0.2312612E-008  0.4614232E+02  0.7816164E-02  0.1320468E+00
        -11   -1    0    0    0    0  0.00000000000E+00  0.00000000000E+00  0.45593999997E+02  0.45594000000E+02  0.51100000000E-03 0.  1.
         11   -1    0    0    0    0 -0.00000000000E+00 -0.00000000000E+00 -0.45593999997E+02  0.45594000000E+02  0.51100000000E-03 0. -1.
    9900012    2    1    2    0    0 -0.10411444624E+02  0.31438961980E+02  0.30533702694E+02  0.46142317524E+02  0.99999978351E+01 0.  0.
         12    1    1    2    0    0  0.10411444624E+02 -0.31438961980E+02 -0.30533702694E+02  0.45045682476E+02  0.00000000000E+00 0. -1.
         11    1    3    3    0    0 -0.17374577664E-02  0.11239289371E+02  0.11197198288E+02  0.15865020590E+02  0.51100000000E-03 0. -1.
        -11    1    3    3    0    0 -0.30478093494E+01  0.44204675806E+01  0.74965277623E+01  0.92210413845E+01  0.51100000000E-03 0.  1.
        -12    1    3    3    0    0 -0.73618978169E+01  0.15779205029E+02  0.11839976644E+02  0.21056255549E+02  0.00000000000E+00 0.  1.
</event>
<event>
 7    1  0.2312612E-008  0.4614232E+02  0.7816164E-02  0.1320468E+00
        -11   -1    0    0    0    0  0.00000000000E+00  0.00000000000E+00  0.45593999997E+02  0.45594000000E+02  0.51100000000E-03 0.  1.
         11   -1    0    0    0    0 -0.00000000000E+00 -0.00000000000E+00 -0.45593999997E+02  0.45594000000E+02  0.51100000000E-03 0. -1.
    9900012    2    1    2    0    0  0.32580921436E+02  0.19362774640E+02  0.24345020629E+02  0.46142317489E+02  0.99999975229E+01 0.  0.
         12    1    1    2    0    0 -0.32580921436E+02 -0.19362774640E+02 -0.24345020629E+02  0.45045682511E+02  0.00000000000E+00 0. -1.
         11    1    3    3    0    0  0.29745398410E+01  0.66057707278E-01  0.15335091738E+01  0.33472229584E+01  0.51100000000E-03 0.  1.
        -11    1    3    3    0    0  0.16088010590E+01  0.20136431227E+01  0.43793857499E+01  0.50815370982E+01  0.51100000000E-03 0. -1.
        -12    1    3    3    0    0  0.27997580536E+02  0.17283073810E+02  0.18432125706E+02  0.37713557433E+02  0.00000000000E+00 0.  1.
</event>
<event>
 7    1  0.2312612E-008  0.4614232E+02  0.7816164E-02  0.1320468E+00
        -11   -1    0    0    0    0  0.00000000000E+00  0.00000000000E+00  0.45593999997E+02  0.45594000000E+02  0.51100000000E-03 0.  1.
         11   -1    0    0    0    0 -0.00000000000E+00 -0.00000000000E+00 -0.45593999997E+02  0.45594000000E+02  0.51100000000E-03 0. -1.
    9900012    2    1    2    0    0 -0.27947001025E+02  0.11128810510E+01  0.35310624107E+02  0.46142317128E+02  0.99999942308E+01 0.  0.
         12    1    1    2    0    0  0.27947001025E+02 -0.11128810510E+01 -0.35310624107E+02  0.45045682872E+02  0.00000000000E+00 0. -1.
         11    1    3    3    0    0 -0.28584322112E+00  0.10381098277E+01  0.10812249807E+01  0.15259181110E+01  0.51100000000E-03 0. -1.
        -11    1    3    3    0    0 -0.99733945343E+01 -0.11290152992E+01  0.17855484836E+02  0.20483203194E+02  0.51100000000E-03 0.  1.
         12    1    3    3    0    0 -0.17687763270E+02  0.12037865225E+01  0.16373914290E+02  0.24133195824E+02  0.00000000000E+00 0. -1.
</event>
<event>
 7    1  0.2312612E-008  0.4614232E+02  0.7816164E-02  0.1320468E+00
        -11   -1    0    0    0    0  0.00000000000E+00  0.00000000000E+00  0.45593999997E+02  0.45594000000E+02  0.51100000000E-03 0.  1.
         11   -1    0    0    0    0 -0.00000000000E+00 -0.00000000000E+00 -0.45593999997E+02  0.45594000000E+02  0.51100000000E-03 0. -1.
    9900012    2    1    2    0    0 -0.18170347306E+02  0.40149680983E+02  0.93249616161E+01  0.46142319703E+02  0.10000017707E+02 0.  0.
         12    1    1    2    0    0  0.18170347306E+02 -0.40149680983E+02 -0.93249616161E+01  0.45045680297E+02  0.00000000000E+00 0. -1.
         11    1    3    3    0    0 -0.13681507036E+02  0.28717607517E+02  0.51140502344E+01  0.32218599075E+02  0.51100000000E-03 0.  1.
        -11    1    3    3    0    0 -0.30628396431E+01  0.92958630255E+01  0.10391866605E+01  0.98424572767E+01  0.51100000000E-03 0. -1.
         12    1    3    3    0    0 -0.14260006263E+01  0.21362104407E+01  0.31717247212E+01  0.40812633510E+01  0.00000000000E+00 0. -1.
</event>
<event>
 7    1  0.2312612E-008  0.4614232E+02  0.7816164E-02  0.1320468E+00
        -11   -1    0    0    0    0  0.00000000000E+00  0.00000000000E+00  0.45593999997E+02  0.45594000000E+02  0.51100000000E-03 0.  1.
         11   -1    0    0    0    0 -0.00000000000E+00 -0.00000000000E+00 -0.45593999997E+02  0.45594000000E+02  0.51100000000E-03 0. -1.
    9900012    2    1    2    0    0  0.12842145649E+01 -0.39608389864E+02  0.21415876131E+02  0.46142317575E+02  0.99999983011E+01 0.  0.
         12    1    1    2    0    0 -0.12842145649E+01  0.39608389864E+02 -0.21415876131E+02  0.45045682425E+02  0.00000000000E+00 0. -1.
         11    1    3    3    0    0  0.30077451795E+01 -0.95107599209E+01  0.25747966953E+01  0.10301973773E+02  0.51100000000E-03 0.  1.
        -11    1    3    3    0    0  0.13899706538E+01 -0.80878627716E+01  0.41566269620E+01  0.91990809646E+01  0.51100000000E-03 0. -1.
        -12    1    3    3    0    0 -0.31135012684E+01 -0.22009767172E+02  0.14684452474E+02  0.26641262837E+02  0.00000000000E+00 0.  1.
</event>
<event>
 7    1  0.2312612E-008  0.4614232E+02  0.7816164E-02  0.1320468E+00
        -11   -1    0    0    0    0  0.00000000000E+00  0.00000000000E+00  0.45593999997E+02  0.45594000000E+02  0.51100000000E-03 0.  1.
         11   -1    0    0    0    0 -0.00000000000E+00 -0.00000000000E+00 -0.45593999997E+02  0.45594000000E+02  0.51100000000E-03 0. -1.
    9900012    2    1    2    0    0 -0.17030061922E+02 -0.32754801153E+02  0.25811113027E+02  0.46142316929E+02  0.99999924154E+01 0.  0.
         12    1    1    2    0    0  0.17030061922E+02  0.32754801153E+02 -0.25811113027E+02  0.45045683071E+02  0.00000000000E+00 0. -1.
         11    1    3    3    0    0 -0.48716568326E+01 -0.85007151086E+01  0.47634909653E+01  0.10894312465E+02  0.51100000000E-03 0. -1.
        -11    1    3    3    0    0 -0.13016242354E+02 -0.19549391205E+02  0.17222330761E+02  0.29124043995E+02  0.51100000000E-03 0.  1.
         12    1    3    3    0    0  0.85783726406E+00 -0.47046948386E+01  0.38252913007E+01  0.61239604695E+01  0.00000000000E+00 0. -1.
</event>
<event>
 7    1  0.2312612E-008  0.4614232E+02  0.7816164E-02  0.1320468E+00
        -11   -1    0    0    0    0  0.00000000000E+00  0.00000000000E+00  0.45593999997E+02  0.45594000000E+02  0.51100000000E-03 0.  1.
         11   -1    0    0    0    0 -0.00000000000E+00 -0.00000000000E+00 -0.45593999997E+02  0.45594000000E+02  0.51100000000E-03 0. -1.
    9900012    2    1    2    0    0 -0.22216645672E+02  0.24416498479E+02  0.30649123129E+02  0.46142317727E+02  0.99999996864E+01 0.  0.
         12    1    1    2    0    0  0.22216645672E+02 -0.24416498479E+02 -0.30649123129E+02  0.45045682273E+02  0.00000000000E+00 0. -1.
         11    1    3    3    0    0 -0.20477832415E+02  0.18243731015E+02  0.26726880972E+02  0.38294927974E+02  0.51100000000E-03 0. -1.
        -11    1    3    3    0    0 -0.16622527657E+00  0.27967395798E+01  0.27920225012E+01  0.39553473966E+01  0.51100000000E-03 0.  1.
         12    1    3    3    0    0 -0.15725879804E+01  0.33760278842E+01  0.11302196552E+01  0.38920423559E+01  0.00000000000E+00 0. -1.
</event>
<event>
 7    1  0.2312612E-008  0.4614233E+02  0.7816164E-02  0.1320468E+00
        -11   -1    0    0    0    0  0.00000000000E+00  0.00000000000E+00  0.45593999997E+02  0.45594000000E+02  0.51100000000E-03 0. -1.
         11   -1    0    0    0    0 -0.00000000000E+00 -0.00000000000E+00 -0.45593999997E+02  0.45594000000E+02  0.51100000000E-03 0.  1.
    9900012    2    1    2    0    0 -0.32480566175E+02  0.20805935559E+02 -0.23264528928E+02  0.46142329400E+02  0.10000106134E+02 0.  0.
         12    1    1    2    0    0  0.32480566175E+02 -0.20805935559E+02  0.23264528928E+02  0.45045670600E+02  0.00000000000E+00 0. -1.
         11    1    3    3    0    0 -0.52840058009E+01  0.47872730095E+01 -0.67009442148E+01  0.97847510854E+01  0.51100000000E-03 0. -1.
        -11    1    3    3    0    0 -0.25991062260E+02  0.16558426409E+02 -0.16661446762E+02  0.35033135900E+02  0.51100000000E-03 0.  1.
         12    1    3    3    0    0 -0.12054981147E+01 -0.53976385963E+00  0.97862049366E-01  0.13244424146E+01  0.00000000000E+00 0. -1.
</event>
<event>
 7    1  0.2312612E-008  0.4614232E+02  0.7816164E-02  0.1320468E+00
        -11   -1    0    0    0    0  0.00000000000E+00  0.00000000000E+00  0.45593999997E+02  0.45594000000E+02  0.51100000000E-03 0. -1.
         11   -1    0    0    0    0 -0.00000000000E+00 -0.00000000000E+00 -0.45593999997E+02  0.45594000000E+02  0.51100000000E-03 0.  1.
    9900012    2    1    2    0    0  0.42587357890E+02 -0.99513990808E+01 -0.10788863980E+02  0.46142323386E+02  0.10000051288E+02 0.  0.
         12    1    1    2    0    0 -0.42587357890E+02  0.99513990808E+01  0.10788863980E+02  0.45045676614E+02  0.00000000000E+00 0. -1.
         11    1    3    3    0    0  0.12609498489E+02 -0.16482859724E+01 -0.62859423552E+01  0.14185533841E+02  0.51100000000E-03 0. -1.
        -11    1    3    3    0    0  0.24703174905E+02 -0.45724494151E+01 -0.43343076443E+01  0.25493928043E+02  0.51100000000E-03 0.  1.
         12    1    3    3    0    0  0.52746844957E+01 -0.37306636933E+01 -0.16861398019E+00  0.64628615022E+01  0.00000000000E+00 0. -1.
</event>
<event>
 7    1  0.2312612E-008  0.4614232E+02  0.7816164E-02  0.1320468E+00
        -11   -1    0    0    0    0  0.00000000000E+00  0.00000000000E+00  0.45593999997E+02  0.45594000000E+02  0.51100000000E-03 0.  1.
         11   -1    0    0    0    0 -0.00000000000E+00 -0.00000000000E+00 -0.45593999997E+02  0.45594000000E+02  0.51100000000E-03 0. -1.
    9900012    2    1    2    0    0  0.55520833029E+01 -0.15923171127E+02  0.41770089603E+02  0.46142318817E+02  0.10000009630E+02 0.  0.
         12    1    1    2    0    0 -0.55520833029E+01  0.15923171127E+02 -0.41770089603E+02  0.45045681183E+02  0.00000000000E+00 0. -1.
         11    1    3    3    0    0  0.13494539220E+00 -0.36692732150E+01  0.13788475158E+02  0.14268981170E+02  0.51100000000E-03 0. -1.
        -11    1    3    3    0    0  0.14777715076E+01 -0.10255228148E+02  0.15600204756E+02  0.18727517233E+02  0.51100000000E-03 0.  1.
        -12    1    3    3    0    0  0.39393664031E+01 -0.19986697642E+01  0.12381409689E+02  0.13145820415E+02  0.00000000000E+00 0.  1.
</event>
<event>
 7    1  0.2312612E-008  0.4614232E+02  0.7816164E-02  0.1320468E+00
        -11   -1    0    0    0    0  0.00000000000E+00  0.00000000000E+00  0.45593999997E+02  0.45594000000E+02  0.51100000000E-03 0.  1.
         11   -1    0    0    0    0 -0.00000000000E+00 -0.00000000000E+00 -0.45593999997E+02  0.45594000000E+02  0.51100000000E-03 0. -1.
    9900012    2    1    2    0    0 -0.40012860283E+02  0.17571130900E+02 -0.10924278234E+02  0.46142317809E+02  0.10000000434E+02 0.  0.
         12    1    1    2    0    0  0.40012860283E+02 -0.17571130900E+02  0.10924278234E+02  0.45045682191E+02  0.00000000000E+00 0. -1.
         11    1    3    3    0    0 -0.21315673243E+02  0.88937310626E+01 -0.10778547246E+02  0.25487908094E+02  0.51100000000E-03 0. -1.
        -11    1    3    3    0    0 -0.27578610405E+01  0.18056345524E+01 -0.18994347152E-01  0.32964336338E+01  0.51100000000E-03 0.  1.
         12    1    3    3    0    0 -0.15939325999E+02  0.68717652852E+01 -0.12673664146E+00  0.17357976081E+02  0.00000000000E+00 0. -1.
</event>
<event>
 7    1  0.2312612E-008  0.4614232E+02  0.7816164E-02  0.1320468E+00
        -11   -1    0    0    0    0  0.00000000000E+00  0.00000000000E+00  0.45593999997E+02  0.45594000000E+02  0.51100000000E-03 0. -1.
         11   -1    0    0    0    0 -0.00000000000E+00 -0.00000000000E+00 -0.45593999997E+02  0.45594000000E+02  0.51100000000E-03 0.  1.
    9900012    2    1    2    0    0  0.94294928305E+01 -0.11967879417E+02 -0.42390659158E+02  0.46142318113E+02  0.10000003211E+02 0.  0.
         12    1    1    2    0    0 -0.94294928305E+01  0.11967879417E+02  0.42390659158E+02  0.45045681887E+02  0.00000000000E+00 0. -1.
         11    1    3    3    0    0  0.22178973012E+01 -0.17648052500E+00 -0.11180178089E+02  0.11399412098E+02  0.51100000000E-03 0. -1.
        -11    1    3    3    0    0  0.73724774313E+01 -0.11046539703E+02 -0.23486177553E+02  0.26981104485E+02  0.51100000000E-03 0.  1.
        -12    1    3    3    0    0 -0.16088190190E+00 -0.74485918900E+00 -0.77243035155E+01  0.77618015304E+01  0.00000000000E+00 0.  1.
</event>
<event>
 7    1  0.2312612E-008  0.4614232E+02  0.7816164E-02  0.1320468E+00
        -11   -1    0    0    0    0  0.00000000000E+00  0.00000000000E+00  0.45593999997E+02  0.45594000000E+02  0.51100000000E-03 0.  1.
         11   -1    0    0    0    0 -0.00000000000E+00 -0.00000000000E+00 -0.45593999997E+02  0.45594000000E+02  0.51100000000E-03 0. -1.
    9900012    2    1    2    0    0  0.19343354606E+01 -0.17692718620E+02  0.41380424962E+02  0.46142317456E+02  0.99999972132E+01 0.  0.
         12    1    1    2    0    0 -0.19343354606E+01  0.17692718620E+02 -0.41380424962E+02  0.45045682544E+02  0.00000000000E+00 0. -1.
         11    1    3    3    0    0 -0.31848737802E+01 -0.23859307150E+01  0.10315720486E+02  0.11056680142E+02  0.51100000000E-03 0. -1.
        -11    1    3    3    0    0  0.28859752323E+01 -0.10395485608E+02  0.18581817545E+02  0.21486714909E+02  0.51100000000E-03 0.  1.
         12    1    3    3    0    0  0.22332340085E+01 -0.49113022974E+01  0.12482886932E+02  0.13598922404E+02  0.00000000000E+00 0. -1.
</event>
<event>
 7    1  0.2312612E-008  0.4614232E+02  0.7816164E-02  0.1320468E+00
        -11   -1    0    0    0    0  0.00000000000E+00  0.00000000000E+00  0.45593999997E+02  0.45594000000E+02  0.51100000000E-03 0. -1.
         11   -1    0    0    0    0 -0.00000000000E+00 -0.00000000000E+00 -0.45593999997E+02  0.45594000000E+02  0.51100000000E-03 0.  1.
    9900012    2    1    2    0    0 -0.37801919116E+02  0.50166703534E+01  0.23978352095E+02  0.46142318304E+02  0.10000004952E+02 0.  0.
         12    1    1    2    0    0  0.37801919116E+02 -0.50166703534E+01 -0.23978352095E+02  0.45045681696E+02  0.00000000000E+00 0. -1.
         11    1    3    3    0    0 -0.11299449966E+02  0.31733660129E+01  0.11283674106E+02  0.16280943553E+02  0.51100000000E-03 0. -1.
        -11    1    3    3    0    0 -0.25006670093E+02  0.19042151871E+01  0.13122014689E+02  0.28304537699E+02  0.51100000000E-03 0.  1.
         12    1    3    3    0    0 -0.14957990575E+01 -0.60910846625E-01 -0.42733670031E+00  0.15568370522E+01  0.00000000000E+00 0. -1.
</event>
<event>
 7    1  0.2312612E-008  0.4614232E+02  0.7816164E-02  0.1320468E+00
        -11   -1    0    0    0    0  0.00000000000E+00  0.00000000000E+00  0.45593999997E+02  0.45594000000E+02  0.51100000000E-03 0. -1.
         11   -1    0    0    0    0 -0.00000000000E+00 -0.00000000000E+00 -0.45593999997E+02  0.45594000000E+02  0.51100000000E-03 0.  1.
    9900012    2    1    2    0    0 -0.22327600074E+02 -0.37013697913E+02 -0.12671935450E+02  0.46142317562E+02  0.99999981803E+01 0.  0.
         12    1    1    2    0    0  0.22327600074E+02  0.37013697913E+02  0.12671935450E+02  0.45045682438E+02  0.00000000000E+00 0. -1.
         11    1    3    3    0    0 -0.73847130176E+01 -0.10668972749E+02 -0.14568181840E+01  0.13056924804E+02  0.51100000000E-03 0. -1.
        -11    1    3    3    0    0 -0.76226194114E+01 -0.17082535646E+02 -0.36358542784E+01  0.19056148283E+02  0.51100000000E-03 0.  1.
        -12    1    3    3    0    0 -0.73202676450E+01 -0.92621895184E+01 -0.75792629880E+01  0.14029244474E+02  0.00000000000E+00 0.  1.
</event>
<event>
 7    1  0.2312612E-008  0.4614232E+02  0.7816164E-02  0.1320468E+00
        -11   -1    0    0    0    0  0.00000000000E+00  0.00000000000E+00  0.45593999997E+02  0.45594000000E+02  0.51100000000E-03 0.  1.
         11   -1    0    0    0    0 -0.00000000000E+00 -0.00000000000E+00 -0.45593999997E+02  0.45594000000E+02  0.51100000000E-03 0. -1.
    9900012    2    1    2    0    0  0.19104252640E+02 -0.15116087318E+02  0.37889901221E+02  0.46142321192E+02  0.10000031287E+02 0.  0.
         12    1    1    2    0    0 -0.19104252640E+02  0.15116087318E+02 -0.37889901221E+02  0.45045678808E+02  0.00000000000E+00 0. -1.
         11    1    3    3    0    0  0.13562687443E+01  0.79352280941E-01  0.62474655580E+01  0.63934801048E+01  0.51100000000E-03 0. -1.
        -11    1    3    3    0    0  0.35535235668E+01 -0.21534671450E+01  0.26336230272E+01  0.49194431590E+01  0.51100000000E-03 0.  1.
        -12    1    3    3    0    0  0.14194460329E+02 -0.13041972454E+02  0.29008812636E+02  0.34829397928E+02  0.00000000000E+00 0.  1.
</event>
<event>
 7    1  0.2312612E-008  0.4614232E+02  0.7816164E-02  0.1320468E+00
        -11   -1    0    0    0    0  0.00000000000E+00  0.00000000000E+00  0.45593999997E+02  0.45594000000E+02  0.51100000000E-03 0.  1.
         11   -1    0    0    0    0 -0.00000000000E+00 -0.00000000000E+00 -0.45593999997E+02  0.45594000000E+02  0.51100000000E-03 0. -1.
    9900012    2    1    2    0    0 -0.32986420336E+02 -0.17332798467E+02  0.25309755363E+02  0.46142317123E+02  0.99999941845E+01 0.  0.
         12    1    1    2    0    0  0.32986420336E+02  0.17332798467E+02 -0.25309755363E+02  0.45045682877E+02  0.00000000000E+00 0. -1.
         11    1    3    3    0    0 -0.63394036355E+01 -0.48069636010E+00  0.57456877046E+01  0.85692493781E+01  0.51100000000E-03 0. -1.
        -11    1    3    3    0    0 -0.21420202684E+02 -0.10737519448E+02  0.13526041902E+02  0.27514963505E+02  0.51100000000E-03 0.  1.
        -12    1    3    3    0    0 -0.52268140167E+01 -0.61145826598E+01  0.60380257564E+01  0.10058104240E+02  0.00000000000E+00 0.  1.
</event>
<event>
 7    1  0.2312612E-008  0.4614232E+02  0.7816164E-02  0.1320468E+00
        -11   -1    0    0    0    0  0.00000000000E+00  0.00000000000E+00  0.45593999997E+02  0.45594000000E+02  0.51100000000E-03 0.  1.
         11   -1    0    0    0    0 -0.00000000000E+00 -0.00000000000E+00 -0.45593999997E+02  0.45594000000E+02  0.51100000000E-03 0. -1.
    9900012    2    1    2    0    0  0.16071379168E+02 -0.12205920737E+02  0.40272071626E+02  0.46142317827E+02  0.10000000597E+02 0.  0.
         12    1    1    2    0    0 -0.16071379168E+02  0.12205920737E+02 -0.40272071626E+02  0.45045682173E+02  0.00000000000E+00 0. -1.
         11    1    3    3    0    0  0.95868979867E+01 -0.57552358760E+01  0.23389857179E+02  0.25925214987E+02  0.51100000000E-03 0. -1.
        -11    1    3    3    0    0  0.66027968458E+01 -0.71537114058E+01  0.12844190380E+02  0.16116629295E+02  0.51100000000E-03 0.  1.
         12    1    3    3    0    0 -0.11831566483E+00  0.70302654496E+00  0.40380240677E+01  0.41004735447E+01  0.00000000000E+00 0. -1.
</event>
<event>
 7    1  0.2312612E-008  0.4614232E+02  0.7816164E-02  0.1320468E+00
        -11   -1    0    0    0    0  0.00000000000E+00  0.00000000000E+00  0.45593999997E+02  0.45594000000E+02  0.51100000000E-03 0.  1.
         11   -1    0    0    0    0 -0.00000000000E+00 -0.00000000000E+00 -0.45593999997E+02  0.45594000000E+02  0.51100000000E-03 0. -1.
    9900012    2    1    2    0    0 -0.72510069957E+01 -0.42782761601E+02  0.12090147446E+02  0.46142318099E+02  0.10000003081E+02 0.  0.
         12    1    1    2    0    0  0.72510069957E+01  0.42782761601E+02 -0.12090147446E+02  0.45045681901E+02  0.00000000000E+00 0. -1.
         11    1    3    3    0    0 -0.76940870465E+01 -0.25014865789E+02  0.60918435588E+01  0.26871044716E+02  0.51100000000E-03 0. -1.
        -11    1    3    3    0    0 -0.78785074528E+00 -0.16029093126E+02  0.45021609765E+01  0.16667992949E+02  0.51100000000E-03 0.  1.
         12    1    3    3    0    0  0.12309307961E+01 -0.17388026856E+01  0.14961429110E+01  0.26032804333E+01  0.00000000000E+00 0. -1.
</event>
<event>
 7    1  0.2312612E-008  0.4614232E+02  0.7816164E-02  0.1320468E+00
        -11   -1    0    0    0    0  0.00000000000E+00  0.00000000000E+00  0.45593999997E+02  0.45594000000E+02  0.51100000000E-03 0.  1.
         11   -1    0    0    0    0 -0.00000000000E+00 -0.00000000000E+00 -0.45593999997E+02  0.45594000000E+02  0.51100000000E-03 0. -1.
    9900012    2    1    2    0    0 -0.21464225818E+02 -0.25785234732E+02  0.30058646041E+02  0.46142317388E+02  0.99999965951E+01 0.  0.
         12    1    1    2    0    0  0.21464225818E+02  0.25785234732E+02 -0.30058646041E+02  0.45045682612E+02  0.00000000000E+00 0. -1.
         11    1    3    3    0    0 -0.72232506544E+01 -0.15270890157E+02  0.15468662764E+02  0.22905347938E+02  0.51100000000E-03 0. -1.
        -11    1    3    3    0    0 -0.39561914274E+01 -0.46135048442E+01  0.64016461044E+01  0.88270578714E+01  0.51100000000E-03 0.  1.
        -12    1    3    3    0    0 -0.10284783736E+02 -0.59008397314E+01  0.81883371731E+01  0.14409911578E+02  0.00000000000E+00 0.  1.
</event>
<event>
 7    1  0.2312612E-008  0.4614232E+02  0.7816164E-02  0.1320468E+00
        -11   -1    0    0    0    0  0.00000000000E+00  0.00000000000E+00  0.45593999997E+02  0.45594000000E+02  0.51100000000E-03 0.  1.
         11   -1    0    0    0    0 -0.00000000000E+00 -0.00000000000E+00 -0.45593999997E+02  0.45594000000E+02  0.51100000000E-03 0. -1.
    9900012    2    1    2    0    0 -0.23250613189E+02  0.34894609944E+02 -0.16458691226E+02  0.46142319478E+02  0.10000015658E+02 0.  0.
         12    1    1    2    0    0  0.23250613189E+02 -0.34894609944E+02  0.16458691226E+02  0.45045680522E+02  0.00000000000E+00 0. -1.
         11    1    3    3    0    0 -0.47046761074E+01  0.70455669256E+01 -0.69876416459E+01  0.10981854425E+02  0.51100000000E-03 0. -1.
        -11    1    3    3    0    0 -0.38093734064E+01  0.50202288891E+01  0.23662989233E+00  0.63063474226E+01  0.51100000000E-03 0.  1.
        -12    1    3    3    0    0 -0.14736563675E+02  0.22828814129E+02 -0.97076794721E+01  0.28854117631E+02  0.00000000000E+00 0.  1.
</event>
<event>
 7    1  0.2312612E-008  0.4614232E+02  0.7816164E-02  0.1320468E+00
        -11   -1    0    0    0    0  0.00000000000E+00  0.00000000000E+00  0.45593999997E+02  0.45594000000E+02  0.51100000000E-03 0.  1.
         11   -1    0    0    0    0 -0.00000000000E+00 -0.00000000000E+00 -0.45593999997E+02  0.45594000000E+02  0.51100000000E-03 0. -1.
    9900012    2    1    2    0    0  0.28356639665E+01 -0.28688852139E+02  0.34612457780E+02  0.46142318068E+02  0.10000002795E+02 0.  0.
         12    1    1    2    0    0 -0.28356639665E+01  0.28688852139E+02 -0.34612457780E+02  0.45045681932E+02  0.00000000000E+00 0. -1.
         11    1    3    3    0    0  0.18122467780E+01 -0.33998217227E+01  0.11851240028E+01  0.40308243938E+01  0.51100000000E-03 0. -1.
        -11    1    3    3    0    0 -0.22351446490E+00 -0.13740744798E+02  0.15138156656E+02  0.20445581760E+02  0.51100000000E-03 0.  1.
         12    1    3    3    0    0  0.12469316534E+01 -0.11548285619E+02  0.18289177121E+02  0.21665911913E+02  0.00000000000E+00 0. -1.
</event>
<event>
 7    1  0.2312612E-008  0.4614232E+02  0.7816164E-02  0.1320468E+00
        -11   -1    0    0    0    0  0.00000000000E+00  0.00000000000E+00  0.45593999997E+02  0.45594000000E+02  0.51100000000E-03 0.  1.
         11   -1    0    0    0    0 -0.00000000000E+00 -0.00000000000E+00 -0.45593999997E+02  0.45594000000E+02  0.51100000000E-03 0. -1.
    9900012    2    1    2    0    0  0.26178307409E+02 -0.35360571874E+02  0.96664181663E+01  0.46142318051E+02  0.10000002644E+02 0.  0.
         12    1    1    2    0    0 -0.26178307409E+02  0.35360571874E+02 -0.96664181663E+01  0.45045681949E+02  0.00000000000E+00 0. -1.
         11    1    3    3    0    0  0.75190181629E-01  0.91488264190E-01 -0.65644560233E+00  0.66704179467E+00  0.51100000000E-03 0. -1.
        -11    1    3    3    0    0  0.22294012499E+02 -0.32524619535E+02  0.85044342795E+01  0.40338558128E+02  0.51100000000E-03 0.  1.
        -12    1    3    3    0    0  0.38091047285E+01 -0.29274406034E+01  0.18184294892E+01  0.51367181279E+01  0.00000000000E+00 0.  1.
</event>
<event>
 7    1  0.2312612E-008  0.4614232E+02  0.7816164E-02  0.1320468E+00
        -11   -1    0    0    0    0  0.00000000000E+00  0.00000000000E+00  0.45593999997E+02  0.45594000000E+02  0.51100000000E-03 0. -1.
         11   -1    0    0    0    0 -0.00000000000E+00 -0.00000000000E+00 -0.45593999997E+02  0.45594000000E+02  0.51100000000E-03 0.  1.
    9900012    2    1    2    0    0 -0.24344804166E+02 -0.41501831803E+01 -0.37672535914E+02  0.46142317937E+02  0.10000001606E+02 0.  0.
         12    1    1    2    0    0  0.24344804166E+02  0.41501831803E+01  0.37672535914E+02  0.45045682063E+02  0.00000000000E+00 0. -1.
         11    1    3    3    0    0 -0.19351471452E+02 -0.27437727199E+01 -0.29267681906E+02  0.35193819636E+02  0.51100000000E-03 0.  1.
        -11    1    3    3    0    0 -0.11690935223E+01  0.89264655348E+00 -0.44141034325E-01  0.14715795002E+01  0.51100000000E-03 0. -1.
        -12    1    3    3    0    0 -0.38242391911E+01 -0.22990570139E+01 -0.83607129735E+01  0.94769188015E+01  0.00000000000E+00 0.  1.
</event>
<event>
 7    1  0.2312612E-008  0.4614232E+02  0.7816164E-02  0.1320468E+00
        -11   -1    0    0    0    0  0.00000000000E+00  0.00000000000E+00  0.45593999997E+02  0.45594000000E+02  0.51100000000E-03 0.  1.
         11   -1    0    0    0    0 -0.00000000000E+00 -0.00000000000E+00 -0.45593999997E+02  0.45594000000E+02  0.51100000000E-03 0. -1.
    9900012    2    1    2    0    0  0.40968196190E+02  0.63586020460E+01  0.17615011228E+02  0.46142317192E+02  0.99999948091E+01 0.  0.
         12    1    1    2    0    0 -0.40968196190E+02 -0.63586020460E+01 -0.17615011228E+02  0.45045682808E+02  0.00000000000E+00 0. -1.
         11    1    3    3    0    0  0.19214771089E+02  0.64548322949E+01  0.98970973496E+01  0.22557145745E+02  0.51100000000E-03 0. -1.
        -11    1    3    3    0    0  0.21161543844E+02  0.26025576639E+00  0.64211680754E+01  0.22115833031E+02  0.51100000000E-03 0.  1.
         12    1    3    3    0    0  0.59188125710E+00 -0.35648601532E+00  0.12967458034E+01  0.14693384159E+01  0.00000000000E+00 0. -1.
</event>
<event>
 7    1  0.2312612E-008  0.4614232E+02  0.7816164E-02  0.1320468E+00
        -11   -1    0    0    0    0  0.00000000000E+00  0.00000000000E+00  0.45593999997E+02  0.45594000000E+02  0.51100000000E-03 0.  1.
         11   -1    0    0    0    0 -0.00000000000E+00 -0.00000000000E+00 -0.45593999997E+02  0.45594000000E+02  0.51100000000E-03 0. -1.
    9900012    2    1    2    0    0 -0.92141262938E+01  0.40878321855E+02  0.16528047480E+02  0.46142315695E+02  0.99999811589E+01 0.  0.
         12    1    1    2    0    0  0.92141262938E+01 -0.40878321855E+02 -0.16528047480E+02  0.45045684305E+02  0.00000000000E+00 0. -1.
         11    1    3    3    0    0 -0.53301667743E+01  0.32394986950E+02  0.12129427569E+02  0.34999555294E+02  0.51100000000E-03 0. -1.
        -11    1    3    3    0    0 -0.24463643195E+01  0.83400185104E+01  0.31872453446E+01  0.92573830149E+01  0.51100000000E-03 0.  1.
         12    1    3    3    0    0 -0.14375952000E+01  0.14331639384E+00  0.12113745664E+01  0.18853773861E+01  0.00000000000E+00 0. -1.
</event>
<event>
 7    1  0.2312612E-008  0.4614233E+02  0.7816164E-02  0.1320468E+00
        -11   -1    0    0    0    0  0.00000000000E+00  0.00000000000E+00  0.45593999997E+02  0.45594000000E+02  0.51100000000E-03 0. -1.
         11   -1    0    0    0    0 -0.00000000000E+00 -0.00000000000E+00 -0.45593999997E+02  0.45594000000E+02  0.51100000000E-03 0.  1.
    9900012    2    1    2    0    0 -0.65964693639E+01  0.34028606843E+02 -0.28768955589E+02  0.46142330980E+02  0.10000120542E+02 0.  0.
         12    1    1    2    0    0  0.65964693639E+01 -0.34028606843E+02  0.28768955589E+02  0.45045669020E+02  0.00000000000E+00 0. -1.
         11    1    3    3    0    0  0.11773543412E+01  0.75067955007E+01 -0.58924746688E+01  0.96155811014E+01  0.51100000000E-03 0. -1.
        -11    1    3    3    0    0 -0.42492905523E+01  0.22864956833E+02 -0.17309294400E+02  0.28990936413E+02  0.51100000000E-03 0.  1.
         12    1    3    3    0    0 -0.35245331528E+01  0.36568545088E+01 -0.55671865204E+01  0.75358134662E+01  0.00000000000E+00 0. -1.
</event>
<event>
 7    1  0.2312612E-008  0.4614232E+02  0.7816164E-02  0.1320468E+00
        -11   -1    0    0    0    0  0.00000000000E+00  0.00000000000E+00  0.45593999997E+02  0.45594000000E+02  0.51100000000E-03 0.  1.
         11   -1    0    0    0    0 -0.00000000000E+00 -0.00000000000E+00 -0.45593999997E+02  0.45594000000E+02  0.51100000000E-03 0. -1.
    9900012    2    1    2    0    0  0.26922208609E+02 -0.63518675399E+01  0.35552241226E+02  0.46142318810E+02  0.10000009565E+02 0.  0.
         12    1    1    2    0    0 -0.26922208609E+02  0.63518675399E+01 -0.35552241226E+02  0.45045681190E+02  0.00000000000E+00 0. -1.
         11    1    3    3    0    0 -0.41536434342E-01 -0.49453013750E+00 -0.21464010944E+00  0.54069951911E+00  0.51100000000E-03 0. -1.
        -11    1    3    3    0    0  0.25503012945E+02 -0.40225652543E+01  0.31462480400E+02  0.40699783459E+02  0.51100000000E-03 0.  1.
         12    1    3    3    0    0  0.14607320992E+01 -0.18347721481E+01  0.43044009361E+01  0.49018358316E+01  0.00000000000E+00 0. -1.
</event>
<event>
 7    1  0.2312612E-008  0.4614232E+02  0.7816164E-02  0.1320468E+00
        -11   -1    0    0    0    0  0.00000000000E+00  0.00000000000E+00  0.45593999997E+02  0.45594000000E+02  0.51100000000E-03 0.  1.
         11   -1    0    0    0    0 -0.00000000000E+00 -0.00000000000E+00 -0.45593999997E+02  0.45594000000E+02  0.51100000000E-03 0. -1.
    9900012    2    1    2    0    0  0.33297220257E+02 -0.19488393792E+02  0.23251047102E+02  0.46142316957E+02  0.99999926710E+01 0.  0.
         12    1    1    2    0    0 -0.33297220257E+02  0.19488393792E+02 -0.23251047102E+02  0.45045683043E+02  0.00000000000E+00 0. -1.
         11    1    3    3    0    0  0.51050897831E+01 -0.46851310805E+01  0.14265963416E+01  0.70744308829E+01  0.51100000000E-03 0.  1.
        -11    1    3    3    0    0  0.27797884042E+01 -0.24889340915E+01  0.48529862397E+01  0.61215596205E+01  0.51100000000E-03 0. -1.
        -12    1    3    3    0    0  0.25412342070E+02 -0.12314328620E+02  0.16971464520E+02  0.32946326454E+02  0.00000000000E+00 0.  1.
</event>
<event>
 7    1  0.2312612E-008  0.4614232E+02  0.7816164E-02  0.1320468E+00
        -11   -1    0    0    0    0  0.00000000000E+00  0.00000000000E+00  0.45593999997E+02  0.45594000000E+02  0.51100000000E-03 0.  1.
         11   -1    0    0    0    0 -0.00000000000E+00 -0.00000000000E+00 -0.45593999997E+02  0.45594000000E+02  0.51100000000E-03 0. -1.
    9900012    2    1    2    0    0 -0.89187139822E+01  0.22395227088E+01  0.44097103834E+02  0.46142317769E+02  0.10000000075E+02 0.  0.
         12    1    1    2    0    0  0.89187139822E+01 -0.22395227088E+01 -0.44097103834E+02  0.45045682231E+02  0.00000000000E+00 0. -1.
         11    1    3    3    0    0 -0.18634484324E+01  0.20287603123E+01  0.68181305290E+01  0.73535850194E+01  0.51100000000E-03 0. -1.
        -11    1    3    3    0    0  0.14784871949E+01 -0.13871975438E+01  0.76249297322E+01  0.78898539336E+01  0.51100000000E-03 0.  1.
         12    1    3    3    0    0 -0.85337527446E+01  0.15979599403E+01  0.29654043573E+02  0.30898878816E+02  0.00000000000E+00 0. -1.
</event>
<event>
 7    1  0.2312612E-008  0.4614232E+02  0.7816164E-02  0.1320468E+00
        -11   -1    0    0    0    0  0.00000000000E+00  0.00000000000E+00  0.45593999997E+02  0.45594000000E+02  0.51100000000E-03 0.  1.
         11   -1    0    0    0    0 -0.00000000000E+00 -0.00000000000E+00 -0.45593999997E+02  0.45594000000E+02  0.51100000000E-03 0. -1.
    9900012    2    1    2    0    0  0.17701112177E+02 -0.34831425165E+02  0.22417761102E+02  0.46142316920E+02  0.99999923313E+01 0.  0.
         12    1    1    2    0    0 -0.17701112177E+02  0.34831425165E+02 -0.22417761102E+02  0.45045683080E+02  0.00000000000E+00 0. -1.
         11    1    3    3    0    0  0.18087076669E+01 -0.17470472774E+01  0.26888606704E+01  0.36815172931E+01  0.51100000000E-03 0. -1.
        -11    1    3    3    0    0  0.44324271592E+01 -0.76833118295E+01  0.10934567871E+01  0.89373004424E+01  0.51100000000E-03 0.  1.
        -12    1    3    3    0    0  0.11459977351E+02 -0.25401066058E+02  0.18635443645E+02  0.33523499185E+02  0.00000000000E+00 0.  1.
</event>
<event>
 7    1  0.2312612E-008  0.4614232E+02  0.7816164E-02  0.1320468E+00
        -11   -1    0    0    0    0  0.00000000000E+00  0.00000000000E+00  0.45593999997E+02  0.45594000000E+02  0.51100000000E-03 0.  1.
         11   -1    0    0    0    0 -0.00000000000E+00 -0.00000000000E+00 -0.45593999997E+02  0.45594000000E+02  0.51100000000E-03 0. -1.
    9900012    2    1    2    0    0 -0.41563105171E+02 -0.16551638748E+02  0.52597571492E+01  0.46142317610E+02  0.99999986234E+01 0.  0.
         12    1    1    2    0    0  0.41563105171E+02  0.16551638748E+02 -0.52597571492E+01  0.45045682390E+02  0.00000000000E+00 0. -1.
         11    1    3    3    0    0  0.19920831903E+00 -0.15305128851E+00 -0.24312601228E+00  0.34959858446E+00  0.51100000000E-03 0. -1.
        -11    1    3    3    0    0 -0.40523278229E+02 -0.15343949899E+02  0.38957821481E+01  0.43505746698E+02  0.51100000000E-03 0.  1.
        -12    1    3    3    0    0 -0.12390352615E+01 -0.10546375602E+01  0.16071010134E+01  0.22869723281E+01  0.00000000000E+00 0.  1.
</event>
<event>
 7    1  0.2312612E-008  0.4614232E+02  0.7816164E-02  0.1320468E+00
        -11   -1    0    0    0    0  0.00000000000E+00  0.00000000000E+00  0.45593999997E+02  0.45594000000E+02  0.51100000000E-03 0.  1.
         11   -1    0    0    0    0 -0.00000000000E+00 -0.00000000000E+00 -0.45593999997E+02  0.45594000000E+02  0.51100000000E-03 0. -1.
    9900012    2    1    2    0    0 -0.30635429207E+02  0.26388559416E+01  0.32918389998E+02  0.46142317816E+02  0.10000000500E+02 0.  0.
         12    1    1    2    0    0  0.30635429207E+02 -0.26388559416E+01 -0.32918389998E+02  0.45045682184E+02  0.00000000000E+00 0. -1.
         11    1    3    3    0    0 -0.80229671258E+00 -0.12789662312E+01  0.38593488083E+01  0.41441534866E+01  0.51100000000E-03 0. -1.
        -11    1    3    3    0    0 -0.22448204610E+02  0.22724744649E+01  0.23725726717E+02  0.32741352125E+02  0.51100000000E-03 0.  1.
        -12    1    3    3    0    0 -0.73849278839E+01  0.16453477079E+01  0.53333144724E+01  0.92568122047E+01  0.00000000000E+00 0.  1.
</event>
<event>
 7    1  0.2312612E-008  0.4614232E+02  0.7816164E-02  0.1320468E+00
        -11   -1    0    0    0    0  0.00000000000E+00  0.00000000000E+00  0.45593999997E+02  0.45594000000E+02  0.51100000000E-03 0. -1.
         11   -1    0    0    0    0 -0.00000000000E+00 -0.00000000000E+00 -0.45593999997E+02  0.45594000000E+02  0.51100000000E-03 0.  1.
    9900012    2    1    2    0    0  0.42770770578E+01  0.22299341340E+02 -0.38904491554E+02  0.46142317905E+02  0.10000001308E+02 0.  0.
         12    1    1    2    0    0 -0.42770770578E+01 -0.22299341340E+02  0.38904491554E+02  0.45045682095E+02  0.00000000000E+00 0. -1.
         11    1    3    3    0    0  0.65359728376E+00  0.99072961072E+01 -0.18136387380E+02  0.20676321071E+02  0.51100000000E-03 0. -1.
        -11    1    3    3    0    0  0.16453986894E+01  0.35612892512E+01 -0.12869703800E+02  0.13454344805E+02  0.51100000000E-03 0.  1.
         12    1    3    3    0    0  0.19780810847E+01  0.88307559818E+01 -0.78984003747E+01  0.12011652029E+02  0.00000000000E+00 0. -1.
</event>
<event>
 7    1  0.2312612E-008  0.4614232E+02  0.7816164E-02  0.1320468E+00
        -11   -1    0    0    0    0  0.00000000000E+00  0.00000000000E+00  0.45593999997E+02  0.45594000000E+02  0.51100000000E-03 0. -1.
         11   -1    0    0    0    0 -0.00000000000E+00 -0.00000000000E+00 -0.45593999997E+02  0.45594000000E+02  0.51100000000E-03 0.  1.
    9900012    2    1    2    0    0  0.29838307114E+02 -0.24614831957E+02 -0.23084605658E+02  0.46142317165E+02  0.99999945661E+01 0.  0.
         12    1    1    2    0    0 -0.29838307114E+02  0.24614831957E+02  0.23084605658E+02  0.45045682835E+02  0.00000000000E+00 0. -1.
         11    1    3    3    0    0  0.16107513237E+02 -0.84261448610E+01 -0.70255808175E+01  0.19488732282E+02  0.51100000000E-03 0. -1.
        -11    1    3    3    0    0  0.96182161220E+01 -0.11295906034E+02 -0.10415705840E+02  0.18127175812E+02  0.51100000000E-03 0.  1.
         12    1    3    3    0    0  0.41125777550E+01 -0.48927810612E+01 -0.56433190006E+01  0.85264090710E+01  0.00000000000E+00 0. -1.
</event>
<event>
 7    1  0.2312612E-008  0.4614232E+02  0.7816164E-02  0.1320468E+00
        -11   -1    0    0    0    0  0.00000000000E+00  0.00000000000E+00  0.45593999997E+02  0.45594000000E+02  0.51100000000E-03 0.  1.
         11   -1    0    0    0    0 -0.00000000000E+00 -0.00000000000E+00 -0.45593999997E+02  0.45594000000E+02  0.51100000000E-03 0. -1.
    9900012    2    1    2    0    0 -0.13541924113E+02 -0.42912819872E+02 -0.20541818324E+01  0.46142317843E+02  0.10000000743E+02 0.  0.
         12    1    1    2    0    0  0.13541924113E+02  0.42912819872E+02  0.20541818324E+01  0.45045682157E+02  0.00000000000E+00 0. -1.
         11    1    3    3    0    0 -0.10162111003E+02 -0.19803708779E+02 -0.17277239431E+01  0.22325779085E+02  0.51100000000E-03 0. -1.
        -11    1    3    3    0    0 -0.26673602036E+01 -0.49046789769E+01 -0.40836988916E+00  0.55979864728E+01  0.51100000000E-03 0.  1.
        -12    1    3    3    0    0 -0.71245290653E+00 -0.18204432116E+02  0.81911999923E-01  0.18218552285E+02  0.00000000000E+00 0.  1.
</event>
<event>
 7    1  0.2312612E-008  0.4614232E+02  0.7816164E-02  0.1320468E+00
        -11   -1    0    0    0    0  0.00000000000E+00  0.00000000000E+00  0.45593999997E+02  0.45594000000E+02  0.51100000000E-03 0.  1.
         11   -1    0    0    0    0 -0.00000000000E+00 -0.00000000000E+00 -0.45593999997E+02  0.45594000000E+02  0.51100000000E-03 0. -1.
    9900012    2    1    2    0    0 -0.26973607628E+02  0.34404082674E+02  0.10858047100E+02  0.46142316523E+02  0.99999887091E+01 0.  0.
         12    1    1    2    0    0  0.26973607628E+02 -0.34404082674E+02 -0.10858047100E+02  0.45045683477E+02  0.00000000000E+00 0. -1.
         11    1    3    3    0    0 -0.17752210342E+02  0.17349821577E+02  0.41652234753E+01  0.25169552393E+02  0.51100000000E-03 0. -1.
        -11    1    3    3    0    0 -0.89695464300E+01  0.14576352367E+02  0.46073830561E+01  0.17724299433E+02  0.51100000000E-03 0.  1.
         12    1    3    3    0    0 -0.25185085573E+00  0.24779087293E+01  0.20854405688E+01  0.32484646975E+01  0.00000000000E+00 0. -1.
</event>
<event>
 7    1  0.2312612E-008  0.4614232E+02  0.7816164E-02  0.1320468E+00
        -11   -1    0    0    0    0  0.00000000000E+00  0.00000000000E+00  0.45593999997E+02  0.45594000000E+02  0.51100000000E-03 0. -1.
         11   -1    0    0    0    0 -0.00000000000E+00 -0.00000000000E+00 -0.45593999997E+02  0.45594000000E+02  0.51100000000E-03 0.  1.
    9900012    2    1    2    0    0 -0.25003338328E+01 -0.60713068721E+01 -0.44564571893E+02  0.46142317583E+02  0.99999983725E+01 0.  0.
         12    1    1    2    0    0  0.25003338328E+01  0.60713068721E+01  0.44564571893E+02  0.45045682417E+02  0.00000000000E+00 0. -1.
         11    1    3    3    0    0  0.70946760268E+00  0.13026331751E+01 -0.96630289358E+01  0.97762122493E+01  0.51100000000E-03 0. -1.
        -11    1    3    3    0    0 -0.51294404664E+01 -0.56789868342E+01 -0.26529501256E+02  0.27611166004E+02  0.51100000000E-03 0.  1.
        -12    1    3    3    0    0  0.19196390309E+01 -0.16949532131E+01 -0.83720417017E+01  0.87549393293E+01  0.00000000000E+00 0.  1.
</event>
<event>
 7    1  0.2312612E-008  0.4614232E+02  0.7816164E-02  0.1320468E+00
        -11   -1    0    0    0    0  0.00000000000E+00  0.00000000000E+00  0.45593999997E+02  0.45594000000E+02  0.51100000000E-03 0. -1.
         11   -1    0    0    0    0 -0.00000000000E+00 -0.00000000000E+00 -0.45593999997E+02  0.45594000000E+02  0.51100000000E-03 0.  1.
    9900012    2    1    2    0    0 -0.11404279145E+02  0.43082297899E+02  0.65552642169E+01  0.46142318031E+02  0.10000002463E+02 0.  0.
         12    1    1    2    0    0  0.11404279145E+02 -0.43082297899E+02 -0.65552642169E+01  0.45045681969E+02  0.00000000000E+00 0. -1.
         11    1    3    3    0    0 -0.74645362918E+01  0.19192933840E+02  0.18210588568E+01  0.20673757933E+02  0.51100000000E-03 0. -1.
        -11    1    3    3    0    0 -0.20987785859E+01  0.22709589082E+02  0.46785124886E+01  0.23281296940E+02  0.51100000000E-03 0.  1.
         12    1    3    3    0    0 -0.18409642672E+01  0.11797749766E+01  0.55692871551E-01  0.21872631585E+01  0.00000000000E+00 0. -1.
</event>
<event>
 7    1  0.2312612E-008  0.4614232E+02  0.7816164E-02  0.1320468E+00
        -11   -1    0    0    0    0  0.00000000000E+00  0.00000000000E+00  0.45593999997E+02  0.45594000000E+02  0.51100000000E-03 0.  1.
         11   -1    0    0    0    0 -0.00000000000E+00 -0.00000000000E+00 -0.45593999997E+02  0.45594000000E+02  0.51100000000E-03 0. -1.
    9900012    2    1    2    0    0 -0.29386257034E+02  0.30463199892E+02  0.15412813299E+02  0.46142318033E+02  0.10000002477E+02 0.  0.
         12    1    1    2    0    0  0.29386257034E+02 -0.30463199892E+02 -0.15412813299E+02  0.45045681967E+02  0.00000000000E+00 0. -1.
         11    1    3    3    0    0 -0.64260269894E+01  0.11540176413E+02  0.63314776011E+01  0.14647767864E+02  0.51100000000E-03 0.  1.
        -11    1    3    3    0    0 -0.12477008356E+01 -0.11595336934E+00  0.12182641062E+00  0.12589855021E+01  0.51100000000E-03 0. -1.
         12    1    3    3    0    0 -0.21712529209E+02  0.19038976848E+02  0.89595092877E+01  0.30235564667E+02  0.00000000000E+00 0. -1.
</event>
<event>
 7    1  0.2312612E-008  0.4614232E+02  0.7816164E-02  0.1320468E+00
        -11   -1    0    0    0    0  0.00000000000E+00  0.00000000000E+00  0.45593999997E+02  0.45594000000E+02  0.51100000000E-03 0.  1.
         11   -1    0    0    0    0 -0.00000000000E+00 -0.00000000000E+00 -0.45593999997E+02  0.45594000000E+02  0.51100000000E-03 0. -1.
    9900012    2    1    2    0    0  0.17634022395E+02  0.39771513845E+02  0.11678245208E+02  0.46142317960E+02  0.10000001812E+02 0.  0.
         12    1    1    2    0    0 -0.17634022395E+02 -0.39771513845E+02 -0.11678245208E+02  0.45045682040E+02  0.00000000000E+00 0. -1.
         11    1    3    3    0    0  0.19002510646E+01  0.34279858647E+01  0.16817338726E+01  0.42650053079E+01  0.51100000000E-03 0. -1.
        -11    1    3    3    0    0  0.16016986634E+02  0.32194017092E+02  0.10991694236E+02  0.37600743873E+02  0.51100000000E-03 0.  1.
         12    1    3    3    0    0 -0.28321530322E+00  0.41495108878E+01 -0.99518290064E+00  0.42765687790E+01  0.00000000000E+00 0. -1.
</event>
<event>
 7    1  0.2312612E-008  0.4614232E+02  0.7816164E-02  0.1320468E+00
        -11   -1    0    0    0    0  0.00000000000E+00  0.00000000000E+00  0.45593999997E+02  0.45594000000E+02  0.51100000000E-03 0.  1.
         11   -1    0    0    0    0 -0.00000000000E+00 -0.00000000000E+00 -0.45593999997E+02  0.45594000000E+02  0.51100000000E-03 0. -1.
    9900012    2    1    2    0    0 -0.12360651929E+02  0.35009674806E+02  0.25507848658E+02  0.46142318861E+02  0.10000010031E+02 0.  0.
         12    1    1    2    0    0  0.12360651929E+02 -0.35009674806E+02 -0.25507848658E+02  0.45045681139E+02  0.00000000000E+00 0. -1.
         11    1    3    3    0    0 -0.87256526523E+01  0.20332899022E+02  0.11295674208E+02  0.24842625725E+02  0.51100000000E-03 0. -1.
        -11    1    3    3    0    0 -0.29314529821E+01  0.14007446391E+02  0.11313638859E+02  0.18242817641E+02  0.51100000000E-03 0.  1.
         12    1    3    3    0    0 -0.70354629493E+00  0.66932939338E+00  0.28985355903E+01  0.30568754953E+01  0.00000000000E+00 0. -1.
</event>
<event>
 7    1  0.2312612E-008  0.4614232E+02  0.7816164E-02  0.1320468E+00
        -11   -1    0    0    0    0  0.00000000000E+00  0.00000000000E+00  0.45593999997E+02  0.45594000000E+02  0.51100000000E-03 0.  1.
         11   -1    0    0    0    0 -0.00000000000E+00 -0.00000000000E+00 -0.45593999997E+02  0.45594000000E+02  0.51100000000E-03 0. -1.
    9900012    2    1    2    0    0 -0.97769865667E+01 -0.22908341736E+02  0.37533078769E+02  0.46142316641E+02  0.99999897860E+01 0.  0.
         12    1    1    2    0    0  0.97769865667E+01  0.22908341736E+02 -0.37533078769E+02  0.45045683359E+02  0.00000000000E+00 0. -1.
         11    1    3    3    0    0  0.19078537023E+00 -0.64652615973E+01  0.43993289880E+01  0.78224102670E+01  0.51100000000E-03 0. -1.
        -11    1    3    3    0    0 -0.55316966698E+01 -0.97915944770E+01  0.19941432997E+02  0.22894011022E+02  0.51100000000E-03 0.  1.
         12    1    3    3    0    0 -0.44360752672E+01 -0.66514856613E+01  0.13192316784E+02  0.15425895352E+02  0.00000000000E+00 0. -1.
</event>
<event>
 7    1  0.2312612E-008  0.4614232E+02  0.7816164E-02  0.1320468E+00
        -11   -1    0    0    0    0  0.00000000000E+00  0.00000000000E+00  0.45593999997E+02  0.45594000000E+02  0.51100000000E-03 0. -1.
         11   -1    0    0    0    0 -0.00000000000E+00 -0.00000000000E+00 -0.45593999997E+02  0.45594000000E+02  0.51100000000E-03 0.  1.
    9900012    2    1    2    0    0 -0.18457673047E+02  0.25136603968E+02 -0.32505058696E+02  0.46142318807E+02  0.10000009535E+02 0.  0.
         12    1    1    2    0    0  0.18457673047E+02 -0.25136603968E+02  0.32505058696E+02  0.45045681193E+02  0.00000000000E+00 0. -1.
         11    1    3    3    0    0 -0.36727210928E+01  0.18286472281E+01 -0.58165939804E+01  0.71179770093E+01  0.51100000000E-03 0. -1.
        -11    1    3    3    0    0 -0.70189974481E-01  0.21222305993E+00  0.42968341408E+00  0.48434838406E+00  0.51100000000E-03 0.  1.
        -12    1    3    3    0    0 -0.14714761979E+02  0.23095733680E+02 -0.27118148130E+02  0.38539993413E+02  0.00000000000E+00 0.  1.
</event>
<event>
 7    1  0.2312612E-008  0.4614232E+02  0.7816164E-02  0.1320468E+00
        -11   -1    0    0    0    0  0.00000000000E+00  0.00000000000E+00  0.45593999997E+02  0.45594000000E+02  0.51100000000E-03 0.  1.
         11   -1    0    0    0    0 -0.00000000000E+00 -0.00000000000E+00 -0.45593999997E+02  0.45594000000E+02  0.51100000000E-03 0. -1.
    9900012    2    1    2    0    0  0.21102864455E+01 -0.82578041104E+00  0.44988645899E+02  0.46142317832E+02  0.10000000644E+02 0.  0.
         12    1    1    2    0    0 -0.21102864455E+01  0.82578041104E+00 -0.44988645899E+02  0.45045682168E+02  0.00000000000E+00 0. -1.
         11    1    3    3    0    0 -0.18972418036E+01  0.18767636306E+01  0.30017577313E+02  0.30135970470E+02  0.51100000000E-03 0.  1.
        -11    1    3    3    0    0  0.52929188428E+00 -0.10381671431E+01  0.10757218473E+01  0.15859125669E+01  0.51100000000E-03 0. -1.
        -12    1    3    3    0    0  0.34782363648E+01 -0.16643768985E+01  0.13895346739E+02  0.14420434795E+02  0.00000000000E+00 0.  1.
</event>
<event>
 7    1  0.2312612E-008  0.4614232E+02  0.7816164E-02  0.1320468E+00
        -11   -1    0    0    0    0  0.00000000000E+00  0.00000000000E+00  0.45593999997E+02  0.45594000000E+02  0.51100000000E-03 0.  1.
         11   -1    0    0    0    0 -0.00000000000E+00 -0.00000000000E+00 -0.45593999997E+02  0.45594000000E+02  0.51100000000E-03 0. -1.
    9900012    2    1    2    0    0 -0.42111797175E+02 -0.72242274244E+01  0.14266064515E+02  0.46142317411E+02  0.99999968079E+01 0.  0.
         12    1    1    2    0    0  0.42111797175E+02  0.72242274244E+01 -0.14266064515E+02  0.45045682589E+02  0.00000000000E+00 0. -1.
         11    1    3    3    0    0 -0.17267636514E+02 -0.18775698834E+01  0.11087505651E+01  0.17404765655E+02  0.51100000000E-03 0. -1.
        -11    1    3    3    0    0 -0.16661466918E+02 -0.45655620783E+01  0.80401771836E+01  0.19055006858E+02  0.51100000000E-03 0.  1.
        -12    1    3    3    0    0 -0.81826937425E+01 -0.78109546264E+00  0.51171367667E+01  0.96825448976E+01  0.00000000000E+00 0.  1.
</event>
<event>
 7    1  0.2312612E-008  0.4614232E+02  0.7816164E-02  0.1320468E+00
        -11   -1    0    0    0    0  0.00000000000E+00  0.00000000000E+00  0.45593999997E+02  0.45594000000E+02  0.51100000000E-03 0.  1.
         11   -1    0    0    0    0 -0.00000000000E+00 -0.00000000000E+00 -0.45593999997E+02  0.45594000000E+02  0.51100000000E-03 0. -1.
    9900012    2    1    2    0    0  0.23913704972E+02 -0.48393574387E+01  0.37865932978E+02  0.46142317119E+02  0.99999941408E+01 0.  0.
         12    1    1    2    0    0 -0.23913704972E+02  0.48393574387E+01 -0.37865932978E+02  0.45045682881E+02  0.00000000000E+00 0. -1.
         11    1    3    3    0    0  0.76960746806E+00 -0.97275519930E+00  0.37582226987E+00  0.12960675030E+01  0.51100000000E-03 0. -1.
        -11    1    3    3    0    0  0.21651274810E+00  0.93363337131E+00  0.54974387803E+00  0.11048835390E+01  0.51100000000E-03 0.  1.
        -12    1    3    3    0    0  0.22927584756E+02 -0.48002356108E+01  0.36940366831E+02  0.43741366077E+02  0.00000000000E+00 0.  1.
</event>
<event>
 7    1  0.2312612E-008  0.4614232E+02  0.7816164E-02  0.1320468E+00
        -11   -1    0    0    0    0  0.00000000000E+00  0.00000000000E+00  0.45593999997E+02  0.45594000000E+02  0.51100000000E-03 0.  1.
         11   -1    0    0    0    0 -0.00000000000E+00 -0.00000000000E+00 -0.45593999997E+02  0.45594000000E+02  0.51100000000E-03 0. -1.
    9900012    2    1    2    0    0  0.24219236849E+02  0.16327453468E+02  0.34292221200E+02  0.46142316465E+02  0.99999881822E+01 0.  0.
         12    1    1    2    0    0 -0.24219236849E+02 -0.16327453468E+02 -0.34292221200E+02  0.45045683535E+02  0.00000000000E+00 0. -1.
         11    1    3    3    0    0  0.16250460539E+01  0.38970268914E+01  0.47980395505E+01  0.63913048010E+01  0.51100000000E-03 0. -1.
        -11    1    3    3    0    0  0.11073639911E+02  0.43966710826E+01  0.91176096850E+01  0.15002900523E+02  0.51100000000E-03 0.  1.
        -12    1    3    3    0    0  0.11520550884E+02  0.80337554937E+01  0.20376571965E+02  0.24748111141E+02  0.00000000000E+00 0.  1.
</event>
<event>
 7    1  0.2312612E-008  0.4614232E+02  0.7816164E-02  0.1320468E+00
        -11   -1    0    0    0    0  0.00000000000E+00  0.00000000000E+00  0.45593999997E+02  0.45594000000E+02  0.51100000000E-03 0.  1.
         11   -1    0    0    0    0 -0.00000000000E+00 -0.00000000000E+00 -0.45593999997E+02  0.45594000000E+02  0.51100000000E-03 0. -1.
    9900012    2    1    2    0    0 -0.29007982477E+02  0.18420385454E+02  0.29126271960E+02  0.46142319120E+02  0.10000012389E+02 0.  0.
         12    1    1    2    0    0  0.29007982477E+02 -0.18420385454E+02 -0.29126271960E+02  0.45045680880E+02  0.00000000000E+00 0. -1.
         11    1    3    3    0    0 -0.75131543750E+01  0.80076434733E+01  0.78520628836E+01  0.13499064206E+02  0.51100000000E-03 0. -1.
        -11    1    3    3    0    0 -0.23218952284E+00  0.16024378881E+01  0.23106181441E+01  0.28214669286E+01  0.51100000000E-03 0.  1.
        -12    1    3    3    0    0 -0.21262638579E+02  0.88103040923E+01  0.18963590932E+02  0.29821787985E+02  0.00000000000E+00 0.  1.
</event>
<event>
 7    1  0.2312612E-008  0.4614232E+02  0.7816164E-02  0.1320468E+00
        -11   -1    0    0    0    0  0.00000000000E+00  0.00000000000E+00  0.45593999997E+02  0.45594000000E+02  0.51100000000E-03 0. -1.
         11   -1    0    0    0    0 -0.00000000000E+00 -0.00000000000E+00 -0.45593999997E+02  0.45594000000E+02  0.51100000000E-03 0.  1.
    9900012    2    1    2    0    0 -0.41034104570E+02  0.17669124752E+02 -0.57548074589E+01  0.46142317452E+02  0.99999971802E+01 0.  0.
         12    1    1    2    0    0  0.41034104570E+02 -0.17669124752E+02  0.57548074589E+01  0.45045682548E+02  0.00000000000E+00 0. -1.
         11    1    3    3    0    0 -0.44890393365E+01  0.27560885705E+01  0.17023369406E+00  0.52703394715E+01  0.51100000000E-03 0. -1.
        -11    1    3    3    0    0 -0.93016816877E+01  0.62289730479E+01  0.15897404484E+01  0.11307018281E+02  0.51100000000E-03 0.  1.
        -12    1    3    3    0    0 -0.27243383546E+02  0.86840631334E+01 -0.75147816013E+01  0.29564959699E+02  0.00000000000E+00 0.  1.
</event>
<event>
 7    1  0.2312612E-008  0.4614232E+02  0.7816164E-02  0.1320468E+00
        -11   -1    0    0    0    0  0.00000000000E+00  0.00000000000E+00  0.45593999997E+02  0.45594000000E+02  0.51100000000E-03 0.  1.
         11   -1    0    0    0    0 -0.00000000000E+00 -0.00000000000E+00 -0.45593999997E+02  0.45594000000E+02  0.51100000000E-03 0. -1.
    9900012    2    1    2    0    0 -0.33292017851E+02  0.28761427724E+02  0.96713615435E+01  0.46142318616E+02  0.10000007792E+02 0.  0.
         12    1    1    2    0    0  0.33292017851E+02 -0.28761427724E+02 -0.96713615435E+01  0.45045681384E+02  0.00000000000E+00 0. -1.
         11    1    3    3    0    0 -0.24422485951E+02  0.21767722638E+02  0.49269622779E+01  0.33084233804E+02  0.51100000000E-03 0. -1.
        -11    1    3    3    0    0 -0.49528513117E+01  0.22581253132E+01  0.25829722351E+00  0.54494571989E+01  0.51100000000E-03 0.  1.
        -12    1    3    3    0    0 -0.39166805881E+01  0.47355797727E+01  0.44861020421E+01  0.76086276124E+01  0.00000000000E+00 0.  1.
</event>
<event>
 7    1  0.2312612E-008  0.4614233E+02  0.7816164E-02  0.1320468E+00
        -11   -1    0    0    0    0  0.00000000000E+00  0.00000000000E+00  0.45593999997E+02  0.45594000000E+02  0.51100000000E-03 0. -1.
         11   -1    0    0    0    0 -0.00000000000E+00 -0.00000000000E+00 -0.45593999997E+02  0.45594000000E+02  0.51100000000E-03 0.  1.
    9900012    2    1    2    0    0  0.38682118016E+02 -0.16541673484E+02  0.16099055402E+02  0.46142325394E+02  0.10000069602E+02 0.  0.
         12    1    1    2    0    0 -0.38682118016E+02  0.16541673484E+02 -0.16099055402E+02  0.45045674606E+02  0.00000000000E+00 0. -1.
         11    1    3    3    0    0  0.23627731096E+01  0.11790691595E+01  0.76814952216E-01  0.26417421616E+01  0.51100000000E-03 0. -1.
        -11    1    3    3    0    0  0.21094363743E+02 -0.99453513645E+01  0.84788920045E+01  0.24814790053E+02  0.51100000000E-03 0.  1.
         12    1    3    3    0    0  0.15224981163E+02 -0.77753912787E+01  0.75433484457E+01  0.18685793179E+02  0.00000000000E+00 0. -1.
</event>
<event>
 7    1  0.2312612E-008  0.4614232E+02  0.7816164E-02  0.1320468E+00
        -11   -1    0    0    0    0  0.00000000000E+00  0.00000000000E+00  0.45593999997E+02  0.45594000000E+02  0.51100000000E-03 0.  1.
         11   -1    0    0    0    0 -0.00000000000E+00 -0.00000000000E+00 -0.45593999997E+02  0.45594000000E+02  0.51100000000E-03 0. -1.
    9900012    2    1    2    0    0 -0.86552688864E+01 -0.34650608425E+02  0.27450595388E+02  0.46142317289E+02  0.99999956964E+01 0.  0.
         12    1    1    2    0    0  0.86552688864E+01  0.34650608425E+02 -0.27450595388E+02  0.45045682711E+02  0.00000000000E+00 0. -1.
         11    1    3    3    0    0 -0.20719575171E+01 -0.61668519249E+01  0.28192125143E+01  0.70902066315E+01  0.51100000000E-03 0. -1.
        -11    1    3    3    0    0 -0.77280894767E+00 -0.12322147895E+00  0.24780659645E+01  0.25986974407E+01  0.51100000000E-03 0.  1.
        -12    1    3    3    0    0 -0.58105024217E+01 -0.28360535021E+02  0.22153316909E+02  0.36453413217E+02  0.00000000000E+00 0.  1.
</event>
<event>
 7    1  0.2312612E-008  0.4614232E+02  0.7816164E-02  0.1320468E+00
        -11   -1    0    0    0    0  0.00000000000E+00  0.00000000000E+00  0.45593999997E+02  0.45594000000E+02  0.51100000000E-03 0. -1.
         11   -1    0    0    0    0 -0.00000000000E+00 -0.00000000000E+00 -0.45593999997E+02  0.45594000000E+02  0.51100000000E-03 0.  1.
    9900012    2    1    2    0    0  0.18476725123E+02  0.23411240035E+02 -0.33758523823E+02  0.46142318054E+02  0.10000002675E+02 0.  0.
         12    1    1    2    0    0 -0.18476725123E+02 -0.23411240035E+02  0.33758523823E+02  0.45045681946E+02  0.00000000000E+00 0. -1.
         11    1    3    3    0    0  0.65101391651E+01  0.89133839651E+01 -0.16952689354E+02  0.20229285758E+02  0.51100000000E-03 0. -1.
        -11    1    3    3    0    0  0.10390998987E+02  0.13710815374E+02 -0.12512717824E+02  0.21272692020E+02  0.51100000000E-03 0.  1.
        -12    1    3    3    0    0  0.15755869703E+01  0.78704069552E+00 -0.42931166452E+01  0.46403402770E+01  0.00000000000E+00 0.  1.
</event>
<event>
 7    1  0.2312612E-008  0.4614232E+02  0.7816164E-02  0.1320468E+00
        -11   -1    0    0    0    0  0.00000000000E+00  0.00000000000E+00  0.45593999997E+02  0.45594000000E+02  0.51100000000E-03 0.  1.
         11   -1    0    0    0    0 -0.00000000000E+00 -0.00000000000E+00 -0.45593999997E+02  0.45594000000E+02  0.51100000000E-03 0. -1.
    9900012    2    1    2    0    0 -0.72381151229E+01  0.37819528311E+02  0.23375335467E+02  0.46142319403E+02  0.10000014974E+02 0.  0.
         12    1    1    2    0    0  0.72381151229E+01 -0.37819528311E+02 -0.23375335467E+02  0.45045680597E+02  0.00000000000E+00 0. -1.
         11    1    3    3    0    0 -0.36621203551E+01  0.90891438514E+01  0.30713506155E+01  0.10269218875E+02  0.51100000000E-03 0. -1.
        -11    1    3    3    0    0 -0.44680152602E+01  0.19704485672E+02  0.11576597327E+02  0.23286208835E+02  0.51100000000E-03 0.  1.
        -12    1    3    3    0    0  0.89202049244E+00  0.90258987880E+01  0.87273875240E+01  0.12586891693E+02  0.00000000000E+00 0.  1.
</event>
<event>
 7    1  0.2312612E-008  0.4614232E+02  0.7816164E-02  0.1320468E+00
        -11   -1    0    0    0    0  0.00000000000E+00  0.00000000000E+00  0.45593999997E+02  0.45594000000E+02  0.51100000000E-03 0.  1.
         11   -1    0    0    0    0 -0.00000000000E+00 -0.00000000000E+00 -0.45593999997E+02  0.45594000000E+02  0.51100000000E-03 0. -1.
    9900012    2    1    2    0    0 -0.78407095881E+01 -0.54821580407E+01  0.44017981726E+02  0.46142317645E+02  0.99999989393E+01 0.  0.
         12    1    1    2    0    0  0.78407095881E+01  0.54821580407E+01 -0.44017981726E+02  0.45045682355E+02  0.00000000000E+00 0. -1.
         11    1    3    3    0    0 -0.12024192661E+01 -0.12501419893E+01  0.15806068461E+01  0.23466966885E+01  0.51100000000E-03 0. -1.
        -11    1    3    3    0    0 -0.56677516492E+01 -0.63228632572E+01  0.32072344791E+02  0.33177361395E+02  0.51100000000E-03 0.  1.
         12    1    3    3    0    0 -0.97053867276E+00  0.20908472059E+01  0.10365030089E+02  0.10618259561E+02  0.00000000000E+00 0. -1.
</event>
<event>
 7    1  0.2312612E-008  0.4614232E+02  0.7816164E-02  0.1320468E+00
        -11   -1    0    0    0    0  0.00000000000E+00  0.00000000000E+00  0.45593999997E+02  0.45594000000E+02  0.51100000000E-03 0.  1.
         11   -1    0    0    0    0 -0.00000000000E+00 -0.00000000000E+00 -0.45593999997E+02  0.45594000000E+02  0.51100000000E-03 0. -1.
    9900012    2    1    2    0    0 -0.11174248928E+02  0.12506554921E+02  0.41807124522E+02  0.46142318565E+02  0.10000007332E+02 0.  0.
         12    1    1    2    0    0  0.11174248928E+02 -0.12506554921E+02 -0.41807124522E+02  0.45045681435E+02  0.00000000000E+00 0. -1.
         11    1    3    3    0    0 -0.29518023377E+01  0.58405236595E+01  0.23960115433E+02  0.24837712968E+02  0.51100000000E-03 0.  1.
        -11    1    3    3    0    0 -0.28404275687E+01  0.52985634925E+01  0.10438878394E+02  0.12046285163E+02  0.51100000000E-03 0. -1.
         12    1    3    3    0    0 -0.53820190220E+01  0.13674677692E+01  0.74081306953E+01  0.92583204336E+01  0.00000000000E+00 0. -1.
</event>
<event>
 7    1  0.2312612E-008  0.4614232E+02  0.7816164E-02  0.1320468E+00
        -11   -1    0    0    0    0  0.00000000000E+00  0.00000000000E+00  0.45593999997E+02  0.45594000000E+02  0.51100000000E-03 0.  1.
         11   -1    0    0    0    0 -0.00000000000E+00 -0.00000000000E+00 -0.45593999997E+02  0.45594000000E+02  0.51100000000E-03 0. -1.
    9900012    2    1    2    0    0  0.26228722969E+02 -0.20501334359E+02  0.30345722893E+02  0.46142317443E+02  0.99999970996E+01 0.  0.
         12    1    1    2    0    0 -0.26228722969E+02  0.20501334359E+02 -0.30345722893E+02  0.45045682557E+02  0.00000000000E+00 0. -1.
         11    1    3    3    0    0  0.41665438207E+01 -0.62986549949E+01  0.62720364956E+01  0.98169029851E+01  0.51100000000E-03 0. -1.
        -11    1    3    3    0    0  0.54806681059E+01 -0.47312505086E+01  0.11051189617E+02  0.13211784379E+02  0.51100000000E-03 0.  1.
        -12    1    3    3    0    0  0.16581511043E+02 -0.94714288559E+01  0.13022496780E+02  0.23113630079E+02  0.00000000000E+00 0.  1.
</event>
<event>
 7    1  0.2312612E-008  0.4614232E+02  0.7816164E-02  0.1320468E+00
        -11   -1    0    0    0    0  0.00000000000E+00  0.00000000000E+00  0.45593999997E+02  0.45594000000E+02  0.51100000000E-03 0. -1.
         11   -1    0    0    0    0 -0.00000000000E+00 -0.00000000000E+00 -0.45593999997E+02  0.45594000000E+02  0.51100000000E-03 0.  1.
    9900012    2    1    2    0    0 -0.32819723494E+02  0.30851982216E+02  0.36661576209E+00  0.46142318031E+02  0.10000002465E+02 0.  0.
         12    1    1    2    0    0  0.32819723494E+02 -0.30851982216E+02 -0.36661576209E+00  0.45045681969E+02  0.00000000000E+00 0. -1.
         11    1    3    3    0    0 -0.17269696425E+02  0.16035667530E+02 -0.40023680040E+01  0.23904058183E+02  0.51100000000E-03 0. -1.
        -11    1    3    3    0    0 -0.10785154023E+02  0.98583560658E+01  0.11831923881E+01  0.14659695635E+02  0.51100000000E-03 0.  1.
         12    1    3    3    0    0 -0.47648730464E+01  0.49579586202E+01  0.31857913780E+01  0.75785642131E+01  0.00000000000E+00 0. -1.
</event>
<event>
 7    1  0.2312612E-008  0.4614232E+02  0.7816164E-02  0.1320468E+00
        -11   -1    0    0    0    0  0.00000000000E+00  0.00000000000E+00  0.45593999997E+02  0.45594000000E+02  0.51100000000E-03 0.  1.
         11   -1    0    0    0    0 -0.00000000000E+00 -0.00000000000E+00 -0.45593999997E+02  0.45594000000E+02  0.51100000000E-03 0. -1.
    9900012    2    1    2    0    0 -0.33504541261E+02  0.64462779493E+01  0.29410961170E+02  0.46142318504E+02  0.10000006772E+02 0.  0.
         12    1    1    2    0    0  0.33504541261E+02 -0.64462779493E+01 -0.29410961170E+02  0.45045681496E+02  0.00000000000E+00 0. -1.
         11    1    3    3    0    0 -0.14291592515E+02  0.61299869975E+01  0.11511681570E+02  0.19348001706E+02  0.51100000000E-03 0. -1.
        -11    1    3    3    0    0 -0.18486960896E+00  0.87556275688E+00  0.96246415473E+00  0.13142010591E+01  0.51100000000E-03 0.  1.
        -12    1    3    3    0    0 -0.19028079137E+02 -0.55927180510E+00  0.16936815445E+02  0.25480115738E+02  0.00000000000E+00 0.  1.
</event>
<event>
 7    1  0.2312612E-008  0.4614232E+02  0.7816164E-02  0.1320468E+00
        -11   -1    0    0    0    0  0.00000000000E+00  0.00000000000E+00  0.45593999997E+02  0.45594000000E+02  0.51100000000E-03 0. -1.
         11   -1    0    0    0    0 -0.00000000000E+00 -0.00000000000E+00 -0.45593999997E+02  0.45594000000E+02  0.51100000000E-03 0.  1.
    9900012    2    1    2    0    0  0.46060721283E+01  0.25563664736E+02 -0.36802128104E+02  0.46142317764E+02  0.10000000023E+02 0.  0.
         12    1    1    2    0    0 -0.46060721283E+01 -0.25563664736E+02  0.36802128104E+02  0.45045682236E+02  0.00000000000E+00 0. -1.
         11    1    3    3    0    0  0.51908739968E+00  0.45970343934E+01 -0.20453538004E+01  0.50582259116E+01  0.51100000000E-03 0. -1.
        -11    1    3    3    0    0  0.40377712425E+01  0.97310262726E+01 -0.19099844090E+02  0.21812852024E+02  0.51100000000E-03 0.  1.
        -12    1    3    3    0    0  0.49213486179E-01  0.11235604070E+02 -0.15656930214E+02  0.19271239828E+02  0.00000000000E+00 0.  1.
</event>
<event>
 7    1  0.2312612E-008  0.4614232E+02  0.7816164E-02  0.1320468E+00
        -11   -1    0    0    0    0  0.00000000000E+00  0.00000000000E+00  0.45593999997E+02  0.45594000000E+02  0.51100000000E-03 0. -1.
         11   -1    0    0    0    0 -0.00000000000E+00 -0.00000000000E+00 -0.45593999997E+02  0.45594000000E+02  0.51100000000E-03 0.  1.
    9900012    2    1    2    0    0 -0.34744920069E+02 -0.17745834568E+02 -0.22516422170E+02  0.46142318937E+02  0.10000010725E+02 0.  0.
         12    1    1    2    0    0  0.34744920069E+02  0.17745834568E+02  0.22516422170E+02  0.45045681063E+02  0.00000000000E+00 0. -1.
         11    1    3    3    0    0 -0.11024009686E+02 -0.15347729969E+01 -0.71700006379E+01  0.13239834860E+02  0.51100000000E-03 0. -1.
        -11    1    3    3    0    0 -0.14565613066E+02 -0.12422506802E+02 -0.91666465455E+01  0.21225059915E+02  0.51100000000E-03 0.  1.
        -12    1    3    3    0    0 -0.91552973170E+01 -0.37885547692E+01 -0.61797749863E+01  0.11677424163E+02  0.00000000000E+00 0.  1.
</event>
<event>
 7    1  0.2312612E-008  0.4614232E+02  0.7816164E-02  0.1320468E+00
        -11   -1    0    0    0    0  0.00000000000E+00  0.00000000000E+00  0.45593999997E+02  0.45594000000E+02  0.51100000000E-03 0. -1.
         11   -1    0    0    0    0 -0.00000000000E+00 -0.00000000000E+00 -0.45593999997E+02  0.45594000000E+02  0.51100000000E-03 0.  1.
    9900012    2    1    2    0    0  0.30691780634E+02  0.30924572669E+02 -0.11436727250E+02  0.46142319591E+02  0.10000016691E+02 0.  0.
         12    1    1    2    0    0 -0.30691780634E+02 -0.30924572669E+02  0.11436727250E+02  0.45045680409E+02  0.00000000000E+00 0. -1.
         11    1    3    3    0    0  0.39972431322E+01  0.70745211835E+01 -0.23116507771E+01  0.84481082031E+01  0.51100000000E-03 0.  1.
        -11    1    3    3    0    0  0.20191818038E+01  0.19389282606E+01  0.13008066378E+01  0.30868488992E+01  0.51100000000E-03 0. -1.
        -12    1    3    3    0    0  0.24675355698E+02  0.21911123225E+02 -0.10425883111E+02  0.34607362489E+02  0.00000000000E+00 0.  1.
</event>
<event>
 7    1  0.2312612E-008  0.4614232E+02  0.7816164E-02  0.1320468E+00
        -11   -1    0    0    0    0  0.00000000000E+00  0.00000000000E+00  0.45593999997E+02  0.45594000000E+02  0.51100000000E-03 0.  1.
         11   -1    0    0    0    0 -0.00000000000E+00 -0.00000000000E+00 -0.45593999997E+02  0.45594000000E+02  0.51100000000E-03 0. -1.
    9900012    2    1    2    0    0  0.50521624615E+01  0.38078151264E+02  0.23529631402E+02  0.46142317597E+02  0.99999985012E+01 0.  0.
         12    1    1    2    0    0 -0.50521624615E+01 -0.38078151264E+02 -0.23529631402E+02  0.45045682403E+02  0.00000000000E+00 0. -1.
         11    1    3    3    0    0  0.28074374507E+00  0.40679512492E+01  0.60864458154E+01  0.73261086084E+01  0.51100000000E-03 0. -1.
        -11    1    3    3    0    0  0.11595801919E+01  0.29832261075E+01  0.38017855545E+00  0.32231661802E+01  0.51100000000E-03 0.  1.
        -12    1    3    3    0    0  0.36118385245E+01  0.31026973908E+02  0.17063007031E+02  0.35593042808E+02  0.00000000000E+00 0.  1.
</event>
<event>
 7    1  0.2312612E-008  0.4614232E+02  0.7816164E-02  0.1320468E+00
        -11   -1    0    0    0    0  0.00000000000E+00  0.00000000000E+00  0.45593999997E+02  0.45594000000E+02  0.51100000000E-03 0. -1.
         11   -1    0    0    0    0 -0.00000000000E+00 -0.00000000000E+00 -0.45593999997E+02  0.45594000000E+02  0.51100000000E-03 0.  1.
    9900012    2    1    2    0    0  0.42722275199E+02 -0.53284501406E+01 -0.13248711081E+02  0.46142317361E+02  0.99999963507E+01 0.  0.
         12    1    1    2    0    0 -0.42722275199E+02  0.53284501406E+01  0.13248711081E+02  0.45045682639E+02  0.00000000000E+00 0. -1.
         11    1    3    3    0    0  0.54028740062E+01  0.14655600068E+01 -0.38283176061E+01  0.67819561791E+01  0.51100000000E-03 0. -1.
        -11    1    3    3    0    0  0.26979861856E+02 -0.30373021015E+01 -0.56552520031E+01  0.27733013275E+02  0.51100000000E-03 0.  1.
        -12    1    3    3    0    0  0.10339539337E+02 -0.37567080459E+01 -0.37651414716E+01  0.11627347907E+02  0.00000000000E+00 0.  1.
</event>
<event>
 7    1  0.2312612E-008  0.4614232E+02  0.7816164E-02  0.1320468E+00
        -11   -1    0    0    0    0  0.00000000000E+00  0.00000000000E+00  0.45593999997E+02  0.45594000000E+02  0.51100000000E-03 0.  1.
         11   -1    0    0    0    0 -0.00000000000E+00 -0.00000000000E+00 -0.45593999997E+02  0.45594000000E+02  0.51100000000E-03 0. -1.
    9900012    2    1    2    0    0 -0.43107463075E+02 -0.75601145099E+00  0.13049468193E+02  0.46142317119E+02  0.99999941470E+01 0.  0.
         12    1    1    2    0    0  0.43107463075E+02  0.75601145099E+00 -0.13049468193E+02  0.45045682881E+02  0.00000000000E+00 0. -1.
         11    1    3    3    0    0 -0.16091246972E+02  0.18983206075E+00  0.91092135442E+00  0.16118127786E+02  0.51100000000E-03 0. -1.
        -11    1    3    3    0    0 -0.11872207918E+02  0.37839009534E+00  0.28712622345E+01  0.12220337434E+02  0.51100000000E-03 0.  1.
         12    1    3    3    0    0 -0.15144008184E+02 -0.13242336071E+01  0.92672846044E+01  0.17803851900E+02  0.00000000000E+00 0. -1.
</event>
<event>
 7    1  0.2312612E-008  0.4614232E+02  0.7816164E-02  0.1320468E+00
        -11   -1    0    0    0    0  0.00000000000E+00  0.00000000000E+00  0.45593999997E+02  0.45594000000E+02  0.51100000000E-03 0.  1.
         11   -1    0    0    0    0 -0.00000000000E+00 -0.00000000000E+00 -0.45593999997E+02  0.45594000000E+02  0.51100000000E-03 0. -1.
    9900012    2    1    2    0    0 -0.15228058736E+02  0.35181206106E+02  0.23653800760E+02  0.46142319559E+02  0.10000016397E+02 0.  0.
         12    1    1    2    0    0  0.15228058736E+02 -0.35181206106E+02 -0.23653800760E+02  0.45045680441E+02  0.00000000000E+00 0. -1.
         11    1    3    3    0    0 -0.27199895037E+00  0.19000419980E+01 -0.22273306926E+00  0.19322922410E+01  0.51100000000E-03 0. -1.
        -11    1    3    3    0    0 -0.33351165497E+01  0.16250423768E+02  0.10474384331E+02  0.19619174356E+02  0.51100000000E-03 0.  1.
        -12    1    3    3    0    0 -0.11620943236E+02  0.17030740340E+02  0.13402149499E+02  0.24590852962E+02  0.00000000000E+00 0.  1.
</event>
<event>
 7    1  0.2312612E-008  0.4614232E+02  0.7816164E-02  0.1320468E+00
        -11   -1    0    0    0    0  0.00000000000E+00  0.00000000000E+00  0.45593999997E+02  0.45594000000E+02  0.51100000000E-03 0. -1.
         11   -1    0    0    0    0 -0.00000000000E+00 -0.00000000000E+00 -0.45593999997E+02  0.45594000000E+02  0.51100000000E-03 0.  1.
    9900012    2    1    2    0    0  0.23992826749E+02 -0.27304810094E+02 -0.26606484136E+02  0.46142318878E+02  0.10000010181E+02 0.  0.
         12    1    1    2    0    0 -0.23992826749E+02  0.27304810094E+02  0.26606484136E+02  0.45045681122E+02  0.00000000000E+00 0. -1.
         11    1    3    3    0    0  0.11208030584E+02 -0.11442199442E+02 -0.59599549533E+01  0.17089907576E+02  0.51100000000E-03 0. -1.
        -11    1    3    3    0    0  0.40207936125E+01 -0.54373722508E+01 -0.78921623461E+01  0.10393172039E+02  0.51100000000E-03 0.  1.
         12    1    3    3    0    0  0.87640025517E+01 -0.10425238402E+02 -0.12754366837E+02  0.18659239263E+02  0.00000000000E+00 0. -1.
</event>
<event>
 7    1  0.2312612E-008  0.4614232E+02  0.7816164E-02  0.1320468E+00
        -11   -1    0    0    0    0  0.00000000000E+00  0.00000000000E+00  0.45593999997E+02  0.45594000000E+02  0.51100000000E-03 0. -1.
         11   -1    0    0    0    0 -0.00000000000E+00 -0.00000000000E+00 -0.45593999997E+02  0.45594000000E+02  0.51100000000E-03 0.  1.
    9900012    2    1    2    0    0  0.31027205999E+02  0.32422139252E+02 -0.39026750464E+01  0.46142317651E+02  0.99999989964E+01 0.  0.
         12    1    1    2    0    0 -0.31027205999E+02 -0.32422139252E+02  0.39026750464E+01  0.45045682349E+02  0.00000000000E+00 0. -1.
         11    1    3    3    0    0  0.19150191084E+02  0.21552049072E+02 -0.66774537346E+01  0.29594070798E+02  0.51100000000E-03 0. -1.
        -11    1    3    3    0    0  0.97200148293E+01  0.10102259209E+02  0.25310850227E+01  0.14245726414E+02  0.51100000000E-03 0.  1.
         12    1    3    3    0    0  0.21570000861E+01  0.76783097061E+00  0.24369366550E+00  0.23025204393E+01  0.00000000000E+00 0. -1.
</event>
<event>
 7    1  0.2312612E-008  0.4614232E+02  0.7816164E-02  0.1320468E+00
        -11   -1    0    0    0    0  0.00000000000E+00  0.00000000000E+00  0.45593999997E+02  0.45594000000E+02  0.51100000000E-03 0.  1.
         11   -1    0    0    0    0 -0.00000000000E+00 -0.00000000000E+00 -0.45593999997E+02  0.45594000000E+02  0.51100000000E-03 0. -1.
    9900012    2    1    2    0    0  0.35417266694E+02 -0.11575961670E+02  0.25312601075E+02  0.46142318277E+02  0.10000004706E+02 0.  0.
         12    1    1    2    0    0 -0.35417266694E+02  0.11575961670E+02 -0.25312601075E+02  0.45045681723E+02  0.00000000000E+00 0. -1.
         11    1    3    3    0    0  0.46433080503E+01 -0.10185233191E+01  0.71175008113E+01  0.85590021300E+01  0.51100000000E-03 0. -1.
        -11    1    3    3    0    0  0.41487560987E+00  0.96120540780E-02  0.10981526991E+01  0.11739479438E+01  0.51100000000E-03 0.  1.
        -12    1    3    3    0    0  0.30359083034E+02 -0.10567050405E+02  0.17096947565E+02  0.36409368203E+02  0.00000000000E+00 0.  1.
</event>
<event>
 7    1  0.2312612E-008  0.4614232E+02  0.7816164E-02  0.1320468E+00
        -11   -1    0    0    0    0  0.00000000000E+00  0.00000000000E+00  0.45593999997E+02  0.45594000000E+02  0.51100000000E-03 0.  1.
         11   -1    0    0    0    0 -0.00000000000E+00 -0.00000000000E+00 -0.45593999997E+02  0.45594000000E+02  0.51100000000E-03 0. -1.
    9900012    2    1    2    0    0 -0.36283160906E+02 -0.23911620247E+02  0.11869298312E+02  0.46142316626E+02  0.99999896516E+01 0.  0.
         12    1    1    2    0    0  0.36283160906E+02  0.23911620247E+02 -0.11869298312E+02  0.45045683374E+02  0.00000000000E+00 0. -1.
         11    1    3    3    0    0 -0.85596804941E+01 -0.29686948745E+01  0.26976311809E+01  0.94529621637E+01  0.51100000000E-03 0. -1.
        -11    1    3    3    0    0 -0.27188274465E+02 -0.18247698402E+02  0.80344366658E+01  0.33715470309E+02  0.51100000000E-03 0.  1.
         12    1    3    3    0    0 -0.53520594748E+00 -0.26952269708E+01  0.11372304653E+01  0.29738841541E+01  0.00000000000E+00 0. -1.
</event>
<event>
 7    1  0.2312612E-008  0.4614232E+02  0.7816164E-02  0.1320468E+00
        -11   -1    0    0    0    0  0.00000000000E+00  0.00000000000E+00  0.45593999997E+02  0.45594000000E+02  0.51100000000E-03 0. -1.
         11   -1    0    0    0    0 -0.00000000000E+00 -0.00000000000E+00 -0.45593999997E+02  0.45594000000E+02  0.51100000000E-03 0.  1.
    9900012    2    1    2    0    0 -0.25831206952E+02 -0.31827825327E+02  0.18677568086E+02  0.46142320215E+02  0.10000022380E+02 0.  0.
         12    1    1    2    0    0  0.25831206952E+02  0.31827825327E+02 -0.18677568086E+02  0.45045679785E+02  0.00000000000E+00 0. -1.
         11    1    3    3    0    0 -0.19073724698E+01 -0.49140086736E+01  0.14241352705E+01  0.54601934501E+01  0.51100000000E-03 0. -1.
        -11    1    3    3    0    0 -0.71927410762E+01 -0.10363316134E+02  0.23665113294E+01  0.12834883000E+02  0.51100000000E-03 0.  1.
         12    1    3    3    0    0 -0.16731093406E+02 -0.16550500520E+02  0.14886921486E+02  0.27847243766E+02  0.00000000000E+00 0. -1.
</event>
<event>
 7    1  0.2312612E-008  0.4614232E+02  0.7816164E-02  0.1320468E+00
        -11   -1    0    0    0    0  0.00000000000E+00  0.00000000000E+00  0.45593999997E+02  0.45594000000E+02  0.51100000000E-03 0.  1.
         11   -1    0    0    0    0 -0.00000000000E+00 -0.00000000000E+00 -0.45593999997E+02  0.45594000000E+02  0.51100000000E-03 0. -1.
    9900012    2    1    2    0    0 -0.30510203578E+02  0.55315956905E+01 -0.32674798231E+02  0.46142317491E+02  0.99999975390E+01 0.  0.
         12    1    1    2    0    0  0.30510203578E+02 -0.55315956905E+01  0.32674798231E+02  0.45045682509E+02  0.00000000000E+00 0. -1.
         11    1    3    3    0    0 -0.12011061608E+02  0.15300674658E+01 -0.81456707121E+01  0.14593103132E+02  0.51100000000E-03 0. -1.
        -11    1    3    3    0    0 -0.31388533974E+01  0.31591960918E+01 -0.52308738957E+01  0.68698589920E+01  0.51100000000E-03 0.  1.
        -12    1    3    3    0    0 -0.15360288573E+02  0.84233213284E+00 -0.19298253623E+02  0.24679355368E+02  0.00000000000E+00 0.  1.
</event>
<event>
 7    1  0.2312612E-008  0.4614232E+02  0.7816164E-02  0.1320468E+00
        -11   -1    0    0    0    0  0.00000000000E+00  0.00000000000E+00  0.45593999997E+02  0.45594000000E+02  0.51100000000E-03 0.  1.
         11   -1    0    0    0    0 -0.00000000000E+00 -0.00000000000E+00 -0.45593999997E+02  0.45594000000E+02  0.51100000000E-03 0. -1.
    9900012    2    1    2    0    0  0.11821046597E+02 -0.43187453041E+02 -0.49213879416E+01  0.46142319829E+02  0.10000018856E+02 0.  0.
         12    1    1    2    0    0 -0.11821046597E+02  0.43187453041E+02  0.49213879416E+01  0.45045680171E+02  0.00000000000E+00 0. -1.
         11    1    3    3    0    0  0.10824201235E+01 -0.37272351462E+01  0.13687379225E+01  0.41155022683E+01  0.51100000000E-03 0. -1.
        -11    1    3    3    0    0  0.10319888141E+02 -0.35236381192E+02 -0.33616993797E+01  0.36870091860E+02  0.51100000000E-03 0.  1.
         12    1    3    3    0    0  0.41873833262E+00 -0.42238367026E+01 -0.29284264844E+01  0.51567257010E+01  0.00000000000E+00 0. -1.
</event>
<event>
 7    1  0.2312612E-008  0.4614232E+02  0.7816164E-02  0.1320468E+00
        -11   -1    0    0    0    0  0.00000000000E+00  0.00000000000E+00  0.45593999997E+02  0.45594000000E+02  0.51100000000E-03 0. -1.
         11   -1    0    0    0    0 -0.00000000000E+00 -0.00000000000E+00 -0.45593999997E+02  0.45594000000E+02  0.51100000000E-03 0.  1.
    9900012    2    1    2    0    0 -0.17280083734E+02 -0.37481775493E+02 -0.18045185078E+02  0.46142317715E+02  0.99999995817E+01 0.  0.
         12    1    1    2    0    0  0.17280083734E+02  0.37481775493E+02  0.18045185078E+02  0.45045682285E+02  0.00000000000E+00 0. -1.
         11    1    3    3    0    0 -0.11337165126E+02 -0.20644874561E+02 -0.11825705047E+02  0.26355065146E+02  0.51100000000E-03 0. -1.
        -11    1    3    3    0    0 -0.22999624310E+01 -0.13333426755E+02 -0.57823541573E+01  0.14714133208E+02  0.51100000000E-03 0.  1.
         12    1    3    3    0    0 -0.36429561766E+01 -0.35034741780E+01 -0.43712587371E+00  0.50731193609E+01  0.00000000000E+00 0. -1.
</event>
<event>
 7    1  0.2312612E-008  0.4614232E+02  0.7816164E-02  0.1320468E+00
        -11   -1    0    0    0    0  0.00000000000E+00  0.00000000000E+00  0.45593999997E+02  0.45594000000E+02  0.51100000000E-03 0. -1.
         11   -1    0    0    0    0 -0.00000000000E+00 -0.00000000000E+00 -0.45593999997E+02  0.45594000000E+02  0.51100000000E-03 0.  1.
    9900012    2    1    2    0    0 -0.40459504892E+01  0.37107373415E+02 -0.25214811174E+02  0.46142316748E+02  0.99999907603E+01 0.  0.
         12    1    1    2    0    0  0.40459504892E+01 -0.37107373415E+02  0.25214811174E+02  0.45045683252E+02  0.00000000000E+00 0. -1.
         11    1    3    3    0    0  0.65406282336E+00  0.53959162952E+00 -0.12180261897E+01  0.14840974913E+01  0.51100000000E-03 0. -1.
        -11    1    3    3    0    0 -0.19064047097E+01  0.27887332203E+02 -0.21318364848E+02  0.35154094447E+02  0.51100000000E-03 0.  1.
         12    1    3    3    0    0 -0.27936086029E+01  0.86804495821E+01 -0.26784201368E+01  0.95041248099E+01  0.00000000000E+00 0. -1.
</event>
<event>
 7    1  0.2312612E-008  0.4614232E+02  0.7816164E-02  0.1320468E+00
        -11   -1    0    0    0    0  0.00000000000E+00  0.00000000000E+00  0.45593999997E+02  0.45594000000E+02  0.51100000000E-03 0.  1.
         11   -1    0    0    0    0 -0.00000000000E+00 -0.00000000000E+00 -0.45593999997E+02  0.45594000000E+02  0.51100000000E-03 0. -1.
    9900012    2    1    2    0    0  0.41596796453E+02 -0.13667948242E+02  0.10583344462E+02  0.46142318028E+02  0.10000002437E+02 0.  0.
         12    1    1    2    0    0 -0.41596796453E+02  0.13667948242E+02 -0.10583344462E+02  0.45045681972E+02  0.00000000000E+00 0. -1.
         11    1    3    3    0    0  0.18497822971E+02 -0.42900997640E+01  0.57416757113E+01  0.19837874153E+02  0.51100000000E-03 0. -1.
        -11    1    3    3    0    0  0.19303600027E+02 -0.74622236736E+01  0.12405989377E+01  0.20732892758E+02  0.51100000000E-03 0.  1.
         12    1    3    3    0    0  0.37953734550E+01 -0.19156248043E+01  0.36010698132E+01  0.55715511173E+01  0.00000000000E+00 0. -1.
</event>
<event>
 7    1  0.2312612E-008  0.4614232E+02  0.7816164E-02  0.1320468E+00
        -11   -1    0    0    0    0  0.00000000000E+00  0.00000000000E+00  0.45593999997E+02  0.45594000000E+02  0.51100000000E-03 0.  1.
         11   -1    0    0    0    0 -0.00000000000E+00 -0.00000000000E+00 -0.45593999997E+02  0.45594000000E+02  0.51100000000E-03 0. -1.
    9900012    2    1    2    0    0 -0.24731832399E+02  0.27803038590E+01  0.37546235299E+02  0.46142318648E+02  0.10000008085E+02 0.  0.
         12    1    1    2    0    0  0.24731832399E+02 -0.27803038590E+01 -0.37546235299E+02  0.45045681352E+02  0.00000000000E+00 0. -1.
         11    1    3    3    0    0 -0.11444559684E+02 -0.97225614656E+00  0.13386079957E+02  0.17638320931E+02  0.51100000000E-03 0. -1.
        -11    1    3    3    0    0 -0.13214667241E+02  0.26075047112E+01  0.23715210454E+02  0.27273388463E+02  0.51100000000E-03 0.  1.
         12    1    3    3    0    0 -0.72605473974E-01  0.11450552943E+01  0.44494488718E+00  0.12306092534E+01  0.00000000000E+00 0. -1.
</event>
<event>
 7    1  0.2312612E-008  0.4614232E+02  0.7816164E-02  0.1320468E+00
        -11   -1    0    0    0    0  0.00000000000E+00  0.00000000000E+00  0.45593999997E+02  0.45594000000E+02  0.51100000000E-03 0. -1.
         11   -1    0    0    0    0 -0.00000000000E+00 -0.00000000000E+00 -0.45593999997E+02  0.45594000000E+02  0.51100000000E-03 0.  1.
    9900012    2    1    2    0    0 -0.43560479790E+02  0.97486649571E+01 -0.60466175998E+01  0.46142318160E+02  0.10000003639E+02 0.  0.
         12    1    1    2    0    0  0.43560479790E+02 -0.97486649571E+01  0.60466175998E+01  0.45045681840E+02  0.00000000000E+00 0. -1.
         11    1    3    3    0    0 -0.11306714327E+02  0.48882081780E+01  0.12013971608E+00  0.12318717542E+02  0.51100000000E-03 0. -1.
        -11    1    3    3    0    0 -0.24661116808E+02  0.62718906026E+01 -0.57613900268E+01  0.26090245480E+02  0.51100000000E-03 0.  1.
        -12    1    3    3    0    0 -0.75926486559E+01 -0.14114338235E+01 -0.40536728911E+00  0.77333551380E+01  0.00000000000E+00 0.  1.
</event>
<event>
 7    1  0.2312612E-008  0.4614232E+02  0.7816164E-02  0.1320468E+00
        -11   -1    0    0    0    0  0.00000000000E+00  0.00000000000E+00  0.45593999997E+02  0.45594000000E+02  0.51100000000E-03 0. -1.
         11   -1    0    0    0    0 -0.00000000000E+00 -0.00000000000E+00 -0.45593999997E+02  0.45594000000E+02  0.51100000000E-03 0.  1.
    9900012    2    1    2    0    0 -0.27199615470E+02 -0.17078840550E+02 -0.31584927172E+02  0.46142317624E+02  0.99999987475E+01 0.  0.
         12    1    1    2    0    0  0.27199615470E+02  0.17078840550E+02  0.31584927172E+02  0.45045682376E+02  0.00000000000E+00 0. -1.
         11    1    3    3    0    0 -0.41037525037E+01 -0.33064437706E+01 -0.48670164834E+01  0.71736465434E+01  0.51100000000E-03 0. -1.
        -11    1    3    3    0    0 -0.91538139823E+01 -0.61428962325E+01 -0.17242402302E+02  0.20465285778E+02  0.51100000000E-03 0.  1.
         12    1    3    3    0    0 -0.13942048984E+02 -0.76295005472E+01 -0.94755083867E+01  0.18503385303E+02  0.00000000000E+00 0. -1.
</event>
<event>
 7    1  0.2312612E-008  0.4614232E+02  0.7816164E-02  0.1320468E+00
        -11   -1    0    0    0    0  0.00000000000E+00  0.00000000000E+00  0.45593999997E+02  0.45594000000E+02  0.51100000000E-03 0.  1.
         11   -1    0    0    0    0 -0.00000000000E+00 -0.00000000000E+00 -0.45593999997E+02  0.45594000000E+02  0.51100000000E-03 0. -1.
    9900012    2    1    2    0    0  0.69306978632E-01  0.15280328460E+02  0.42374758671E+02  0.46142318590E+02  0.10000007555E+02 0.  0.
         12    1    1    2    0    0 -0.69306978632E-01 -0.15280328460E+02 -0.42374758671E+02  0.45045681410E+02  0.00000000000E+00 0. -1.
         11    1    3    3    0    0  0.17966391712E+01  0.29513430894E+01  0.30476208622E+01  0.46072043067E+01  0.51100000000E-03 0. -1.
        -11    1    3    3    0    0  0.15133176673E+01  0.18376469547E+01  0.68183141413E+01  0.72219446608E+01  0.51100000000E-03 0.  1.
        -12    1    3    3    0    0 -0.32406498599E+01  0.10491338416E+02  0.32508823668E+02  0.34313169622E+02  0.00000000000E+00 0.  1.
</event>
<event>
 7    1  0.2312612E-008  0.4614232E+02  0.7816164E-02  0.1320468E+00
        -11   -1    0    0    0    0  0.00000000000E+00  0.00000000000E+00  0.45593999997E+02  0.45594000000E+02  0.51100000000E-03 0.  1.
         11   -1    0    0    0    0 -0.00000000000E+00 -0.00000000000E+00 -0.45593999997E+02  0.45594000000E+02  0.51100000000E-03 0. -1.
    9900012    2    1    2    0    0 -0.26434815858E+02 -0.18542134664E+02  0.31408639424E+02  0.46142324539E+02  0.10000061802E+02 0.  0.
         12    1    1    2    0    0  0.26434815858E+02  0.18542134664E+02 -0.31408639424E+02  0.45045675461E+02  0.00000000000E+00 0. -1.
         11    1    3    3    0    0 -0.49214009136E+01 -0.15107661176E+01  0.22868645988E+01  0.56331475366E+01  0.51100000000E-03 0. -1.
        -11    1    3    3    0    0 -0.65706162620E+01 -0.52667652763E+01  0.13436321083E+02  0.15857065903E+02  0.51100000000E-03 0.  1.
        -12    1    3    3    0    0 -0.14942798682E+02 -0.11764603270E+02  0.15685453742E+02  0.24652111099E+02  0.00000000000E+00 0.  1.
</event>
<event>
 7    1  0.2312612E-008  0.4614232E+02  0.7816164E-02  0.1320468E+00
        -11   -1    0    0    0    0  0.00000000000E+00  0.00000000000E+00  0.45593999997E+02  0.45594000000E+02  0.51100000000E-03 0.  1.
         11   -1    0    0    0    0 -0.00000000000E+00 -0.00000000000E+00 -0.45593999997E+02  0.45594000000E+02  0.51100000000E-03 0. -1.
    9900012    2    1    2    0    0  0.20515272656E+02 -0.34622173162E+02 -0.20237149239E+02  0.46142317678E+02  0.99999992383E+01 0.  0.
         12    1    1    2    0    0 -0.20515272656E+02  0.34622173162E+02  0.20237149239E+02  0.45045682322E+02  0.00000000000E+00 0. -1.
         11    1    3    3    0    0  0.25957260596E+00 -0.50146025742E+01 -0.43521887651E+01  0.66449352309E+01  0.51100000000E-03 0. -1.
        -11    1    3    3    0    0  0.17848988548E+02 -0.25422741112E+02 -0.11997788526E+02  0.33299385694E+02  0.51100000000E-03 0.  1.
        -12    1    3    3    0    0  0.24067115014E+01 -0.41848294757E+01 -0.38871719479E+01  0.61979967525E+01  0.00000000000E+00 0.  1.
</event>
<event>
 7    1  0.2312612E-008  0.4614232E+02  0.7816164E-02  0.1320468E+00
        -11   -1    0    0    0    0  0.00000000000E+00  0.00000000000E+00  0.45593999997E+02  0.45594000000E+02  0.51100000000E-03 0.  1.
         11   -1    0    0    0    0 -0.00000000000E+00 -0.00000000000E+00 -0.45593999997E+02  0.45594000000E+02  0.51100000000E-03 0. -1.
    9900012    2    1    2    0    0  0.12046415621E+02 -0.26397338404E+02  0.34455446182E+02  0.46142319012E+02  0.10000011402E+02 0.  0.
         12    1    1    2    0    0 -0.12046415621E+02  0.26397338404E+02 -0.34455446182E+02  0.45045680988E+02  0.00000000000E+00 0. -1.
         11    1    3    3    0    0  0.78919474090E+01 -0.14998340600E+02  0.13324012356E+02  0.21558347807E+02  0.51100000000E-03 0.  1.
        -11    1    3    3    0    0 -0.45302735935E+00 -0.91984722581E+00  0.10414791940E+01  0.14615169789E+01  0.51100000000E-03 0. -1.
        -12    1    3    3    0    0  0.46074955718E+01 -0.10479150578E+02  0.20089954632E+02  0.23122454225E+02  0.00000000000E+00 0.  1.
</event>
<event>
 7    1  0.2312612E-008  0.4614232E+02  0.7816164E-02  0.1320468E+00
        -11   -1    0    0    0    0  0.00000000000E+00  0.00000000000E+00  0.45593999997E+02  0.45594000000E+02  0.51100000000E-03 0.  1.
         11   -1    0    0    0    0 -0.00000000000E+00 -0.00000000000E+00 -0.45593999997E+02  0.45594000000E+02  0.51100000000E-03 0. -1.
    9900012    2    1    2    0    0  0.34754431746E+02  0.19639955483E+01  0.28589960551E+02  0.46142315980E+02  0.99999837573E+01 0.  0.
         12    1    1    2    0    0 -0.34754431746E+02 -0.19639955483E+01 -0.28589960551E+02  0.45045684020E+02  0.00000000000E+00 0. -1.
         11    1    3    3    0    0  0.16584694240E+02  0.36914234098E+01  0.14535644302E+02  0.22359866846E+02  0.51100000000E-03 0. -1.
        -11    1    3    3    0    0  0.10467418858E+02  0.16707887343E+01  0.62643638837E+01  0.12312621479E+02  0.51100000000E-03 0.  1.
        -12    1    3    3    0    0  0.77023186477E+01 -0.33982165957E+01  0.77899523662E+01  0.11469827656E+02  0.00000000000E+00 0.  1.
</event>
<event>
 7    1  0.2312612E-008  0.4614232E+02  0.7816164E-02  0.1320468E+00
        -11   -1    0    0    0    0  0.00000000000E+00  0.00000000000E+00  0.45593999997E+02  0.45594000000E+02  0.51100000000E-03 0.  1.
         11   -1    0    0    0    0 -0.00000000000E+00 -0.00000000000E+00 -0.45593999997E+02  0.45594000000E+02  0.51100000000E-03 0. -1.
    9900012    2    1    2    0    0  0.27230545588E+02 -0.35867830182E+02 -0.10534034414E+01  0.46142317479E+02  0.99999974267E+01 0.  0.
         12    1    1    2    0    0 -0.27230545588E+02  0.35867830182E+02  0.10534034414E+01  0.45045682521E+02  0.00000000000E+00 0. -1.
         11    1    3    3    0    0  0.54336568402E+01 -0.92359991820E+01  0.12977194999E+01  0.10794090221E+02  0.51100000000E-03 0. -1.
        -11    1    3    3    0    0  0.16186069575E+02 -0.14581260243E+02  0.32957695869E+00  0.21787854869E+02  0.51100000000E-03 0.  1.
        -12    1    3    3    0    0  0.56108191729E+01 -0.12050570757E+02 -0.26806999000E+01  0.13560372388E+02  0.00000000000E+00 0.  1.
</event>
<event>
 7    1  0.2312612E-008  0.4614232E+02  0.7816164E-02  0.1320468E+00
        -11   -1    0    0    0    0  0.00000000000E+00  0.00000000000E+00  0.45593999997E+02  0.45594000000E+02  0.51100000000E-03 0. -1.
         11   -1    0    0    0    0 -0.00000000000E+00 -0.00000000000E+00 -0.45593999997E+02  0.45594000000E+02  0.51100000000E-03 0.  1.
    9900012    2    1    2    0    0 -0.38005154691E+02 -0.16441777342E+02  0.17731036542E+02  0.46142317830E+02  0.10000000630E+02 0.  0.
         12    1    1    2    0    0  0.38005154691E+02  0.16441777342E+02 -0.17731036542E+02  0.45045682170E+02  0.00000000000E+00 0. -1.
         11    1    3    3    0    0 -0.48886067507E+01 -0.35163798198E+01  0.53349730467E+00  0.60454960620E+01  0.51100000000E-03 0. -1.
        -11    1    3    3    0    0 -0.16176106539E+02 -0.87769828742E+01  0.59421121553E+01  0.19339352323E+02  0.51100000000E-03 0.  1.
        -12    1    3    3    0    0 -0.16940441401E+02 -0.41484146484E+01  0.11255427082E+02  0.20757469445E+02  0.00000000000E+00 0.  1.
</event>
<event>
 7    1  0.2312612E-008  0.4614232E+02  0.7816164E-02  0.1320468E+00
        -11   -1    0    0    0    0  0.00000000000E+00  0.00000000000E+00  0.45593999997E+02  0.45594000000E+02  0.51100000000E-03 0. -1.
         11   -1    0    0    0    0 -0.00000000000E+00 -0.00000000000E+00 -0.45593999997E+02  0.45594000000E+02  0.51100000000E-03 0.  1.
    9900012    2    1    2    0    0 -0.41573624235E+02  0.16861107506E+02 -0.40558953746E+01  0.46142318013E+02  0.10000002298E+02 0.  0.
         12    1    1    2    0    0  0.41573624235E+02 -0.16861107506E+02  0.40558953746E+01  0.45045681987E+02  0.00000000000E+00 0. -1.
         11    1    3    3    0    0 -0.19932248519E+01 -0.85167110480E+00 -0.76456703437E+00  0.22984455600E+01  0.51100000000E-03 0. -1.
        -11    1    3    3    0    0 -0.51222074365E+01  0.39278601435E+01 -0.17981460639E+01  0.67006286166E+01  0.51100000000E-03 0.  1.
        -12    1    3    3    0    0 -0.34458191947E+02  0.13784918468E+02 -0.14931822763E+01  0.37143243836E+02  0.00000000000E+00 0.  1.
</event>
<event>
 7    1  0.2312612E-008  0.4614232E+02  0.7816164E-02  0.1320468E+00
        -11   -1    0    0    0    0  0.00000000000E+00  0.00000000000E+00  0.45593999997E+02  0.45594000000E+02  0.51100000000E-03 0. -1.
         11   -1    0    0    0    0 -0.00000000000E+00 -0.00000000000E+00 -0.45593999997E+02  0.45594000000E+02  0.51100000000E-03 0.  1.
    9900012    2    1    2    0    0  0.27372743967E+02 -0.25758336827E+02 -0.24826486196E+02  0.46142318240E+02  0.10000004369E+02 0.  0.
         12    1    1    2    0    0 -0.27372743967E+02  0.25758336827E+02  0.24826486196E+02  0.45045681760E+02  0.00000000000E+00 0. -1.
         11    1    3    3    0    0  0.55529990582E+01 -0.61273171003E+01 -0.14521218753E+01  0.83957412770E+01  0.51100000000E-03 0. -1.
        -11    1    3    3    0    0  0.13164948691E+02 -0.99935028719E+01 -0.15014901729E+02  0.22330097355E+02  0.51100000000E-03 0.  1.
        -12    1    3    3    0    0  0.86547962172E+01 -0.96375168550E+01 -0.83594625917E+01  0.15416479608E+02  0.00000000000E+00 0.  1.
</event>
<event>
 7    1  0.2312612E-008  0.4614232E+02  0.7816164E-02  0.1320468E+00
        -11   -1    0    0    0    0  0.00000000000E+00  0.00000000000E+00  0.45593999997E+02  0.45594000000E+02  0.51100000000E-03 0. -1.
         11   -1    0    0    0    0 -0.00000000000E+00 -0.00000000000E+00 -0.45593999997E+02  0.45594000000E+02  0.51100000000E-03 0.  1.
    9900012    2    1    2    0    0 -0.14314407098E+02  0.31761923238E+02 -0.28555060117E+02  0.46142317892E+02  0.10000001192E+02 0.  0.
         12    1    1    2    0    0  0.14314407098E+02 -0.31761923238E+02  0.28555060117E+02  0.45045682108E+02  0.00000000000E+00 0. -1.
         11    1    3    3    0    0 -0.12007112934E+01  0.14070624840E+01 -0.15924525159E+01  0.24407862915E+01  0.51100000000E-03 0. -1.
        -11    1    3    3    0    0 -0.72268862819E-01  0.64535953088E+01 -0.19846021986E+01  0.67522412091E+01  0.51100000000E-03 0.  1.
        -12    1    3    3    0    0 -0.13041426941E+02  0.23901265445E+02 -0.24978005402E+02  0.36949290391E+02  0.00000000000E+00 0.  1.
</event>
<event>
 7    1  0.2312612E-008  0.4614232E+02  0.7816164E-02  0.1320468E+00
        -11   -1    0    0    0    0  0.00000000000E+00  0.00000000000E+00  0.45593999997E+02  0.45594000000E+02  0.51100000000E-03 0.  1.
         11   -1    0    0    0    0 -0.00000000000E+00 -0.00000000000E+00 -0.45593999997E+02  0.45594000000E+02  0.51100000000E-03 0. -1.
    9900012    2    1    2    0    0  0.31621781240E+01  0.15569128913E+02  0.42151113181E+02  0.46142317765E+02  0.10000000040E+02 0.  0.
         12    1    1    2    0    0 -0.31621781240E+01 -0.15569128913E+02 -0.42151113181E+02  0.45045682235E+02  0.00000000000E+00 0. -1.
         11    1    3    3    0    0 -0.69374824732E+00  0.30354275153E+01  0.12126644844E+02  0.12520008876E+02  0.51100000000E-03 0.  1.
        -11    1    3    3    0    0 -0.15161108576E+01  0.48105119809E-01  0.24888023040E+01  0.29146257744E+01  0.51100000000E-03 0. -1.
        -12    1    3    3    0    0  0.53720372290E+01  0.12485596277E+02  0.27535666033E+02  0.30707683115E+02  0.00000000000E+00 0.  1.
</event>
<event>
 7    1  0.2312612E-008  0.4614232E+02  0.7816164E-02  0.1320468E+00
        -11   -1    0    0    0    0  0.00000000000E+00  0.00000000000E+00  0.45593999997E+02  0.45594000000E+02  0.51100000000E-03 0.  1.
         11   -1    0    0    0    0 -0.00000000000E+00 -0.00000000000E+00 -0.45593999997E+02  0.45594000000E+02  0.51100000000E-03 0. -1.
    9900012    2    1    2    0    0 -0.13237165030E+02  0.26678466342E+02  0.33795715443E+02  0.46142317779E+02  0.10000000167E+02 0.  0.
         12    1    1    2    0    0  0.13237165030E+02 -0.26678466342E+02 -0.33795715443E+02  0.45045682221E+02  0.00000000000E+00 0. -1.
         11    1    3    3    0    0 -0.47292158747E+01  0.13791262546E+02  0.13815581592E+02  0.20085683966E+02  0.51100000000E-03 0.  1.
        -11    1    3    3    0    0 -0.43613981485E+00  0.50552901158E+01  0.90391911174E+01  0.10365961239E+02  0.51100000000E-03 0. -1.
         12    1    3    3    0    0 -0.80718093403E+01  0.78319136808E+01  0.10940942734E+02  0.15690672574E+02  0.00000000000E+00 0. -1.
</event>
<event>
 7    1  0.2312612E-008  0.4614232E+02  0.7816164E-02  0.1320468E+00
        -11   -1    0    0    0    0  0.00000000000E+00  0.00000000000E+00  0.45593999997E+02  0.45594000000E+02  0.51100000000E-03 0. -1.
         11   -1    0    0    0    0 -0.00000000000E+00 -0.00000000000E+00 -0.45593999997E+02  0.45594000000E+02  0.51100000000E-03 0.  1.
    9900012    2    1    2    0    0 -0.23826790352E+02  0.15420067553E+02 -0.34980268267E+02  0.46142316634E+02  0.99999897257E+01 0.  0.
         12    1    1    2    0    0  0.23826790352E+02 -0.15420067553E+02  0.34980268267E+02  0.45045683366E+02  0.00000000000E+00 0. -1.
         11    1    3    3    0    0 -0.30714569621E+01  0.13734858415E+01 -0.15352698365E+01  0.36982921679E+01  0.51100000000E-03 0. -1.
        -11    1    3    3    0    0 -0.19526391205E+02  0.12578663011E+02 -0.26493022679E+02  0.35233265071E+02  0.51100000000E-03 0.  1.
        -12    1    3    3    0    0 -0.12289421850E+01  0.14679187005E+01 -0.69519757520E+01  0.72107593957E+01  0.00000000000E+00 0.  1.
</event>
<event>
 7    1  0.2312612E-008  0.4614232E+02  0.7816164E-02  0.1320468E+00
        -11   -1    0    0    0    0  0.00000000000E+00  0.00000000000E+00  0.45593999997E+02  0.45594000000E+02  0.51100000000E-03 0.  1.
         11   -1    0    0    0    0 -0.00000000000E+00 -0.00000000000E+00 -0.45593999997E+02  0.45594000000E+02  0.51100000000E-03 0. -1.
    9900012    2    1    2    0    0 -0.15014545820E+02  0.90340142680E+01  0.41497752919E+02  0.46142317662E+02  0.99999990983E+01 0.  0.
         12    1    1    2    0    0  0.15014545820E+02 -0.90340142680E+01 -0.41497752919E+02  0.45045682338E+02  0.00000000000E+00 0. -1.
         11    1    3    3    0    0 -0.46026063749E+01  0.21870492275E+01  0.97075388573E+01  0.10963734797E+02  0.51100000000E-03 0. -1.
        -11    1    3    3    0    0 -0.84595512618E+01  0.10702828639E+01  0.14223441779E+02  0.16583600612E+02  0.51100000000E-03 0.  1.
        -12    1    3    3    0    0 -0.19523881836E+01  0.57766821765E+01  0.17566772282E+02  0.18594982253E+02  0.00000000000E+00 0.  1.
</event>
<event>
 7    1  0.2312612E-008  0.4614232E+02  0.7816164E-02  0.1320468E+00
        -11   -1    0    0    0    0  0.00000000000E+00  0.00000000000E+00  0.45593999997E+02  0.45594000000E+02  0.51100000000E-03 0.  1.
         11   -1    0    0    0    0 -0.00000000000E+00 -0.00000000000E+00 -0.45593999997E+02  0.45594000000E+02  0.51100000000E-03 0. -1.
    9900012    2    1    2    0    0 -0.93572743795E+01 -0.43982980252E+02  0.26556358299E+01  0.46142317218E+02  0.99999950457E+01 0.  0.
         12    1    1    2    0    0  0.93572743795E+01  0.43982980252E+02 -0.26556358299E+01  0.45045682782E+02  0.00000000000E+00 0. -1.
         11    1    3    3    0    0 -0.26287820843E+00 -0.17082066619E+02 -0.24454304515E+01  0.17258222251E+02  0.51100000000E-03 0. -1.
        -11    1    3    3    0    0 -0.29079126435E+01 -0.69270977750E+01  0.10574546890E+01  0.75867549194E+01  0.51100000000E-03 0.  1.
         12    1    3    3    0    0 -0.61864835275E+01 -0.19973815858E+02  0.40436115924E+01  0.21297340047E+02  0.00000000000E+00 0. -1.
</event>
<event>
 7    1  0.2312612E-008  0.4614232E+02  0.7816164E-02  0.1320468E+00
        -11   -1    0    0    0    0  0.00000000000E+00  0.00000000000E+00  0.45593999997E+02  0.45594000000E+02  0.51100000000E-03 0.  1.
         11   -1    0    0    0    0 -0.00000000000E+00 -0.00000000000E+00 -0.45593999997E+02  0.45594000000E+02  0.51100000000E-03 0. -1.
    9900012    2    1    2    0    0 -0.33557796182E+02  0.22844503836E+02  0.19522206501E+02  0.46142316669E+02  0.99999900404E+01 0.  0.
         12    1    1    2    0    0  0.33557796182E+02 -0.22844503836E+02 -0.19522206501E+02  0.45045683331E+02  0.00000000000E+00 0. -1.
         11    1    3    3    0    0 -0.15874169053E+02  0.73323600451E+01  0.44066854949E+01  0.18032515750E+02  0.51100000000E-03 0. -1.
        -11    1    3    3    0    0 -0.82821843957E+01  0.88590082702E+01  0.87074655964E+01  0.14929720803E+02  0.51100000000E-03 0.  1.
        -12    1    3    3    0    0 -0.94014427334E+01  0.66531355207E+01  0.64080554099E+01  0.13180080116E+02  0.00000000000E+00 0.  1.
</event>
<event>
 7    1  0.2312612E-008  0.4614232E+02  0.7816164E-02  0.1320468E+00
        -11   -1    0    0    0    0  0.00000000000E+00  0.00000000000E+00  0.45593999997E+02  0.45594000000E+02  0.51100000000E-03 0. -1.
         11   -1    0    0    0    0 -0.00000000000E+00 -0.00000000000E+00 -0.45593999997E+02  0.45594000000E+02  0.51100000000E-03 0.  1.
    9900012    2    1    2    0    0  0.30714813660E+01 -0.15347397841E+02 -0.42239045485E+02  0.46142316724E+02  0.99999905466E+01 0.  0.
         12    1    1    2    0    0 -0.30714813660E+01  0.15347397841E+02  0.42239045485E+02  0.45045683276E+02  0.00000000000E+00 0. -1.
         11    1    3    3    0    0 -0.22590715038E+01 -0.51758899439E+01 -0.14183181247E+02  0.15266167538E+02  0.51100000000E-03 0. -1.
        -11    1    3    3    0    0  0.31816633964E+01 -0.97517844757E+00 -0.55830303098E+01  0.64995524980E+01  0.51100000000E-03 0.  1.
        -12    1    3    3    0    0  0.21488894734E+01 -0.91963294494E+01 -0.22472833928E+02  0.24376596688E+02  0.00000000000E+00 0.  1.
</event>
<event>
 7    1  0.2312612E-008  0.4614232E+02  0.7816164E-02  0.1320468E+00
        -11   -1    0    0    0    0  0.00000000000E+00  0.00000000000E+00  0.45593999997E+02  0.45594000000E+02  0.51100000000E-03 0. -1.
         11   -1    0    0    0    0 -0.00000000000E+00 -0.00000000000E+00 -0.45593999997E+02  0.45594000000E+02  0.51100000000E-03 0.  1.
    9900012    2    1    2    0    0 -0.34530035513E+02  0.72372143083E+01 -0.28007369482E+02  0.46142319088E+02  0.10000012103E+02 0.  0.
         12    1    1    2    0    0  0.34530035513E+02 -0.72372143083E+01  0.28007369482E+02  0.45045680912E+02  0.00000000000E+00 0. -1.
         11    1    3    3    0    0 -0.89211496058E+01  0.13141390645E+01 -0.38959198138E+01  0.98230373728E+01  0.51100000000E-03 0. -1.
        -11    1    3    3    0    0 -0.16041992203E+02  0.70602269435E+01 -0.15543578561E+02  0.23426377293E+02  0.51100000000E-03 0.  1.
        -12    1    3    3    0    0 -0.95668937040E+01 -0.11371516997E+01 -0.85678711076E+01  0.12892904423E+02  0.00000000000E+00 0.  1.
</event>
<event>
 7    1  0.2312612E-008  0.4614232E+02  0.7816164E-02  0.1320468E+00
        -11   -1    0    0    0    0  0.00000000000E+00  0.00000000000E+00  0.45593999997E+02  0.45594000000E+02  0.51100000000E-03 0.  1.
         11   -1    0    0    0    0 -0.00000000000E+00 -0.00000000000E+00 -0.45593999997E+02  0.45594000000E+02  0.51100000000E-03 0. -1.
    9900012    2    1    2    0    0 -0.40906413493E+02 -0.83743024435E+01 -0.16901179674E+02  0.46142317847E+02  0.10000000782E+02 0.  0.
         12    1    1    2    0    0  0.40906413493E+02  0.83743024435E+01  0.16901179674E+02  0.45045682153E+02  0.00000000000E+00 0. -1.
         11    1    3    3    0    0 -0.35513022003E+01 -0.60390623435E+00  0.92808719596E-01  0.36034793988E+01  0.51100000000E-03 0. -1.
        -11    1    3    3    0    0 -0.17898574036E+02 -0.17799293335E+01 -0.41226167958E+01  0.18453267203E+02  0.51100000000E-03 0.  1.
         12    1    3    3    0    0 -0.19456537257E+02 -0.59904668756E+01 -0.12871371598E+02  0.24085571246E+02  0.00000000000E+00 0. -1.
</event>
<event>
 7    1  0.2312612E-008  0.4614232E+02  0.7816164E-02  0.1320468E+00
        -11   -1    0    0    0    0  0.00000000000E+00  0.00000000000E+00  0.45593999997E+02  0.45594000000E+02  0.51100000000E-03 0.  1.
         11   -1    0    0    0    0 -0.00000000000E+00 -0.00000000000E+00 -0.45593999997E+02  0.45594000000E+02  0.51100000000E-03 0. -1.
    9900012    2    1    2    0    0  0.23835200786E+01  0.81274455476E+01  0.44242253526E+02  0.46142317230E+02  0.99999951602E+01 0.  0.
         12    1    1    2    0    0 -0.23835200786E+01 -0.81274455476E+01 -0.44242253526E+02  0.45045682770E+02  0.00000000000E+00 0. -1.
         11    1    3    3    0    0  0.11065281725E+01 -0.31868093755E+00  0.15312603692E+02  0.15355839093E+02  0.51100000000E-03 0.  1.
        -11    1    3    3    0    0  0.12918066420E+01  0.71703825501E+01  0.28535813356E+02  0.29451244362E+02  0.51100000000E-03 0. -1.
         12    1    3    3    0    0 -0.14814735906E-01  0.12757439350E+01  0.39383647760E+00  0.13352337755E+01  0.00000000000E+00 0. -1.
</event>
<event>
 7    1  0.2312612E-008  0.4614232E+02  0.7816164E-02  0.1320468E+00
        -11   -1    0    0    0    0  0.00000000000E+00  0.00000000000E+00  0.45593999997E+02  0.45594000000E+02  0.51100000000E-03 0.  1.
         11   -1    0    0    0    0 -0.00000000000E+00 -0.00000000000E+00 -0.45593999997E+02  0.45594000000E+02  0.51100000000E-03 0. -1.
    9900012    2    1    2    0    0  0.82976324724E+00  0.16123049467E+02  0.42053208671E+02  0.46142316626E+02  0.99999896485E+01 0.  0.
         12    1    1    2    0    0 -0.82976324724E+00 -0.16123049467E+02 -0.42053208671E+02  0.45045683374E+02  0.00000000000E+00 0. -1.
         11    1    3    3    0    0  0.43349793555E+01  0.48688078807E+01  0.16739163039E+02  0.17963766746E+02  0.51100000000E-03 0. -1.
        -11    1    3    3    0    0 -0.14490675346E+01  0.84300529823E+01  0.20648457961E+02  0.22350042649E+02  0.51100000000E-03 0.  1.
         12    1    3    3    0    0 -0.20561485737E+01  0.28241886037E+01  0.46655876706E+01  0.58285072307E+01  0.00000000000E+00 0. -1.
</event>
<event>
 7    1  0.2312612E-008  0.4614232E+02  0.7816164E-02  0.1320468E+00
        -11   -1    0    0    0    0  0.00000000000E+00  0.00000000000E+00  0.45593999997E+02  0.45594000000E+02  0.51100000000E-03 0.  1.
         11   -1    0    0    0    0 -0.00000000000E+00 -0.00000000000E+00 -0.45593999997E+02  0.45594000000E+02  0.51100000000E-03 0. -1.
    9900012    2    1    2    0    0  0.94517797090E+01 -0.22624498105E+02  0.37787688313E+02  0.46142318273E+02  0.10000004672E+02 0.  0.
         12    1    1    2    0    0 -0.94517797090E+01  0.22624498105E+02 -0.37787688313E+02  0.45045681727E+02  0.00000000000E+00 0. -1.
         11    1    3    3    0    0  0.88710393366E+00 -0.80530866397E+01  0.16542912844E+02  0.18420291079E+02  0.51100000000E-03 0. -1.
        -11    1    3    3    0    0  0.74727936462E+01 -0.10627545924E+02  0.12323072448E+02  0.17906576782E+02  0.51100000000E-03 0.  1.
        -12    1    3    3    0    0  0.10918821291E+01 -0.39438655418E+01  0.89217030212E+01  0.98154504122E+01  0.00000000000E+00 0.  1.
</event>
<event>
 7    1  0.2312612E-008  0.4614232E+02  0.7816164E-02  0.1320468E+00
        -11   -1    0    0    0    0  0.00000000000E+00  0.00000000000E+00  0.45593999997E+02  0.45594000000E+02  0.51100000000E-03 0.  1.
         11   -1    0    0    0    0 -0.00000000000E+00 -0.00000000000E+00 -0.45593999997E+02  0.45594000000E+02  0.51100000000E-03 0. -1.
    9900012    2    1    2    0    0  0.42300126987E+02  0.14930175307E+02 -0.41112783503E+01  0.46142317771E+02  0.10000000089E+02 0.  0.
         12    1    1    2    0    0 -0.42300126987E+02 -0.14930175307E+02  0.41112783503E+01  0.45045682229E+02  0.00000000000E+00 0. -1.
         11    1    3    3    0    0  0.13610160616E+01  0.11547520514E+01 -0.18867730395E+01  0.25972542778E+01  0.51100000000E-03 0. -1.
        -11    1    3    3    0    0  0.67220020407E+01  0.34097285055E+01 -0.19735955305E+01  0.77914465599E+01  0.51100000000E-03 0.  1.
        -12    1    3    3    0    0  0.34217108885E+02  0.10365694751E+02 -0.25090978030E+00  0.35753616933E+02  0.00000000000E+00 0.  1.
</event>
<event>
 7    1  0.2312612E-008  0.4614232E+02  0.7816164E-02  0.1320468E+00
        -11   -1    0    0    0    0  0.00000000000E+00  0.00000000000E+00  0.45593999997E+02  0.45594000000E+02  0.51100000000E-03 0.  1.
         11   -1    0    0    0    0 -0.00000000000E+00 -0.00000000000E+00 -0.45593999997E+02  0.45594000000E+02  0.51100000000E-03 0. -1.
    9900012    2    1    2    0    0  0.25584260287E+02  0.25330881483E+01  0.36988406285E+02  0.46142321966E+02  0.10000038348E+02 0.  0.
         12    1    1    2    0    0 -0.25584260287E+02 -0.25330881483E+01 -0.36988406285E+02  0.45045678034E+02  0.00000000000E+00 0. -1.
         11    1    3    3    0    0  0.23470271457E+01  0.33972466269E+00  0.25308687328E+01  0.34683203533E+01  0.51100000000E-03 0.  1.
        -11    1    3    3    0    0  0.19666073558E+02 -0.17385632899E+01  0.25353206534E+02  0.32133504840E+02  0.51100000000E-03 0. -1.
         12    1    3    3    0    0  0.35711595839E+01  0.39319267755E+01  0.91043310177E+01  0.10540496773E+02  0.00000000000E+00 0. -1.
</event>
<event>
 7    1  0.2312612E-008  0.4614232E+02  0.7816164E-02  0.1320468E+00
        -11   -1    0    0    0    0  0.00000000000E+00  0.00000000000E+00  0.45593999997E+02  0.45594000000E+02  0.51100000000E-03 0.  1.
         11   -1    0    0    0    0 -0.00000000000E+00 -0.00000000000E+00 -0.45593999997E+02  0.45594000000E+02  0.51100000000E-03 0. -1.
    9900012    2    1    2    0    0 -0.26470438598E+02  0.19334654207E+02  0.30896610367E+02  0.46142317575E+02  0.99999983073E+01 0.  0.
         12    1    1    2    0    0  0.26470438598E+02 -0.19334654207E+02 -0.30896610367E+02  0.45045682425E+02  0.00000000000E+00 0. -1.
         11    1    3    3    0    0 -0.19017822902E+01  0.13915627214E+01  0.48677056266E+01  0.54081217641E+01  0.51100000000E-03 0. -1.
        -11    1    3    3    0    0 -0.18051693088E+02  0.90523546973E+01  0.15138807442E+02  0.25238705195E+02  0.51100000000E-03 0.  1.
         12    1    3    3    0    0 -0.65169632200E+01  0.88907367887E+01  0.10890097299E+02  0.15495490616E+02  0.00000000000E+00 0. -1.
</event>
<event>
 7    1  0.2312612E-008  0.4614232E+02  0.7816164E-02  0.1320468E+00
        -11   -1    0    0    0    0  0.00000000000E+00  0.00000000000E+00  0.45593999997E+02  0.45594000000E+02  0.51100000000E-03 0.  1.
         11   -1    0    0    0    0 -0.00000000000E+00 -0.00000000000E+00 -0.45593999997E+02  0.45594000000E+02  0.51100000000E-03 0. -1.
    9900012    2    1    2    0    0  0.34517383813E+02 -0.15736313992E+02  0.24290572672E+02  0.46142320028E+02  0.10000020676E+02 0.  0.
         12    1    1    2    0    0 -0.34517383813E+02  0.15736313992E+02 -0.24290572672E+02  0.45045679972E+02  0.00000000000E+00 0. -1.
         11    1    3    3    0    0  0.10089403561E+02 -0.75768237444E+01  0.59994744526E+01  0.13971328364E+02  0.51100000000E-03 0. -1.
        -11    1    3    3    0    0  0.42817477710E+01 -0.31641108786E+01  0.16695654854E+01  0.55796425331E+01  0.51100000000E-03 0.  1.
        -12    1    3    3    0    0  0.20146232481E+02 -0.49953793691E+01  0.16621532734E+02  0.26591349132E+02  0.00000000000E+00 0.  1.
</event>
<event>
 7    1  0.2312612E-008  0.4614232E+02  0.7816164E-02  0.1320468E+00
        -11   -1    0    0    0    0  0.00000000000E+00  0.00000000000E+00  0.45593999997E+02  0.45594000000E+02  0.51100000000E-03 0. -1.
         11   -1    0    0    0    0 -0.00000000000E+00 -0.00000000000E+00 -0.45593999997E+02  0.45594000000E+02  0.51100000000E-03 0.  1.
    9900012    2    1    2    0    0  0.23855287208E+02  0.37172601560E+02 -0.88451369693E+01  0.46142317826E+02  0.10000000593E+02 0.  0.
         12    1    1    2    0    0 -0.23855287208E+02 -0.37172601560E+02  0.88451369693E+01  0.45045682174E+02  0.00000000000E+00 0. -1.
         11    1    3    3    0    0  0.86429756280E+01  0.11573821626E+02  0.23396969384E+00  0.14446768387E+02  0.51100000000E-03 0. -1.
        -11    1    3    3    0    0  0.85156103521E+01  0.86357083880E+01 -0.38121172647E+01  0.12713115957E+02  0.51100000000E-03 0.  1.
        -12    1    3    3    0    0  0.66967012282E+01  0.16963071545E+02 -0.52669893984E+01  0.18982433482E+02  0.00000000000E+00 0.  1.
</event>
<event>
 7    1  0.2312612E-008  0.4614232E+02  0.7816164E-02  0.1320468E+00
        -11   -1    0    0    0    0  0.00000000000E+00  0.00000000000E+00  0.45593999997E+02  0.45594000000E+02  0.51100000000E-03 0. -1.
         11   -1    0    0    0    0 -0.00000000000E+00 -0.00000000000E+00 -0.45593999997E+02  0.45594000000E+02  0.51100000000E-03 0.  1.
    9900012    2    1    2    0    0  0.81531016188E+01 -0.27353823794E+02 -0.34848371185E+02  0.46142315229E+02  0.99999769142E+01 0.  0.
         12    1    1    2    0    0 -0.81531016188E+01  0.27353823794E+02  0.34848371185E+02  0.45045684771E+02  0.00000000000E+00 0. -1.
         11    1    3    3    0    0  0.47370011200E+01 -0.74936885908E+01 -0.75254276652E+01  0.11628697696E+02  0.51100000000E-03 0. -1.
        -11    1    3    3    0    0  0.30940171754E+01 -0.10484305138E+02 -0.10008855988E+02  0.14821295320E+02  0.51100000000E-03 0.  1.
         12    1    3    3    0    0  0.32208332343E+00 -0.93758300656E+01 -0.17314087532E+02  0.19692322213E+02  0.00000000000E+00 0. -1.
</event>
<event>
 7    1  0.2312612E-008  0.4614232E+02  0.7816164E-02  0.1320468E+00
        -11   -1    0    0    0    0  0.00000000000E+00  0.00000000000E+00  0.45593999997E+02  0.45594000000E+02  0.51100000000E-03 0.  1.
         11   -1    0    0    0    0 -0.00000000000E+00 -0.00000000000E+00 -0.45593999997E+02  0.45594000000E+02  0.51100000000E-03 0. -1.
    9900012    2    1    2    0    0 -0.30771536099E+02 -0.22643970574E+02  0.23863707484E+02  0.46142319051E+02  0.10000011765E+02 0.  0.
         12    1    1    2    0    0  0.30771536099E+02  0.22643970574E+02 -0.23863707484E+02  0.45045680949E+02  0.00000000000E+00 0. -1.
         11    1    3    3    0    0 -0.50239411358E+01 -0.75197732095E+01  0.56959930315E+01  0.10687904871E+02  0.51100000000E-03 0.  1.
        -11    1    3    3    0    0 -0.81100249096E+01 -0.68411524867E+01  0.90301997378E+01  0.13932637186E+02  0.51100000000E-03 0. -1.
         12    1    3    3    0    0 -0.17637570053E+02 -0.82830448780E+01  0.91375147150E+01  0.21521776995E+02  0.00000000000E+00 0. -1.
</event>
<event>
 7    1  0.2312612E-008  0.4614232E+02  0.7816164E-02  0.1320468E+00
        -11   -1    0    0    0    0  0.00000000000E+00  0.00000000000E+00  0.45593999997E+02  0.45594000000E+02  0.51100000000E-03 0.  1.
         11   -1    0    0    0    0 -0.00000000000E+00 -0.00000000000E+00 -0.45593999997E+02  0.45594000000E+02  0.51100000000E-03 0. -1.
    9900012    2    1    2    0    0  0.41738605011E+02  0.16312036026E+02  0.45737624037E+01  0.46142323513E+02  0.10000052455E+02 0.  0.
         12    1    1    2    0    0 -0.41738605011E+02 -0.16312036026E+02 -0.45737624037E+01  0.45045676487E+02  0.00000000000E+00 0. -1.
         11    1    3    3    0    0 -0.23632986202E+00 -0.14212197916E+00 -0.24161182910E+00  0.36664287491E+00  0.51100000000E-03 0. -1.
        -11    1    3    3    0    0  0.11827549376E+02  0.77578595174E+01  0.15745228437E+01  0.14232161852E+02  0.51100000000E-03 0.  1.
         12    1    3    3    0    0  0.30147385498E+02  0.86962984874E+01  0.32408513891E+01  0.31543518787E+02  0.00000000000E+00 0. -1.
</event>
<event>
 7    1  0.2312612E-008  0.4614232E+02  0.7816164E-02  0.1320468E+00
        -11   -1    0    0    0    0  0.00000000000E+00  0.00000000000E+00  0.45593999997E+02  0.45594000000E+02  0.51100000000E-03 0.  1.
         11   -1    0    0    0    0 -0.00000000000E+00 -0.00000000000E+00 -0.45593999997E+02  0.45594000000E+02  0.51100000000E-03 0. -1.
    9900012    2    1    2    0    0  0.30325179485E+02  0.28867673883E+02  0.16617895963E+02  0.46142316828E+02  0.99999914886E+01 0.  0.
         12    1    1    2    0    0 -0.30325179485E+02 -0.28867673883E+02 -0.16617895963E+02  0.45045683172E+02  0.00000000000E+00 0. -1.
         11    1    3    3    0    0  0.73136209425E+01  0.10239781124E+02  0.66672662672E+01  0.14240597196E+02  0.51100000000E-03 0. -1.
        -11    1    3    3    0    0  0.60675394065E+01  0.88974858991E+01  0.36887758834E+01  0.11383644300E+02  0.51100000000E-03 0.  1.
         12    1    3    3    0    0  0.16944019136E+02  0.97304068600E+01  0.62618538121E+01  0.20518075332E+02  0.00000000000E+00 0. -1.
</event>
<event>
 7    1  0.2312612E-008  0.4614232E+02  0.7816164E-02  0.1320468E+00
        -11   -1    0    0    0    0  0.00000000000E+00  0.00000000000E+00  0.45593999997E+02  0.45594000000E+02  0.51100000000E-03 0.  1.
         11   -1    0    0    0    0 -0.00000000000E+00 -0.00000000000E+00 -0.45593999997E+02  0.45594000000E+02  0.51100000000E-03 0. -1.
    9900012    2    1    2    0    0 -0.15791613974E+02 -0.19380004563E+02  0.37472040798E+02  0.46142317739E+02  0.99999997978E+01 0.  0.
         12    1    1    2    0    0  0.15791613974E+02  0.19380004563E+02 -0.37472040798E+02  0.45045682261E+02  0.00000000000E+00 0. -1.
         11    1    3    3    0    0 -0.65794383105E+01 -0.63817321617E+01  0.14857807819E+02  0.17457662138E+02  0.51100000000E-03 0. -1.
        -11    1    3    3    0    0 -0.33325344503E+01 -0.10010406582E+02  0.17076084028E+02  0.20072535261E+02  0.51100000000E-03 0.  1.
         12    1    3    3    0    0 -0.58796412136E+01 -0.29878658193E+01  0.55381489515E+01  0.86121203408E+01  0.00000000000E+00 0. -1.
</event>
<event>
 7    1  0.2312612E-008  0.4614232E+02  0.7816164E-02  0.1320468E+00
        -11   -1    0    0    0    0  0.00000000000E+00  0.00000000000E+00  0.45593999997E+02  0.45594000000E+02  0.51100000000E-03 0. -1.
         11   -1    0    0    0    0 -0.00000000000E+00 -0.00000000000E+00 -0.45593999997E+02  0.45594000000E+02  0.51100000000E-03 0.  1.
    9900012    2    1    2    0    0 -0.10295342710E+02 -0.42817246607E+02  0.94764314732E+01  0.46142318276E+02  0.10000004692E+02 0.  0.
         12    1    1    2    0    0  0.10295342710E+02  0.42817246607E+02 -0.94764314732E+01  0.45045681724E+02  0.00000000000E+00 0. -1.
         11    1    3    3    0    0 -0.16385048285E+01 -0.18871683077E+02  0.99572787192E+00  0.18968832185E+02  0.51100000000E-03 0. -1.
        -11    1    3    3    0    0 -0.41915935842E+01 -0.12778544069E+02  0.66687406305E+01  0.15011087474E+02  0.51100000000E-03 0.  1.
        -12    1    3    3    0    0 -0.44652442976E+01 -0.11167019462E+02  0.18119629708E+01  0.12162398616E+02  0.00000000000E+00 0.  1.
</event>
<event>
 7    1  0.2312612E-008  0.4614232E+02  0.7816164E-02  0.1320468E+00
        -11   -1    0    0    0    0  0.00000000000E+00  0.00000000000E+00  0.45593999997E+02  0.45594000000E+02  0.51100000000E-03 0.  1.
         11   -1    0    0    0    0 -0.00000000000E+00 -0.00000000000E+00 -0.45593999997E+02  0.45594000000E+02  0.51100000000E-03 0. -1.
    9900012    2    1    2    0    0 -0.21308514973E+02 -0.33334518304E+01  0.39546793919E+02  0.46142316291E+02  0.99999865977E+01 0.  0.
         12    1    1    2    0    0  0.21308514973E+02  0.33334518304E+01 -0.39546793919E+02  0.45045683709E+02  0.00000000000E+00 0. -1.
         11    1    3    3    0    0 -0.54861643077E+01 -0.75010133465E+00  0.12686504331E+02  0.13842255713E+02  0.51100000000E-03 0. -1.
        -11    1    3    3    0    0 -0.91342357963E+01 -0.30592541369E+01  0.22006824670E+02  0.24022773191E+02  0.51100000000E-03 0.  1.
         12    1    3    3    0    0 -0.66881148695E+01  0.47590364112E+00  0.48534649183E+01  0.82772873876E+01  0.00000000000E+00 0. -1.
</event>
<event>
 7    1  0.2312612E-008  0.4614232E+02  0.7816164E-02  0.1320468E+00
        -11   -1    0    0    0    0  0.00000000000E+00  0.00000000000E+00  0.45593999997E+02  0.45594000000E+02  0.51100000000E-03 0.  1.
         11   -1    0    0    0    0 -0.00000000000E+00 -0.00000000000E+00 -0.45593999997E+02  0.45594000000E+02  0.51100000000E-03 0. -1.
    9900012    2    1    2    0    0  0.28385475024E+02  0.66105165200E+01  0.34346462302E+02  0.46142316592E+02  0.99999893415E+01 0.  0.
         12    1    1    2    0    0 -0.28385475024E+02 -0.66105165200E+01 -0.34346462302E+02  0.45045683408E+02  0.00000000000E+00 0. -1.
         11    1    3    3    0    0  0.72860412805E+01  0.23169707793E+01  0.11686920226E+02  0.13965631234E+02  0.51100000000E-03 0. -1.
        -11    1    3    3    0    0  0.94331553649E+01 -0.14218837288E+01  0.12269326216E+02  0.15541638894E+02  0.51100000000E-03 0.  1.
         12    1    3    3    0    0  0.11666278379E+02  0.57154294696E+01  0.10390215860E+02  0.16635046464E+02  0.00000000000E+00 0. -1.
</event>
<event>
 7    1  0.2312612E-008  0.4614232E+02  0.7816164E-02  0.1320468E+00
        -11   -1    0    0    0    0  0.00000000000E+00  0.00000000000E+00  0.45593999997E+02  0.45594000000E+02  0.51100000000E-03 0. -1.
         11   -1    0    0    0    0 -0.00000000000E+00 -0.00000000000E+00 -0.45593999997E+02  0.45594000000E+02  0.51100000000E-03 0.  1.
    9900012    2    1    2    0    0 -0.28476126347E+02  0.87078400265E+01 -0.33799366123E+02  0.46142318742E+02  0.10000008948E+02 0.  0.
         12    1    1    2    0    0  0.28476126347E+02 -0.87078400265E+01  0.33799366123E+02  0.45045681258E+02  0.00000000000E+00 0. -1.
         11    1    3    3    0    0 -0.35744147266E+01  0.40794400678E+01 -0.27908023484E+01  0.60997417907E+01  0.51100000000E-03 0. -1.
        -11    1    3    3    0    0 -0.11444034513E+02  0.23815437071E+01 -0.14566752677E+02  0.18676936585E+02  0.51100000000E-03 0.  1.
         12    1    3    3    0    0 -0.13457677108E+02  0.22468562516E+01 -0.16441811097E+02  0.21365640367E+02  0.00000000000E+00 0. -1.
</event>
<event>
 7    1  0.2312612E-008  0.4614232E+02  0.7816164E-02  0.1320468E+00
        -11   -1    0    0    0    0  0.00000000000E+00  0.00000000000E+00  0.45593999997E+02  0.45594000000E+02  0.51100000000E-03 0. -1.
         11   -1    0    0    0    0 -0.00000000000E+00 -0.00000000000E+00 -0.45593999997E+02  0.45594000000E+02  0.51100000000E-03 0.  1.
    9900012    2    1    2    0    0 -0.11580707039E+02 -0.35807211412E+02 -0.24755693022E+02  0.46142317614E+02  0.99999986567E+01 0.  0.
         12    1    1    2    0    0  0.11580707039E+02  0.35807211412E+02  0.24755693022E+02  0.45045682386E+02  0.00000000000E+00 0. -1.
         11    1    3    3    0    0 -0.62237290494E+01 -0.15211434945E+02 -0.85907402724E+01  0.18545171206E+02  0.51100000000E-03 0. -1.
        -11    1    3    3    0    0 -0.62014654227E+01 -0.18063564710E+02 -0.16013497055E+02  0.24923535696E+02  0.51100000000E-03 0.  1.
         12    1    3    3    0    0  0.84448743345E+00 -0.25322117572E+01 -0.15145569466E+00  0.26736107114E+01  0.00000000000E+00 0. -1.
</event>
<event>
 7    1  0.2312612E-008  0.4614232E+02  0.7816164E-02  0.1320468E+00
        -11   -1    0    0    0    0  0.00000000000E+00  0.00000000000E+00  0.45593999997E+02  0.45594000000E+02  0.51100000000E-03 0.  1.
         11   -1    0    0    0    0 -0.00000000000E+00 -0.00000000000E+00 -0.45593999997E+02  0.45594000000E+02  0.51100000000E-03 0. -1.
    9900012    2    1    2    0    0  0.13245881921E+02 -0.11061537871E+02  0.41608923905E+02  0.46142317005E+02  0.99999931046E+01 0.  0.
         12    1    1    2    0    0 -0.13245881921E+02  0.11061537871E+02 -0.41608923905E+02  0.45045682995E+02  0.00000000000E+00 0. -1.
         11    1    3    3    0    0  0.83847256568E+01 -0.60237564779E+01  0.21727339548E+02  0.24055488990E+02  0.51100000000E-03 0. -1.
        -11    1    3    3    0    0  0.34453954731E+01 -0.62469211143E+01  0.11761271684E+02  0.13755809146E+02  0.51100000000E-03 0.  1.
         12    1    3    3    0    0  0.14157607909E+01  0.12091397216E+01  0.81203126735E+01  0.83310188692E+01  0.00000000000E+00 0. -1.
</event>
<event>
 7    1  0.2312612E-008  0.4614232E+02  0.7816164E-02  0.1320468E+00
        -11   -1    0    0    0    0  0.00000000000E+00  0.00000000000E+00  0.45593999997E+02  0.45594000000E+02  0.51100000000E-03 0.  1.
         11   -1    0    0    0    0 -0.00000000000E+00 -0.00000000000E+00 -0.45593999997E+02  0.45594000000E+02  0.51100000000E-03 0. -1.
    9900012    2    1    2    0    0  0.11559865861E+02  0.42854901464E+02 -0.76772527292E+01  0.46142319988E+02  0.10000020309E+02 0.  0.
         12    1    1    2    0    0 -0.11559865861E+02 -0.42854901464E+02  0.76772527292E+01  0.45045680012E+02  0.00000000000E+00 0. -1.
         11    1    3    3    0    0  0.15208626785E+01  0.48080242897E+01 -0.26552209709E+01  0.56991507720E+01  0.51100000000E-03 0. -1.
        -11    1    3    3    0    0  0.30696360881E+01  0.86806586703E+01 -0.45201328838E+01  0.10257100088E+02  0.51100000000E-03 0.  1.
         12    1    3    3    0    0  0.69693670943E+01  0.29366218504E+02 -0.50189887443E+00  0.30186069128E+02  0.00000000000E+00 0. -1.
</event>
<event>
 7    1  0.2312612E-008  0.4614232E+02  0.7816164E-02  0.1320468E+00
        -11   -1    0    0    0    0  0.00000000000E+00  0.00000000000E+00  0.45593999997E+02  0.45594000000E+02  0.51100000000E-03 0.  1.
         11   -1    0    0    0    0 -0.00000000000E+00 -0.00000000000E+00 -0.45593999997E+02  0.45594000000E+02  0.51100000000E-03 0. -1.
    9900012    2    1    2    0    0  0.37838579947E+02  0.19254356471E+02  0.15054071218E+02  0.46142318345E+02  0.10000005327E+02 0.  0.
         12    1    1    2    0    0 -0.37838579947E+02 -0.19254356471E+02 -0.15054071218E+02  0.45045681655E+02  0.00000000000E+00 0. -1.
         11    1    3    3    0    0  0.12358430948E+02  0.74341548436E+01  0.15506910924E+01  0.14505244460E+02  0.51100000000E-03 0. -1.
        -11    1    3    3    0    0  0.38688442316E+01  0.41605476198E+01  0.25998392335E+01  0.62479817931E+01  0.51100000000E-03 0.  1.
        -12    1    3    3    0    0  0.21611304767E+02  0.76596540076E+01  0.10903540892E+02  0.25389092092E+02  0.00000000000E+00 0.  1.
</event>
<event>
 7    1  0.2312612E-008  0.4614232E+02  0.7816164E-02  0.1320468E+00
        -11   -1    0    0    0    0  0.00000000000E+00  0.00000000000E+00  0.45593999997E+02  0.45594000000E+02  0.51100000000E-03 0. -1.
         11   -1    0    0    0    0 -0.00000000000E+00 -0.00000000000E+00 -0.45593999997E+02  0.45594000000E+02  0.51100000000E-03 0.  1.
    9900012    2    1    2    0    0  0.12343325240E+02  0.43087532645E+02 -0.44967054028E+01  0.46142317556E+02  0.99999981256E+01 0.  0.
         12    1    1    2    0    0 -0.12343325240E+02 -0.43087532645E+02  0.44967054028E+01  0.45045682444E+02  0.00000000000E+00 0. -1.
         11    1    3    3    0    0  0.32428621299E+01  0.43075306148E+01 -0.15995062110E+01  0.56240017044E+01  0.51100000000E-03 0. -1.
        -11    1    3    3    0    0  0.28677893116E+00  0.15216447419E+02 -0.19385386960E+01  0.15342113503E+02  0.51100000000E-03 0.  1.
        -12    1    3    3    0    0  0.88136841787E+01  0.23563554611E+02 -0.95866049586E+00  0.25176202348E+02  0.00000000000E+00 0.  1.
</event>
<event>
 7    1  0.2312612E-008  0.4614232E+02  0.7816164E-02  0.1320468E+00
        -11   -1    0    0    0    0  0.00000000000E+00  0.00000000000E+00  0.45593999997E+02  0.45594000000E+02  0.51100000000E-03 0.  1.
         11   -1    0    0    0    0 -0.00000000000E+00 -0.00000000000E+00 -0.45593999997E+02  0.45594000000E+02  0.51100000000E-03 0. -1.
    9900012    2    1    2    0    0  0.18746304837E+02  0.19891250198E+02  0.35805417409E+02  0.46142315464E+02  0.99999790553E+01 0.  0.
         12    1    1    2    0    0 -0.18746304837E+02 -0.19891250198E+02 -0.35805417409E+02  0.45045684536E+02  0.00000000000E+00 0. -1.
         11    1    3    3    0    0  0.12599431557E+02  0.17370437613E+02  0.29224822610E+02  0.36256972229E+02  0.51100000000E-03 0. -1.
        -11    1    3    3    0    0  0.67517113254E+00  0.16881060733E+01  0.19812166018E+01  0.26890105350E+01  0.51100000000E-03 0.  1.
         12    1    3    3    0    0  0.54717021473E+01  0.83270651173E+00  0.45993781975E+01  0.71963326998E+01  0.00000000000E+00 0. -1.
</event>
<event>
 7    1  0.2312612E-008  0.4614232E+02  0.7816164E-02  0.1320468E+00
        -11   -1    0    0    0    0  0.00000000000E+00  0.00000000000E+00  0.45593999997E+02  0.45594000000E+02  0.51100000000E-03 0.  1.
         11   -1    0    0    0    0 -0.00000000000E+00 -0.00000000000E+00 -0.45593999997E+02  0.45594000000E+02  0.51100000000E-03 0. -1.
    9900012    2    1    2    0    0  0.36032343288E+02 -0.68135467826E+00  0.27024420368E+02  0.46142319816E+02  0.10000018736E+02 0.  0.
         12    1    1    2    0    0 -0.36032343288E+02  0.68135467826E+00 -0.27024420368E+02  0.45045680184E+02  0.00000000000E+00 0. -1.
         11    1    3    3    0    0  0.14877097183E+02  0.30407285907E+01  0.73869727887E+01  0.16886130942E+02  0.51100000000E-03 0. -1.
        -11    1    3    3    0    0 -0.35697830046E-01 -0.76441643784E-01 -0.53626132727E-01  0.99968411044E-01  0.51100000000E-03 0.  1.
        -12    1    3    3    0    0  0.21190943935E+02 -0.36456416252E+01  0.19691073712E+02  0.29156220462E+02  0.00000000000E+00 0.  1.
</event>
<event>
 7    1  0.2312612E-008  0.4614232E+02  0.7816164E-02  0.1320468E+00
        -11   -1    0    0    0    0  0.00000000000E+00  0.00000000000E+00  0.45593999997E+02  0.45594000000E+02  0.51100000000E-03 0.  1.
         11   -1    0    0    0    0 -0.00000000000E+00 -0.00000000000E+00 -0.45593999997E+02  0.45594000000E+02  0.51100000000E-03 0. -1.
    9900012    2    1    2    0    0 -0.16482154921E+02 -0.22663399850E+02  0.35267867424E+02  0.46142316564E+02  0.99999890824E+01 0.  0.
         12    1    1    2    0    0  0.16482154921E+02  0.22663399850E+02 -0.35267867424E+02  0.45045683436E+02  0.00000000000E+00 0. -1.
         11    1    3    3    0    0 -0.47065262239E+01 -0.28168363160E+01  0.42415228251E+01  0.69337199298E+01  0.51100000000E-03 0. -1.
        -11    1    3    3    0    0 -0.82043811536E+01 -0.76928347147E+01  0.13234567586E+02  0.17367940451E+02  0.51100000000E-03 0.  1.
         12    1    3    3    0    0 -0.35712475432E+01 -0.12153728819E+02  0.17791777013E+02  0.21840656183E+02  0.00000000000E+00 0. -1.
</event>
<event>
 7    1  0.2312612E-008  0.4614232E+02  0.7816164E-02  0.1320468E+00
        -11   -1    0    0    0    0  0.00000000000E+00  0.00000000000E+00  0.45593999997E+02  0.45594000000E+02  0.51100000000E-03 0.  1.
         11   -1    0    0    0    0 -0.00000000000E+00 -0.00000000000E+00 -0.45593999997E+02  0.45594000000E+02  0.51100000000E-03 0. -1.
    9900012    2    1    2    0    0  0.10980817050E+02 -0.15422943895E+02  0.40873805726E+02  0.46142317233E+02  0.99999951804E+01 0.  0.
         12    1    1    2    0    0 -0.10980817050E+02  0.15422943895E+02 -0.40873805726E+02  0.45045682767E+02  0.00000000000E+00 0. -1.
         11    1    3    3    0    0  0.35045204088E+01 -0.65947174670E+00  0.10283577085E+02  0.10884324701E+02  0.51100000000E-03 0. -1.
        -11    1    3    3    0    0  0.82655144983E+01 -0.14224971683E+02  0.27738543244E+02  0.32250509002E+02  0.51100000000E-03 0.  1.
        -12    1    3    3    0    0 -0.78921785762E+00 -0.53850046555E+00  0.28516853971E+01  0.30074835298E+01  0.00000000000E+00 0.  1.
</event>
<event>
 7    1  0.2312612E-008  0.4614232E+02  0.7816164E-02  0.1320468E+00
        -11   -1    0    0    0    0  0.00000000000E+00  0.00000000000E+00  0.45593999997E+02  0.45594000000E+02  0.51100000000E-03 0.  1.
         11   -1    0    0    0    0 -0.00000000000E+00 -0.00000000000E+00 -0.45593999997E+02  0.45594000000E+02  0.51100000000E-03 0. -1.
    9900012    2    1    2    0    0  0.34863185832E+02 -0.28486010517E+02  0.14896214410E+01  0.46142317703E+02  0.99999994703E+01 0.  0.
         12    1    1    2    0    0 -0.34863185832E+02  0.28486010517E+02 -0.14896214410E+01  0.45045682297E+02  0.00000000000E+00 0. -1.
         11    1    3    3    0    0  0.20994633839E+02 -0.12002744769E+02  0.19540332945E+01  0.24262291285E+02  0.51100000000E-03 0.  1.
        -11    1    3    3    0    0  0.15249902840E+01 -0.27138536245E+01  0.11475152499E+01  0.33177384423E+01  0.51100000000E-03 0. -1.
        -12    1    3    3    0    0  0.12343561709E+02 -0.13769412124E+02 -0.16119271035E+01  0.18562287975E+02  0.00000000000E+00 0.  1.
</event>
<event>
 7    1  0.2312612E-008  0.4614232E+02  0.7816164E-02  0.1320468E+00
        -11   -1    0    0    0    0  0.00000000000E+00  0.00000000000E+00  0.45593999997E+02  0.45594000000E+02  0.51100000000E-03 0.  1.
         11   -1    0    0    0    0 -0.00000000000E+00 -0.00000000000E+00 -0.45593999997E+02  0.45594000000E+02  0.51100000000E-03 0. -1.
    9900012    2    1    2    0    0 -0.23831836076E+02  0.26324483895E+02  0.27716034645E+02  0.46142318303E+02  0.10000004941E+02 0.  0.
         12    1    1    2    0    0  0.23831836076E+02 -0.26324483895E+02 -0.27716034645E+02  0.45045681697E+02  0.00000000000E+00 0. -1.
         11    1    3    3    0    0 -0.62207623902E+01  0.73726209090E+01  0.61467784008E+01  0.11438370022E+02  0.51100000000E-03 0. -1.
        -11    1    3    3    0    0 -0.14352451323E+02  0.19138012187E+02  0.19082805368E+02  0.30600814212E+02  0.51100000000E-03 0.  1.
        -12    1    3    3    0    0 -0.32586223631E+01 -0.18614920133E+00  0.24864508759E+01  0.41031340690E+01  0.00000000000E+00 0.  1.
</event>
<event>
 7    1  0.2312612E-008  0.4614232E+02  0.7816164E-02  0.1320468E+00
        -11   -1    0    0    0    0  0.00000000000E+00  0.00000000000E+00  0.45593999997E+02  0.45594000000E+02  0.51100000000E-03 0. -1.
         11   -1    0    0    0    0 -0.00000000000E+00 -0.00000000000E+00 -0.45593999997E+02  0.45594000000E+02  0.51100000000E-03 0.  1.
    9900012    2    1    2    0    0  0.28252590652E+02 -0.30857154683E+02 -0.16695527710E+02  0.46142317419E+02  0.99999968759E+01 0.  0.
         12    1    1    2    0    0 -0.28252590652E+02  0.30857154683E+02  0.16695527710E+02  0.45045682581E+02  0.00000000000E+00 0. -1.
         11    1    3    3    0    0  0.71098549864E+01 -0.11119835824E+02 -0.92059476939E+01  0.16091931515E+02  0.51100000000E-03 0. -1.
        -11    1    3    3    0    0  0.12112313475E+02 -0.12585648742E+02 -0.31982525066E+01  0.17757688795E+02  0.51100000000E-03 0.  1.
        -12    1    3    3    0    0  0.90304221912E+01 -0.71516701172E+01 -0.42913275098E+01  0.12292697109E+02  0.00000000000E+00 0.  1.
</event>
<event>
 7    1  0.2312612E-008  0.4614231E+02  0.7816164E-02  0.1320468E+00
        -11   -1    0    0    0    0  0.00000000000E+00  0.00000000000E+00  0.45593999997E+02  0.45594000000E+02  0.51100000000E-03 0.  1.
         11   -1    0    0    0    0 -0.00000000000E+00 -0.00000000000E+00 -0.45593999997E+02  0.45594000000E+02  0.51100000000E-03 0. -1.
    9900012    2    1    2    0    0 -0.16355590956E+02  0.40101078647E+02  0.12389993702E+02  0.46142314212E+02  0.99999676391E+01 0.  0.
         12    1    1    2    0    0  0.16355590956E+02 -0.40101078647E+02 -0.12389993702E+02  0.45045685788E+02  0.00000000000E+00 0. -1.
         11    1    3    3    0    0 -0.47426124705E+01  0.13160629837E+02  0.63266231936E+01  0.15353198756E+02  0.51100000000E-03 0. -1.
        -11    1    3    3    0    0 -0.67512288806E+01  0.17917773621E+02  0.72444643420E+01  0.20472126582E+02  0.51100000000E-03 0.  1.
         12    1    3    3    0    0 -0.48617496045E+01  0.90226751892E+01 -0.11810938338E+01  0.10316988874E+02  0.00000000000E+00 0. -1.
</event>
<event>
 7    1  0.2312612E-008  0.4614232E+02  0.7816164E-02  0.1320468E+00
        -11   -1    0    0    0    0  0.00000000000E+00  0.00000000000E+00  0.45593999997E+02  0.45594000000E+02  0.51100000000E-03 0.  1.
         11   -1    0    0    0    0 -0.00000000000E+00 -0.00000000000E+00 -0.45593999997E+02  0.45594000000E+02  0.51100000000E-03 0. -1.
    9900012    2    1    2    0    0  0.60766911980E+01  0.71680672468E+00  0.44628170733E+02  0.46142316403E+02  0.99999876121E+01 0.  0.
         12    1    1    2    0    0 -0.60766911980E+01 -0.71680672468E+00 -0.44628170733E+02  0.45045683597E+02  0.00000000000E+00 0. -1.
         11    1    3    3    0    0  0.10158619827E+01 -0.14229888856E+01  0.32321123241E+01  0.36747004331E+01  0.51100000000E-03 0. -1.
        -11    1    3    3    0    0 -0.46338660269E+00 -0.97375182122E+00  0.22696793571E+02  0.22722397726E+02  0.51100000000E-03 0.  1.
        -12    1    3    3    0    0  0.55242158179E+01  0.31135474315E+01  0.18699264838E+02  0.19745218244E+02  0.00000000000E+00 0.  1.
</event>
<event>
 7    1  0.2312612E-008  0.4614232E+02  0.7816164E-02  0.1320468E+00
        -11   -1    0    0    0    0  0.00000000000E+00  0.00000000000E+00  0.45593999997E+02  0.45594000000E+02  0.51100000000E-03 0.  1.
         11   -1    0    0    0    0 -0.00000000000E+00 -0.00000000000E+00 -0.45593999997E+02  0.45594000000E+02  0.51100000000E-03 0. -1.
    9900012    2    1    2    0    0  0.19084995069E+02  0.33476984681E+02  0.23327394153E+02  0.46142324757E+02  0.10000063794E+02 0.  0.
         12    1    1    2    0    0 -0.19084995069E+02 -0.33476984681E+02 -0.23327394153E+02  0.45045675243E+02  0.00000000000E+00 0. -1.
         11    1    3    3    0    0 -0.49290104635E+00  0.50287912536E+01  0.30888880763E+01  0.59222396712E+01  0.51100000000E-03 0. -1.
        -11    1    3    3    0    0  0.11639052205E+02  0.19430534884E+02  0.14607281430E+02  0.26951547138E+02  0.51100000000E-03 0.  1.
         12    1    3    3    0    0  0.79388439107E+01  0.90176585434E+01  0.56312246464E+01  0.13268537947E+02  0.00000000000E+00 0. -1.
</event>
<event>
 7    1  0.2312612E-008  0.4614232E+02  0.7816164E-02  0.1320468E+00
        -11   -1    0    0    0    0  0.00000000000E+00  0.00000000000E+00  0.45593999997E+02  0.45594000000E+02  0.51100000000E-03 0. -1.
         11   -1    0    0    0    0 -0.00000000000E+00 -0.00000000000E+00 -0.45593999997E+02  0.45594000000E+02  0.51100000000E-03 0.  1.
    9900012    2    1    2    0    0  0.21456238437E+02  0.33580885869E+02 -0.21001606322E+02  0.46142317280E+02  0.99999956130E+01 0.  0.
         12    1    1    2    0    0 -0.21456238437E+02 -0.33580885869E+02  0.21001606322E+02  0.45045682720E+02  0.00000000000E+00 0. -1.
         11    1    3    3    0    0 -0.29746031496E+00  0.19031183883E+01 -0.18296235791E+01  0.26566642507E+01  0.51100000000E-03 0. -1.
        -11    1    3    3    0    0  0.15905222717E+02  0.25600372783E+02 -0.17613938849E+02  0.34908538187E+02  0.51100000000E-03 0.  1.
        -12    1    3    3    0    0  0.58484760347E+01  0.60773946977E+01 -0.15580438932E+01  0.85771148421E+01  0.00000000000E+00 0.  1.
</event>
<event>
 7    1  0.2312612E-008  0.4614232E+02  0.7816164E-02  0.1320468E+00
        -11   -1    0    0    0    0  0.00000000000E+00  0.00000000000E+00  0.45593999997E+02  0.45594000000E+02  0.51100000000E-03 0.  1.
         11   -1    0    0    0    0 -0.00000000000E+00 -0.00000000000E+00 -0.45593999997E+02  0.45594000000E+02  0.51100000000E-03 0. -1.
    9900012    2    1    2    0    0 -0.40777529964E+02  0.18430714723E+02 -0.51590071709E+01  0.46142317075E+02  0.99999937457E+01 0.  0.
         12    1    1    2    0    0  0.40777529964E+02 -0.18430714723E+02  0.51590071709E+01  0.45045682925E+02  0.00000000000E+00 0. -1.
         11    1    3    3    0    0 -0.11116544938E+02  0.97693462166E+00  0.49298794196E+00  0.11170273497E+02  0.51100000000E-03 0.  1.
        -11    1    3    3    0    0 -0.49089223729E+01  0.37249744544E+01 -0.32618876583E+00  0.61708470182E+01  0.51100000000E-03 0. -1.
        -12    1    3    3    0    0 -0.24752062653E+02  0.13728805647E+02 -0.53258063470E+01  0.28801196560E+02  0.00000000000E+00 0.  1.
</event>
<event>
 7    1  0.2312612E-008  0.4614231E+02  0.7816164E-02  0.1320468E+00
        -11   -1    0    0    0    0  0.00000000000E+00  0.00000000000E+00  0.45593999997E+02  0.45594000000E+02  0.51100000000E-03 0.  1.
         11   -1    0    0    0    0 -0.00000000000E+00 -0.00000000000E+00 -0.45593999997E+02  0.45594000000E+02  0.51100000000E-03 0. -1.
    9900012    2    1    2    0    0 -0.45592064061E+01 -0.24104450582E+02  0.37779665453E+02  0.46142311830E+02  0.99999459164E+01 0.  0.
         12    1    1    2    0    0  0.45592064061E+01  0.24104450582E+02 -0.37779665453E+02  0.45045688170E+02  0.00000000000E+00 0. -1.
         11    1    3    3    0    0 -0.27939199146E+01 -0.57367217097E+01  0.13305792870E+02  0.14756696399E+02  0.51100000000E-03 0. -1.
        -11    1    3    3    0    0 -0.35513307592E+01 -0.92255985328E+01  0.92514621049E+01  0.13539319399E+02  0.51100000000E-03 0.  1.
        -12    1    3    3    0    0  0.17860442677E+01 -0.91421303398E+01  0.15222410479E+02  0.17846296032E+02  0.00000000000E+00 0.  1.
</event>
<event>
 7    1  0.2312612E-008  0.4614232E+02  0.7816164E-02  0.1320468E+00
        -11   -1    0    0    0    0  0.00000000000E+00  0.00000000000E+00  0.45593999997E+02  0.45594000000E+02  0.51100000000E-03 0.  1.
         11   -1    0    0    0    0 -0.00000000000E+00 -0.00000000000E+00 -0.45593999997E+02  0.45594000000E+02  0.51100000000E-03 0. -1.
    9900012    2    1    2    0    0  0.11149953601E+02  0.43556485931E+02  0.27612681292E+01  0.46142317258E+02  0.99999954151E+01 0.  0.
         12    1    1    2    0    0 -0.11149953601E+02 -0.43556485931E+02 -0.27612681292E+01  0.45045682742E+02  0.00000000000E+00 0. -1.
         11    1    3    3    0    0  0.79555658006E+01  0.14117130973E+02  0.23813989296E+01  0.16378506502E+02  0.51100000000E-03 0.  1.
        -11    1    3    3    0    0  0.18948128547E+01  0.11053459977E+02 -0.11235437179E+01  0.11270831556E+02  0.51100000000E-03 0. -1.
        -12    1    3    3    0    0  0.12995749461E+01  0.18385894981E+02  0.15034129176E+01  0.18492979200E+02  0.00000000000E+00 0.  1.
</event>
<event>
 7    1  0.2312612E-008  0.4614232E+02  0.7816164E-02  0.1320468E+00
        -11   -1    0    0    0    0  0.00000000000E+00  0.00000000000E+00  0.45593999997E+02  0.45594000000E+02  0.51100000000E-03 0.  1.
         11   -1    0    0    0    0 -0.00000000000E+00 -0.00000000000E+00 -0.45593999997E+02  0.45594000000E+02  0.51100000000E-03 0. -1.
    9900012    2    1    2    0    0  0.36822426898E+02  0.15273706879E+01  0.25901535891E+02  0.46142317128E+02  0.99999942256E+01 0.  0.
         12    1    1    2    0    0 -0.36822426898E+02 -0.15273706879E+01 -0.25901535891E+02  0.45045682872E+02  0.00000000000E+00 0. -1.
         11    1    3    3    0    0  0.28224069729E+02  0.14635718835E+01  0.16722309637E+02  0.32838632654E+02  0.51100000000E-03 0. -1.
        -11    1    3    3    0    0  0.29603832360E+01  0.11680570735E+01  0.10539027354E+01  0.33524524557E+01  0.51100000000E-03 0.  1.
         12    1    3    3    0    0  0.56379739336E+01 -0.11042582691E+01  0.81253235187E+01  0.99512320184E+01  0.00000000000E+00 0. -1.
</event>
<event>
 7    1  0.2312612E-008  0.4614231E+02  0.7816164E-02  0.1320468E+00
        -11   -1    0    0    0    0  0.00000000000E+00  0.00000000000E+00  0.45593999997E+02  0.45594000000E+02  0.51100000000E-03 0. -1.
         11   -1    0    0    0    0 -0.00000000000E+00 -0.00000000000E+00 -0.45593999997E+02  0.45594000000E+02  0.51100000000E-03 0.  1.
    9900012    2    1    2    0    0  0.21142265393E+02 -0.52121183284E+01 -0.39432882228E+02  0.46142314699E+02  0.99999720804E+01 0.  0.
         12    1    1    2    0    0 -0.21142265393E+02  0.52121183284E+01  0.39432882228E+02  0.45045685301E+02  0.00000000000E+00 0. -1.
         11    1    3    3    0    0  0.33337973714E+01  0.11887374853E+01 -0.35534161152E+01  0.50153831430E+01  0.51100000000E-03 0. -1.
        -11    1    3    3    0    0  0.12001192517E+02 -0.81657809265E+00 -0.22296547153E+02  0.25334392371E+02  0.51100000000E-03 0.  1.
        -12    1    3    3    0    0  0.58072755046E+01 -0.55842777210E+01 -0.13582918960E+02  0.15792539185E+02  0.00000000000E+00 0.  1.
</event>
<event>
 7    1  0.2312612E-008  0.4614232E+02  0.7816164E-02  0.1320468E+00
        -11   -1    0    0    0    0  0.00000000000E+00  0.00000000000E+00  0.45593999997E+02  0.45594000000E+02  0.51100000000E-03 0. -1.
         11   -1    0    0    0    0 -0.00000000000E+00 -0.00000000000E+00 -0.45593999997E+02  0.45594000000E+02  0.51100000000E-03 0.  1.
    9900012    2    1    2    0    0 -0.53898441971E+01 -0.42585177255E+02 -0.13658907543E+02  0.46142317659E+02  0.99999990680E+01 0.  0.
         12    1    1    2    0    0  0.53898441971E+01  0.42585177255E+02  0.13658907543E+02  0.45045682341E+02  0.00000000000E+00 0. -1.
         11    1    3    3    0    0  0.18755570986E+01 -0.74416632246E+01 -0.32837009004E+01  0.83473802982E+01  0.51100000000E-03 0. -1.
        -11    1    3    3    0    0 -0.28548072405E+00 -0.73296674721E+01 -0.42303598189E+01  0.84676719914E+01  0.51100000000E-03 0.  1.
        -12    1    3    3    0    0 -0.69799205717E+01 -0.27813846558E+02 -0.61448468237E+01  0.29327265369E+02  0.00000000000E+00 0.  1.
</event>
<event>
 7    1  0.2312612E-008  0.4614232E+02  0.7816164E-02  0.1320468E+00
        -11   -1    0    0    0    0  0.00000000000E+00  0.00000000000E+00  0.45593999997E+02  0.45594000000E+02  0.51100000000E-03 0.  1.
         11   -1    0    0    0    0 -0.00000000000E+00 -0.00000000000E+00 -0.45593999997E+02  0.45594000000E+02  0.51100000000E-03 0. -1.
    9900012    2    1    2    0    0 -0.16526878306E+02 -0.36441393639E+01  0.41745610496E+02  0.46142318143E+02  0.10000003485E+02 0.  0.
         12    1    1    2    0    0  0.16526878306E+02  0.36441393639E+01 -0.41745610496E+02  0.45045681857E+02  0.00000000000E+00 0. -1.
         11    1    3    3    0    0 -0.10662841994E+02 -0.39099439221E+01  0.20351901363E+02  0.23306302801E+02  0.51100000000E-03 0. -1.
        -11    1    3    3    0    0 -0.35671985530E+01  0.23339030937E+01  0.77340065552E+01  0.88310173154E+01  0.51100000000E-03 0.  1.
        -12    1    3    3    0    0 -0.22968377590E+01 -0.20680985355E+01  0.13659702577E+02  0.14004998027E+02  0.00000000000E+00 0.  1.
</event>
<event>
 7    1  0.2312612E-008  0.4614232E+02  0.7816164E-02  0.1320468E+00
        -11   -1    0    0    0    0  0.00000000000E+00  0.00000000000E+00  0.45593999997E+02  0.45594000000E+02  0.51100000000E-03 0.  1.
         11   -1    0    0    0    0 -0.00000000000E+00 -0.00000000000E+00 -0.45593999997E+02  0.45594000000E+02  0.51100000000E-03 0. -1.
    9900012    2    1    2    0    0 -0.35649375457E+02 -0.22816494084E+02  0.15415678024E+02  0.46142317613E+02  0.99999986522E+01 0.  0.
         12    1    1    2    0    0  0.35649375457E+02  0.22816494084E+02 -0.15415678024E+02  0.45045682387E+02  0.00000000000E+00 0. -1.
         11    1    3    3    0    0 -0.13825191368E+02 -0.87050039115E+01  0.87571061054E+01  0.18536448340E+02  0.51100000000E-03 0. -1.
        -11    1    3    3    0    0 -0.20477455348E+02 -0.10712681862E+02  0.53382928495E+01  0.23718876470E+02  0.51100000000E-03 0.  1.
        -12    1    3    3    0    0 -0.13467287412E+01 -0.33988083101E+01  0.13202790691E+01  0.38869928031E+01  0.00000000000E+00 0.  1.
</event>
<event>
 7    1  0.2312612E-008  0.4614232E+02  0.7816164E-02  0.1320468E+00
        -11   -1    0    0    0    0  0.00000000000E+00  0.00000000000E+00  0.45593999997E+02  0.45594000000E+02  0.51100000000E-03 0.  1.
         11   -1    0    0    0    0 -0.00000000000E+00 -0.00000000000E+00 -0.45593999997E+02  0.45594000000E+02  0.51100000000E-03 0. -1.
    9900012    2    1    2    0    0 -0.37677197572E+02  0.22529917672E+01  0.24585897005E+02  0.46142317406E+02  0.99999967664E+01 0.  0.
         12    1    1    2    0    0  0.37677197572E+02 -0.22529917672E+01 -0.24585897005E+02  0.45045682594E+02  0.00000000000E+00 0. -1.
         11    1    3    3    0    0 -0.11539153479E+02 -0.19726919305E+01  0.97663554360E+01  0.15245500163E+02  0.51100000000E-03 0. -1.
        -11    1    3    3    0    0 -0.25037534905E+02  0.26357919446E+01  0.13838973174E+02  0.28728778813E+02  0.51100000000E-03 0.  1.
         12    1    3    3    0    0 -0.11005091879E+01  0.15898917531E+01  0.98056839517E+00  0.21680384307E+01  0.00000000000E+00 0. -1.
</event>
<event>
 7    1  0.2312612E-008  0.4614233E+02  0.7816164E-02  0.1320468E+00
        -11   -1    0    0    0    0  0.00000000000E+00  0.00000000000E+00  0.45593999997E+02  0.45594000000E+02  0.51100000000E-03 0. -1.
         11   -1    0    0    0    0 -0.00000000000E+00 -0.00000000000E+00 -0.45593999997E+02  0.45594000000E+02  0.51100000000E-03 0.  1.
    9900012    2    1    2    0    0 -0.44707731119E+02 -0.12268405064E+01  0.53689617457E+01  0.46142333064E+02  0.10000139544E+02 0.  0.
         12    1    1    2    0    0  0.44707731119E+02  0.12268405064E+01 -0.53689617457E+01  0.45045666936E+02  0.00000000000E+00 0. -1.
         11    1    3    3    0    0 -0.41290615912E+01  0.16503159129E+01 -0.11250894341E+01  0.45867765077E+01  0.51100000000E-03 0. -1.
        -11    1    3    3    0    0 -0.18733703407E+01 -0.84249168232E+00 -0.62788540630E+00  0.21479173664E+01  0.51100000000E-03 0.  1.
        -12    1    3    3    0    0 -0.38705299188E+02 -0.20346647370E+01  0.71219365861E+01  0.39407639190E+02  0.00000000000E+00 0.  1.
</event>
<event>
 7    1  0.2312612E-008  0.4614232E+02  0.7816164E-02  0.1320468E+00
        -11   -1    0    0    0    0  0.00000000000E+00  0.00000000000E+00  0.45593999997E+02  0.45594000000E+02  0.51100000000E-03 0.  1.
         11   -1    0    0    0    0 -0.00000000000E+00 -0.00000000000E+00 -0.45593999997E+02  0.45594000000E+02  0.51100000000E-03 0. -1.
    9900012    2    1    2    0    0 -0.34914838916E+02 -0.10917336486E+02  0.26284582693E+02  0.46142317634E+02  0.99999988448E+01 0.  0.
         12    1    1    2    0    0  0.34914838916E+02  0.10917336486E+02 -0.26284582693E+02  0.45045682366E+02  0.00000000000E+00 0. -1.
         11    1    3    3    0    0 -0.30414786204E+01 -0.34105215884E+01  0.59483738601E+01  0.75010266994E+01  0.51100000000E-03 0. -1.
        -11    1    3    3    0    0 -0.17067689350E+02 -0.51594839691E+01  0.10145141951E+02  0.20514633803E+02  0.51100000000E-03 0.  1.
         12    1    3    3    0    0 -0.14805670945E+02 -0.23473309282E+01  0.10191066881E+02  0.18126657133E+02  0.00000000000E+00 0. -1.
</event>
<event>
 7    1  0.2312612E-008  0.4614232E+02  0.7816164E-02  0.1320468E+00
        -11   -1    0    0    0    0  0.00000000000E+00  0.00000000000E+00  0.45593999997E+02  0.45594000000E+02  0.51100000000E-03 0.  1.
         11   -1    0    0    0    0 -0.00000000000E+00 -0.00000000000E+00 -0.45593999997E+02  0.45594000000E+02  0.51100000000E-03 0. -1.
    9900012    2    1    2    0    0  0.67162955557E+01  0.43677130877E+02  0.87357005397E+01  0.46142324829E+02  0.10000064453E+02 0.  0.
         12    1    1    2    0    0 -0.67162955557E+01 -0.43677130877E+02 -0.87357005397E+01  0.45045675171E+02  0.00000000000E+00 0. -1.
         11    1    3    3    0    0 -0.13294415319E+01  0.14547836575E+02  0.58308361864E+01  0.15729132675E+02  0.51100000000E-03 0. -1.
        -11    1    3    3    0    0  0.33702430221E+01  0.15576731654E+02  0.14342405374E+01  0.16001567211E+02  0.51100000000E-03 0.  1.
        -12    1    3    3    0    0  0.46754940655E+01  0.13552562649E+02  0.14706238159E+01  0.14411624943E+02  0.00000000000E+00 0.  1.
</event>
<event>
 7    1  0.2312612E-008  0.4614232E+02  0.7816164E-02  0.1320468E+00
        -11   -1    0    0    0    0  0.00000000000E+00  0.00000000000E+00  0.45593999997E+02  0.45594000000E+02  0.51100000000E-03 0.  1.
         11   -1    0    0    0    0 -0.00000000000E+00 -0.00000000000E+00 -0.45593999997E+02  0.45594000000E+02  0.51100000000E-03 0. -1.
    9900012    2    1    2    0    0  0.25422185225E+02  0.35746060258E+02  0.10249152578E+02  0.46142318140E+02  0.10000003459E+02 0.  0.
         12    1    1    2    0    0 -0.25422185225E+02 -0.35746060258E+02 -0.10249152578E+02  0.45045681860E+02  0.00000000000E+00 0. -1.
         11    1    3    3    0    0  0.81321447799E+01  0.95577989326E+01 -0.11176293607E+01  0.12598904508E+02  0.51100000000E-03 0. -1.
        -11    1    3    3    0    0  0.10135803752E+02  0.14859687280E+02  0.47705049323E+01  0.18609205822E+02  0.51100000000E-03 0.  1.
         12    1    3    3    0    0  0.71542366937E+01  0.11328574046E+02  0.65962770061E+01  0.14934207811E+02  0.00000000000E+00 0. -1.
</event>
<event>
 7    1  0.2312612E-008  0.4614232E+02  0.7816164E-02  0.1320468E+00
        -11   -1    0    0    0    0  0.00000000000E+00  0.00000000000E+00  0.45593999997E+02  0.45594000000E+02  0.51100000000E-03 0.  1.
         11   -1    0    0    0    0 -0.00000000000E+00 -0.00000000000E+00 -0.45593999997E+02  0.45594000000E+02  0.51100000000E-03 0. -1.
    9900012    2    1    2    0    0 -0.35092924728E+02 -0.27239387570E+02 -0.74576069800E+01  0.46142317598E+02  0.99999985164E+01 0.  0.
         12    1    1    2    0    0  0.35092924728E+02  0.27239387570E+02  0.74576069800E+01  0.45045682402E+02  0.00000000000E+00 0. -1.
         11    1    3    3    0    0 -0.41656465072E+01 -0.24857752291E+01 -0.26583080862E+01  0.55315722407E+01  0.51100000000E-03 0. -1.
        -11    1    3    3    0    0  0.79238237939E-01 -0.11536970610E+01  0.54751427621E+00  0.12794794843E+01  0.51100000000E-03 0.  1.
        -12    1    3    3    0    0 -0.31006516459E+02 -0.23599915280E+02 -0.53468131700E+01  0.39331265873E+02  0.00000000000E+00 0.  1.
</event>
<event>
 7    1  0.2312612E-008  0.4614232E+02  0.7816164E-02  0.1320468E+00
        -11   -1    0    0    0    0  0.00000000000E+00  0.00000000000E+00  0.45593999997E+02  0.45594000000E+02  0.51100000000E-03 0.  1.
         11   -1    0    0    0    0 -0.00000000000E+00 -0.00000000000E+00 -0.45593999997E+02  0.45594000000E+02  0.51100000000E-03 0. -1.
    9900012    2    1    2    0    0 -0.32477854923E+01 -0.29860126576E+02  0.33569897570E+02  0.46142319934E+02  0.10000019815E+02 0.  0.
         12    1    1    2    0    0  0.32477854923E+01  0.29860126576E+02 -0.33569897570E+02  0.45045680066E+02  0.00000000000E+00 0. -1.
         11    1    3    3    0    0  0.15282901765E+01 -0.10660560893E+01  0.74832659187E+00  0.20080187745E+01  0.51100000000E-03 0. -1.
        -11    1    3    3    0    0 -0.37550448389E+01 -0.99688878534E+01  0.11794121379E+02  0.15892777798E+02  0.51100000000E-03 0.  1.
        -12    1    3    3    0    0 -0.10210308300E+01 -0.18825182633E+02  0.21027449599E+02  0.28241523361E+02  0.00000000000E+00 0.  1.
</event>
<event>
 7    1  0.2312612E-008  0.4614232E+02  0.7816164E-02  0.1320468E+00
        -11   -1    0    0    0    0  0.00000000000E+00  0.00000000000E+00  0.45593999997E+02  0.45594000000E+02  0.51100000000E-03 0.  1.
         11   -1    0    0    0    0 -0.00000000000E+00 -0.00000000000E+00 -0.45593999997E+02  0.45594000000E+02  0.51100000000E-03 0. -1.
    9900012    2    1    2    0    0  0.29344748135E+02  0.31178936077E+02  0.13995467961E+02  0.46142318504E+02  0.10000006775E+02 0.  0.
         12    1    1    2    0    0 -0.29344748135E+02 -0.31178936077E+02 -0.13995467961E+02  0.45045681496E+02  0.00000000000E+00 0. -1.
         11    1    3    3    0    0  0.44956685535E+01  0.19470697591E+01  0.25378382601E+01  0.55174939679E+01  0.51100000000E-03 0. -1.
        -11    1    3    3    0    0  0.13225540926E+02  0.18161407071E+02  0.97200965678E+01  0.24479213981E+02  0.51100000000E-03 0.  1.
         12    1    3    3    0    0  0.11623538655E+02  0.11070459247E+02  0.17375331331E+01  0.16145610555E+02  0.00000000000E+00 0. -1.
</event>
<event>
 7    1  0.2312612E-008  0.4614232E+02  0.7816164E-02  0.1320468E+00
        -11   -1    0    0    0    0  0.00000000000E+00  0.00000000000E+00  0.45593999997E+02  0.45594000000E+02  0.51100000000E-03 0.  1.
         11   -1    0    0    0    0 -0.00000000000E+00 -0.00000000000E+00 -0.45593999997E+02  0.45594000000E+02  0.51100000000E-03 0. -1.
    9900012    2    1    2    0    0  0.17799114921E+02  0.40152927221E+02  0.10002373708E+02  0.46142317231E+02  0.99999951626E+01 0.  0.
         12    1    1    2    0    0 -0.17799114921E+02 -0.40152927221E+02 -0.10002373708E+02  0.45045682769E+02  0.00000000000E+00 0. -1.
         11    1    3    3    0    0  0.47115030929E+01  0.22157927853E+02  0.55789574613E+01  0.23330169196E+02  0.51100000000E-03 0. -1.
        -11    1    3    3    0    0  0.35032471426E+01  0.33266624585E+01  0.14125005079E+01  0.50333469582E+01  0.51100000000E-03 0.  1.
         12    1    3    3    0    0  0.95843646853E+01  0.14668336910E+02  0.30109157390E+01  0.17778801076E+02  0.00000000000E+00 0. -1.
</event>
<event>
 7    1  0.2312612E-008  0.4614232E+02  0.7816164E-02  0.1320468E+00
        -11   -1    0    0    0    0  0.00000000000E+00  0.00000000000E+00  0.45593999997E+02  0.45594000000E+02  0.51100000000E-03 0.  1.
         11   -1    0    0    0    0 -0.00000000000E+00 -0.00000000000E+00 -0.45593999997E+02  0.45594000000E+02  0.51100000000E-03 0. -1.
    9900012    2    1    2    0    0 -0.22939701664E+02  0.37785129224E+02 -0.86699228332E+01  0.46142318022E+02  0.10000002379E+02 0.  0.
         12    1    1    2    0    0  0.22939701664E+02 -0.37785129224E+02  0.86699228332E+01  0.45045681978E+02  0.00000000000E+00 0. -1.
         11    1    3    3    0    0 -0.39686798370E+01  0.77139036206E+01  0.58682623819E+00  0.86947739483E+01  0.51100000000E-03 0. -1.
        -11    1    3    3    0    0 -0.41088963434E+01  0.99934106356E+01 -0.56973802534E+01  0.12215212946E+02  0.51100000000E-03 0.  1.
        -12    1    3    3    0    0 -0.14862125483E+02  0.20077814968E+02 -0.35593688180E+01  0.25232331128E+02  0.00000000000E+00 0.  1.
</event>
<event>
 7    1  0.2312612E-008  0.4614232E+02  0.7816164E-02  0.1320468E+00
        -11   -1    0    0    0    0  0.00000000000E+00  0.00000000000E+00  0.45593999997E+02  0.45594000000E+02  0.51100000000E-03 0.  1.
         11   -1    0    0    0    0 -0.00000000000E+00 -0.00000000000E+00 -0.45593999997E+02  0.45594000000E+02  0.51100000000E-03 0. -1.
    9900012    2    1    2    0    0 -0.80644821089E+01  0.26011111966E+02  0.35881745164E+02  0.46142318149E+02  0.10000003541E+02 0.  0.
         12    1    1    2    0    0  0.80644821089E+01 -0.26011111966E+02 -0.35881745164E+02  0.45045681851E+02  0.00000000000E+00 0. -1.
         11    1    3    3    0    0 -0.35164241363E+01  0.16480234529E+01  0.32147184090E+01  0.50413921409E+01  0.51100000000E-03 0. -1.
        -11    1    3    3    0    0 -0.27321853161E+01  0.10334636531E+02  0.15970298171E+02  0.19217699466E+02  0.51100000000E-03 0.  1.
         12    1    3    3    0    0 -0.18158726564E+01  0.14028451982E+02  0.16696728584E+02  0.21883226543E+02  0.00000000000E+00 0. -1.
</event>
<event>
 7    1  0.2312612E-008  0.4614232E+02  0.7816164E-02  0.1320468E+00
        -11   -1    0    0    0    0  0.00000000000E+00  0.00000000000E+00  0.45593999997E+02  0.45594000000E+02  0.51100000000E-03 0. -1.
         11   -1    0    0    0    0 -0.00000000000E+00 -0.00000000000E+00 -0.45593999997E+02  0.45594000000E+02  0.51100000000E-03 0.  1.
    9900012    2    1    2    0    0 -0.40960207665E+02 -0.66602777674E+01 -0.17521859311E+02  0.46142318013E+02  0.10000002301E+02 0.  0.
         12    1    1    2    0    0  0.40960207665E+02  0.66602777674E+01  0.17521859311E+02  0.45045681987E+02  0.00000000000E+00 0. -1.
         11    1    3    3    0    0 -0.61460448711E+00 -0.95201693545E+00 -0.17932844628E-01  0.11333122999E+01  0.51100000000E-03 0. -1.
        -11    1    3    3    0    0 -0.26234919668E+02 -0.17757367731E+01 -0.14597301972E+02  0.30074997526E+02  0.51100000000E-03 0.  1.
        -12    1    3    3    0    0 -0.14110683510E+02 -0.39325240588E+01 -0.29066244947E+01  0.14934008188E+02  0.00000000000E+00 0.  1.
</event>
<event>
 7    1  0.2312612E-008  0.4614232E+02  0.7816164E-02  0.1320468E+00
        -11   -1    0    0    0    0  0.00000000000E+00  0.00000000000E+00  0.45593999997E+02  0.45594000000E+02  0.51100000000E-03 0.  1.
         11   -1    0    0    0    0 -0.00000000000E+00 -0.00000000000E+00 -0.45593999997E+02  0.45594000000E+02  0.51100000000E-03 0. -1.
    9900012    2    1    2    0    0 -0.43207241891E+02 -0.12724482576E+02  0.57899754902E+00  0.46142318222E+02  0.10000004203E+02 0.  0.
         12    1    1    2    0    0  0.43207241891E+02  0.12724482576E+02 -0.57899754902E+00  0.45045681778E+02  0.00000000000E+00 0. -1.
         11    1    3    3    0    0 -0.81938602238E+01  0.45758152215E+00 -0.87532126404E+00  0.82531759822E+01  0.51100000000E-03 0. -1.
        -11    1    3    3    0    0 -0.29237281760E+02 -0.12071392378E+02 -0.66169075637E+00  0.31638188848E+02  0.51100000000E-03 0.  1.
        -12    1    3    3    0    0 -0.57760999074E+01 -0.11106717204E+01  0.21160095694E+01  0.62509533920E+01  0.00000000000E+00 0.  1.
</event>
<event>
 7    1  0.2312612E-008  0.4614232E+02  0.7816164E-02  0.1320468E+00
        -11   -1    0    0    0    0  0.00000000000E+00  0.00000000000E+00  0.45593999997E+02  0.45594000000E+02  0.51100000000E-03 0.  1.
         11   -1    0    0    0    0 -0.00000000000E+00 -0.00000000000E+00 -0.45593999997E+02  0.45594000000E+02  0.51100000000E-03 0. -1.
    9900012    2    1    2    0    0 -0.37742372568E+02  0.16297312478E+02  0.18412612832E+02  0.46142318827E+02  0.10000009716E+02 0.  0.
         12    1    1    2    0    0  0.37742372568E+02 -0.16297312478E+02 -0.18412612832E+02  0.45045681173E+02  0.00000000000E+00 0. -1.
         11    1    3    3    0    0 -0.12569201083E+01  0.61130379474E-01  0.89775778005E-01  0.12616041508E+01  0.51100000000E-03 0. -1.
        -11    1    3    3    0    0 -0.19208618438E+02  0.10372483231E+02  0.52983998034E+01  0.22464026162E+02  0.51100000000E-03 0.  1.
         12    1    3    3    0    0 -0.17276834022E+02  0.58636988674E+01  0.13024437251E+02  0.22416688514E+02  0.00000000000E+00 0. -1.
</event>
<event>
 7    1  0.2312612E-008  0.4614232E+02  0.7816164E-02  0.1320468E+00
        -11   -1    0    0    0    0  0.00000000000E+00  0.00000000000E+00  0.45593999997E+02  0.45594000000E+02  0.51100000000E-03 0.  1.
         11   -1    0    0    0    0 -0.00000000000E+00 -0.00000000000E+00 -0.45593999997E+02  0.45594000000E+02  0.51100000000E-03 0. -1.
    9900012    2    1    2    0    0  0.14263686086E+02  0.35213370810E+02  0.24200812194E+02  0.46142317239E+02  0.99999952380E+01 0.  0.
         12    1    1    2    0    0 -0.14263686086E+02 -0.35213370810E+02 -0.24200812194E+02  0.45045682761E+02  0.00000000000E+00 0. -1.
         11    1    3    3    0    0  0.65238928019E+01  0.14424832834E+02  0.11781046687E+02  0.19733981881E+02  0.51100000000E-03 0. -1.
        -11    1    3    3    0    0  0.38996407643E+01  0.96519430819E+01  0.98915229495E+01  0.14359994076E+02  0.51100000000E-03 0.  1.
         12    1    3    3    0    0  0.38401525201E+01  0.11136594894E+02  0.25282425576E+01  0.12048341282E+02  0.00000000000E+00 0. -1.
</event>
<event>
 7    1  0.2312612E-008  0.4614232E+02  0.7816164E-02  0.1320468E+00
        -11   -1    0    0    0    0  0.00000000000E+00  0.00000000000E+00  0.45593999997E+02  0.45594000000E+02  0.51100000000E-03 0.  1.
         11   -1    0    0    0    0 -0.00000000000E+00 -0.00000000000E+00 -0.45593999997E+02  0.45594000000E+02  0.51100000000E-03 0. -1.
    9900012    2    1    2    0    0 -0.26943030175E+02 -0.13439449154E+02  0.33504743998E+02  0.46142317200E+02  0.99999948835E+01 0.  0.
         12    1    1    2    0    0  0.26943030175E+02  0.13439449154E+02 -0.33504743998E+02  0.45045682800E+02  0.00000000000E+00 0. -1.
         11    1    3    3    0    0 -0.88558029453E+01 -0.77500364015E+01  0.14399109784E+02  0.18596308044E+02  0.51100000000E-03 0. -1.
        -11    1    3    3    0    0 -0.77181925801E+01 -0.26235487536E+01  0.12344961324E+02  0.14793632925E+02  0.51100000000E-03 0.  1.
         12    1    3    3    0    0 -0.10369034649E+02 -0.30658639991E+01  0.67606728897E+01  0.12752376231E+02  0.00000000000E+00 0. -1.
</event>
<event>
 7    1  0.2312612E-008  0.4614232E+02  0.7816164E-02  0.1320468E+00
        -11   -1    0    0    0    0  0.00000000000E+00  0.00000000000E+00  0.45593999997E+02  0.45594000000E+02  0.51100000000E-03 0.  1.
         11   -1    0    0    0    0 -0.00000000000E+00 -0.00000000000E+00 -0.45593999997E+02  0.45594000000E+02  0.51100000000E-03 0. -1.
    9900012    2    1    2    0    0 -0.93961465683E+01 -0.32755302606E+02  0.29460415895E+02  0.46142317368E+02  0.99999964135E+01 0.  0.
         12    1    1    2    0    0  0.93961465683E+01  0.32755302606E+02 -0.29460415895E+02  0.45045682632E+02  0.00000000000E+00 0. -1.
         11    1    3    3    0    0 -0.32732117924E+01 -0.23572592606E+02  0.20706357571E+02  0.31545749028E+02  0.51100000000E-03 0. -1.
        -11    1    3    3    0    0  0.30100113691E+00 -0.20820246588E+01  0.14976824137E+01  0.25823402637E+01  0.51100000000E-03 0.  1.
         12    1    3    3    0    0 -0.64239359128E+01 -0.71006853404E+01  0.72563759096E+01  0.12014228076E+02  0.00000000000E+00 0. -1.
</event>
<event>
 7    1  0.2312612E-008  0.4614232E+02  0.7816164E-02  0.1320468E+00
        -11   -1    0    0    0    0  0.00000000000E+00  0.00000000000E+00  0.45593999997E+02  0.45594000000E+02  0.51100000000E-03 0. -1.
         11   -1    0    0    0    0 -0.00000000000E+00 -0.00000000000E+00 -0.45593999997E+02  0.45594000000E+02  0.51100000000E-03 0.  1.
    9900012    2    1    2    0    0 -0.90712808900E+01 -0.21722892374E+02 -0.38404965336E+02  0.46142317049E+02  0.99999935051E+01 0.  0.
         12    1    1    2    0    0  0.90712808900E+01  0.21722892374E+02  0.38404965336E+02  0.45045682951E+02  0.00000000000E+00 0. -1.
         11    1    3    3    0    0  0.85753032118E+00 -0.69805738214E+01 -0.67304034561E+01  0.97345826861E+01  0.51100000000E-03 0. -1.
        -11    1    3    3    0    0 -0.17116596179E+01 -0.23287697531E+01 -0.72380583689E+01  0.77937434153E+01  0.51100000000E-03 0.  1.
        -12    1    3    3    0    0 -0.82171515933E+01 -0.12413548799E+02 -0.24436503511E+02  0.28613990948E+02  0.00000000000E+00 0.  1.
</event>
<event>
 7    1  0.2312612E-008  0.4614232E+02  0.7816164E-02  0.1320468E+00
        -11   -1    0    0    0    0  0.00000000000E+00  0.00000000000E+00  0.45593999997E+02  0.45594000000E+02  0.51100000000E-03 0.  1.
         11   -1    0    0    0    0 -0.00000000000E+00 -0.00000000000E+00 -0.45593999997E+02  0.45594000000E+02  0.51100000000E-03 0. -1.
    9900012    2    1    2    0    0 -0.31632939849E+02  0.16087207508E+02  0.27742970898E+02  0.46142316931E+02  0.99999924284E+01 0.  0.
         12    1    1    2    0    0  0.31632939849E+02 -0.16087207508E+02 -0.27742970898E+02  0.45045683069E+02  0.00000000000E+00 0. -1.
         11    1    3    3    0    0 -0.10771934624E+02  0.20065847204E+01  0.11014503802E+02  0.15536416963E+02  0.51100000000E-03 0. -1.
        -11    1    3    3    0    0 -0.15269998537E+02  0.92253368478E+01  0.93073516916E+01  0.20122288415E+02  0.51100000000E-03 0.  1.
         12    1    3    3    0    0 -0.55910066886E+01  0.48552859398E+01  0.74211154044E+01  0.10483611553E+02  0.00000000000E+00 0. -1.
</event>
<event>
 7    1  0.2312612E-008  0.4614232E+02  0.7816164E-02  0.1320468E+00
        -11   -1    0    0    0    0  0.00000000000E+00  0.00000000000E+00  0.45593999997E+02  0.45594000000E+02  0.51100000000E-03 0.  1.
         11   -1    0    0    0    0 -0.00000000000E+00 -0.00000000000E+00 -0.45593999997E+02  0.45594000000E+02  0.51100000000E-03 0. -1.
    9900012    2    1    2    0    0  0.33501803195E+02 -0.29453871600E+02  0.62619541009E+01  0.46142318312E+02  0.10000005025E+02 0.  0.
         12    1    1    2    0    0 -0.33501803195E+02  0.29453871600E+02 -0.62619541009E+01  0.45045681688E+02  0.00000000000E+00 0. -1.
         11    1    3    3    0    0  0.63450626035E+01 -0.28094170187E+01 -0.37434909218E+00  0.69493007513E+01  0.51100000000E-03 0. -1.
        -11    1    3    3    0    0  0.80734224080E+01 -0.92532988947E+01  0.51946266849E+01  0.13333710529E+02  0.51100000000E-03 0.  1.
         12    1    3    3    0    0  0.19083318184E+02 -0.17391155687E+02  0.14416765081E+01  0.25859307032E+02  0.00000000000E+00 0. -1.
</event>
<event>
 7    1  0.2312612E-008  0.4614232E+02  0.7816164E-02  0.1320468E+00
        -11   -1    0    0    0    0  0.00000000000E+00  0.00000000000E+00  0.45593999997E+02  0.45594000000E+02  0.51100000000E-03 0.  1.
         11   -1    0    0    0    0 -0.00000000000E+00 -0.00000000000E+00 -0.45593999997E+02  0.45594000000E+02  0.51100000000E-03 0. -1.
    9900012    2    1    2    0    0  0.18177371417E+02 -0.10859982839E+02  0.39758740750E+02  0.46142317355E+02  0.99999962947E+01 0.  0.
         12    1    1    2    0    0 -0.18177371417E+02  0.10859982839E+02 -0.39758740750E+02  0.45045682645E+02  0.00000000000E+00 0. -1.
         11    1    3    3    0    0  0.30013742328E+01 -0.30824504452E+01  0.23758940536E+01  0.49147350740E+01  0.51100000000E-03 0. -1.
        -11    1    3    3    0    0  0.10216088169E+02 -0.66361037001E+01  0.28411456788E+02  0.30913058841E+02  0.51100000000E-03 0.  1.
         12    1    3    3    0    0  0.49599090154E+01 -0.11414286942E+01  0.89713899084E+01  0.10314523440E+02  0.00000000000E+00 0. -1.
</event>
<event>
 7    1  0.2312612E-008  0.4614232E+02  0.7816164E-02  0.1320468E+00
        -11   -1    0    0    0    0  0.00000000000E+00  0.00000000000E+00  0.45593999997E+02  0.45594000000E+02  0.51100000000E-03 0.  1.
         11   -1    0    0    0    0 -0.00000000000E+00 -0.00000000000E+00 -0.45593999997E+02  0.45594000000E+02  0.51100000000E-03 0. -1.
    9900012    2    1    2    0    0 -0.11713909636E+02  0.14476251505E+02  0.41016286812E+02  0.46142319625E+02  0.10000016997E+02 0.  0.
         12    1    1    2    0    0  0.11713909636E+02 -0.14476251505E+02 -0.41016286812E+02  0.45045680375E+02  0.00000000000E+00 0. -1.
         11    1    3    3    0    0 -0.25040627930E+01 -0.15552822011E+00  0.35540171243E+01  0.43503514202E+01  0.51100000000E-03 0. -1.
        -11    1    3    3    0    0 -0.81867576527E+01  0.12133759520E+02  0.24399817122E+02  0.28453509393E+02  0.51100000000E-03 0.  1.
        -12    1    3    3    0    0 -0.10230891907E+01  0.24980202052E+01  0.13062452566E+02  0.13338458812E+02  0.00000000000E+00 0.  1.
</event>
<event>
 7    1  0.2312612E-008  0.4614232E+02  0.7816164E-02  0.1320468E+00
        -11   -1    0    0    0    0  0.00000000000E+00  0.00000000000E+00  0.45593999997E+02  0.45594000000E+02  0.51100000000E-03 0.  1.
         11   -1    0    0    0    0 -0.00000000000E+00 -0.00000000000E+00 -0.45593999997E+02  0.45594000000E+02  0.51100000000E-03 0. -1.
    9900012    2    1    2    0    0  0.17297911116E+02  0.25223841704E+02  0.33070432396E+02  0.46142318540E+02  0.10000007102E+02 0.  0.
         12    1    1    2    0    0 -0.17297911116E+02 -0.25223841704E+02 -0.33070432396E+02  0.45045681460E+02  0.00000000000E+00 0. -1.
         11    1    3    3    0    0  0.50870621715E+01  0.14909969165E+02  0.18846192413E+02  0.24563475950E+02  0.51100000000E-03 0. -1.
        -11    1    3    3    0    0  0.11477144614E+02  0.10164012645E+02  0.14081811242E+02  0.20816565751E+02  0.51100000000E-03 0.  1.
         12    1    3    3    0    0  0.73370433065E+00  0.14985989413E+00  0.14242874202E+00  0.76227683897E+00  0.00000000000E+00 0. -1.
</event>
<event>
 7    1  0.2312612E-008  0.4614232E+02  0.7816164E-02  0.1320468E+00
        -11   -1    0    0    0    0  0.00000000000E+00  0.00000000000E+00  0.45593999997E+02  0.45594000000E+02  0.51100000000E-03 0.  1.
         11   -1    0    0    0    0 -0.00000000000E+00 -0.00000000000E+00 -0.45593999997E+02  0.45594000000E+02  0.51100000000E-03 0. -1.
    9900012    2    1    2    0    0  0.29091304324E+02 -0.29029384572E+02 -0.18441915393E+02  0.46142318750E+02  0.10000009017E+02 0.  0.
         12    1    1    2    0    0 -0.29091304324E+02  0.29029384572E+02  0.18441915393E+02  0.45045681250E+02  0.00000000000E+00 0. -1.
         11    1    3    3    0    0  0.21194866509E+02 -0.23099424713E+02 -0.15935800972E+02  0.35167535332E+02  0.51100000000E-03 0. -1.
        -11    1    3    3    0    0  0.77848709806E+01 -0.45664820164E+01 -0.30143034251E+01  0.95154085352E+01  0.51100000000E-03 0.  1.
         12    1    3    3    0    0  0.11156683426E+00 -0.13634778427E+01  0.50818900388E+00  0.14593748832E+01  0.00000000000E+00 0. -1.
</event>
<event>
 7    1  0.2312612E-008  0.4614232E+02  0.7816164E-02  0.1320468E+00
        -11   -1    0    0    0    0  0.00000000000E+00  0.00000000000E+00  0.45593999997E+02  0.45594000000E+02  0.51100000000E-03 0.  1.
         11   -1    0    0    0    0 -0.00000000000E+00 -0.00000000000E+00 -0.45593999997E+02  0.45594000000E+02  0.51100000000E-03 0. -1.
    9900012    2    1    2    0    0 -0.34862830498E+02 -0.23089243239E+02  0.16750621311E+02  0.46142318542E+02  0.10000007122E+02 0.  0.
         12    1    1    2    0    0  0.34862830498E+02  0.23089243239E+02 -0.16750621311E+02  0.45045681458E+02  0.00000000000E+00 0. -1.
         11    1    3    3    0    0 -0.74160218981E+01 -0.79550516200E+01  0.45574594598E+01  0.11791974561E+02  0.51100000000E-03 0. -1.
        -11    1    3    3    0    0 -0.57751289946E+01 -0.41596285738E+01  0.59300309269E+01  0.92639026242E+01  0.51100000000E-03 0.  1.
        -12    1    3    3    0    0 -0.21671679605E+02 -0.10974563046E+02  0.62631309240E+01  0.25086441356E+02  0.00000000000E+00 0.  1.
</event>
<event>
 7    1  0.2312612E-008  0.4614232E+02  0.7816164E-02  0.1320468E+00
        -11   -1    0    0    0    0  0.00000000000E+00  0.00000000000E+00  0.45593999997E+02  0.45594000000E+02  0.51100000000E-03 0.  1.
         11   -1    0    0    0    0 -0.00000000000E+00 -0.00000000000E+00 -0.45593999997E+02  0.45594000000E+02  0.51100000000E-03 0. -1.
    9900012    2    1    2    0    0 -0.39620151523E+02  0.14291959399E+02  0.15971755415E+02  0.46142317841E+02  0.10000000726E+02 0.  0.
         12    1    1    2    0    0  0.39620151523E+02 -0.14291959399E+02 -0.15971755415E+02  0.45045682159E+02  0.00000000000E+00 0. -1.
         11    1    3    3    0    0 -0.11166775793E+02  0.96698193118E+00  0.10372838911E+01  0.11256460092E+02  0.51100000000E-03 0. -1.
        -11    1    3    3    0    0 -0.21453805879E+02  0.87801791777E+01  0.11100012167E+02  0.25701509750E+02  0.51100000000E-03 0.  1.
         12    1    3    3    0    0 -0.69995698506E+01  0.45447982905E+01  0.38344593570E+01  0.91843479983E+01  0.00000000000E+00 0. -1.
</event>
<event>
 7    1  0.2312612E-008  0.4614232E+02  0.7816164E-02  0.1320468E+00
        -11   -1    0    0    0    0  0.00000000000E+00  0.00000000000E+00  0.45593999997E+02  0.45594000000E+02  0.51100000000E-03 0.  1.
         11   -1    0    0    0    0 -0.00000000000E+00 -0.00000000000E+00 -0.45593999997E+02  0.45594000000E+02  0.51100000000E-03 0. -1.
    9900012    2    1    2    0    0  0.22119558311E+01 -0.29044022611E+02  0.34360816312E+02  0.46142315461E+02  0.99999790230E+01 0.  0.
         12    1    1    2    0    0 -0.22119558311E+01  0.29044022611E+02 -0.34360816312E+02  0.45045684539E+02  0.00000000000E+00 0. -1.
         11    1    3    3    0    0 -0.17387408954E+01 -0.67344310729E+01  0.87704894284E+01  0.11193626171E+02  0.51100000000E-03 0. -1.
        -11    1    3    3    0    0 -0.29008793103E+00 -0.36266393071E+01  0.86154199630E+01  0.93521187477E+01  0.51100000000E-03 0.  1.
        -12    1    3    3    0    0  0.42407846575E+01 -0.18682952231E+02  0.16974906920E+02  0.25596570542E+02  0.00000000000E+00 0.  1.
</event>
<event>
 7    1  0.2312612E-008  0.4614232E+02  0.7816164E-02  0.1320468E+00
        -11   -1    0    0    0    0  0.00000000000E+00  0.00000000000E+00  0.45593999997E+02  0.45594000000E+02  0.51100000000E-03 0. -1.
         11   -1    0    0    0    0 -0.00000000000E+00 -0.00000000000E+00 -0.45593999997E+02  0.45594000000E+02  0.51100000000E-03 0.  1.
    9900012    2    1    2    0    0 -0.56483584150E+01 -0.33423090692E+02 -0.29666590044E+02  0.46142317532E+02  0.99999979126E+01 0.  0.
         12    1    1    2    0    0  0.56483584150E+01  0.33423090692E+02  0.29666590044E+02  0.45045682468E+02  0.00000000000E+00 0. -1.
         11    1    3    3    0    0 -0.79078406886E+00 -0.98652811976E+01 -0.10248669710E+02  0.14247257407E+02  0.51100000000E-03 0.  1.
        -11    1    3    3    0    0 -0.12324008204E+01 -0.37057795028E+01 -0.22656628206E-01  0.39053971744E+01  0.51100000000E-03 0. -1.
         12    1    3    3    0    0 -0.36251735257E+01 -0.19852029991E+02 -0.19395263706E+02  0.27989662951E+02  0.00000000000E+00 0. -1.
</event>
<event>
 7    1  0.2312612E-008  0.4614232E+02  0.7816164E-02  0.1320468E+00
        -11   -1    0    0    0    0  0.00000000000E+00  0.00000000000E+00  0.45593999997E+02  0.45594000000E+02  0.51100000000E-03 0. -1.
         11   -1    0    0    0    0 -0.00000000000E+00 -0.00000000000E+00 -0.45593999997E+02  0.45594000000E+02  0.51100000000E-03 0.  1.
    9900012    2    1    2    0    0 -0.20437396351E+01 -0.42464623653E+02 -0.14889334686E+02  0.46142318508E+02  0.10000006808E+02 0.  0.
         12    1    1    2    0    0  0.20437396351E+01  0.42464623653E+02  0.14889334686E+02  0.45045681492E+02  0.00000000000E+00 0. -1.
         11    1    3    3    0    0 -0.21552309754E+01 -0.12989956984E+02 -0.33268565334E+01  0.13581309865E+02  0.51100000000E-03 0. -1.
        -11    1    3    3    0    0  0.24978296807E+01 -0.57573121868E+01 -0.44225860063E+01  0.76775688844E+01  0.51100000000E-03 0.  1.
        -12    1    3    3    0    0 -0.23863383404E+01 -0.23717354483E+02 -0.71398921466E+01  0.24883439758E+02  0.00000000000E+00 0.  1.
</event>
<event>
 7    1  0.2312612E-008  0.4614232E+02  0.7816164E-02  0.1320468E+00
        -11   -1    0    0    0    0  0.00000000000E+00  0.00000000000E+00  0.45593999997E+02  0.45594000000E+02  0.51100000000E-03 0. -1.
         11   -1    0    0    0    0 -0.00000000000E+00 -0.00000000000E+00 -0.45593999997E+02  0.45594000000E+02  0.51100000000E-03 0.  1.
    9900012    2    1    2    0    0 -0.15902247411E+02  0.17066279812E+02 -0.38535361574E+02  0.46142317954E+02  0.10000001762E+02 0.  0.
         12    1    1    2    0    0  0.15902247411E+02 -0.17066279812E+02  0.38535361574E+02  0.45045682046E+02  0.00000000000E+00 0. -1.
         11    1    3    3    0    0  0.18457914918E-01  0.11848720014E+01 -0.42672107333E+01  0.44286962029E+01  0.51100000000E-03 0. -1.
        -11    1    3    3    0    0 -0.10584533197E+02  0.98744465559E+01 -0.28009555177E+02  0.31528910848E+02  0.51100000000E-03 0.  1.
        -12    1    3    3    0    0 -0.53361721290E+01  0.60069612550E+01 -0.62585956632E+01  0.10184710903E+02  0.00000000000E+00 0.  1.
</event>
<event>
 7    1  0.2312612E-008  0.4614232E+02  0.7816164E-02  0.1320468E+00
        -11   -1    0    0    0    0  0.00000000000E+00  0.00000000000E+00  0.45593999997E+02  0.45594000000E+02  0.51100000000E-03 0. -1.
         11   -1    0    0    0    0 -0.00000000000E+00 -0.00000000000E+00 -0.45593999997E+02  0.45594000000E+02  0.51100000000E-03 0.  1.
    9900012    2    1    2    0    0 -0.39552530523E+02 -0.16772791743E+01 -0.21491802077E+02  0.46142317713E+02  0.99999995592E+01 0.  0.
         12    1    1    2    0    0  0.39552530523E+02  0.16772791743E+01  0.21491802077E+02  0.45045682287E+02  0.00000000000E+00 0. -1.
         11    1    3    3    0    0 -0.47641928662E+01 -0.82236780677E+00 -0.58138745562E+01  0.75614125725E+01  0.51100000000E-03 0. -1.
        -11    1    3    3    0    0 -0.30369170190E+02 -0.23969186215E+01 -0.14582418491E+02  0.33773934420E+02  0.51100000000E-03 0.  1.
         12    1    3    3    0    0 -0.44191674666E+01  0.15420072539E+01 -0.10955090305E+01  0.48069707202E+01  0.00000000000E+00 0. -1.
</event>
<event>
 7    1  0.2312612E-008  0.4614232E+02  0.7816164E-02  0.1320468E+00
        -11   -1    0    0    0    0  0.00000000000E+00  0.00000000000E+00  0.45593999997E+02  0.45594000000E+02  0.51100000000E-03 0.  1.
         11   -1    0    0    0    0 -0.00000000000E+00 -0.00000000000E+00 -0.45593999997E+02  0.45594000000E+02  0.51100000000E-03 0. -1.
    9900012    2    1    2    0    0 -0.10752917054E+02 -0.12959968792E+02  0.41779509964E+02  0.46142317976E+02  0.10000001955E+02 0.  0.
         12    1    1    2    0    0  0.10752917054E+02  0.12959968792E+02 -0.41779509964E+02  0.45045682024E+02  0.00000000000E+00 0. -1.
         11    1    3    3    0    0 -0.13810011297E+01 -0.58293720166E+01  0.11040848330E+02  0.12561412115E+02  0.51100000000E-03 0. -1.
        -11    1    3    3    0    0 -0.31022616406E+01 -0.56127916292E+01  0.20498750386E+02  0.21478506112E+02  0.51100000000E-03 0.  1.
         12    1    3    3    0    0 -0.62696542840E+01 -0.15178051459E+01  0.10239911248E+02  0.12102399748E+02  0.00000000000E+00 0. -1.
</event>
<event>
 7    1  0.2312612E-008  0.4614232E+02  0.7816164E-02  0.1320468E+00
        -11   -1    0    0    0    0  0.00000000000E+00  0.00000000000E+00  0.45593999997E+02  0.45594000000E+02  0.51100000000E-03 0.  1.
         11   -1    0    0    0    0 -0.00000000000E+00 -0.00000000000E+00 -0.45593999997E+02  0.45594000000E+02  0.51100000000E-03 0. -1.
    9900012    2    1    2    0    0 -0.23804724107E+02  0.14544806612E+02  0.35368025558E+02  0.46142317399E+02  0.99999966947E+01 0.  0.
         12    1    1    2    0    0  0.23804724107E+02 -0.14544806612E+02 -0.35368025558E+02  0.45045682601E+02  0.00000000000E+00 0. -1.
         11    1    3    3    0    0 -0.57373974924E+00 -0.50291897910E-01  0.32455724844E+01  0.32962778383E+01  0.51100000000E-03 0. -1.
        -11    1    3    3    0    0 -0.16577916309E+02  0.13868240485E+02  0.23448181425E+02  0.31890008086E+02  0.51100000000E-03 0.  1.
        -12    1    3    3    0    0 -0.66530680485E+01  0.72685802464E+00  0.86742716481E+01  0.10956031475E+02  0.00000000000E+00 0.  1.
</event>
<event>
 7    1  0.2312612E-008  0.4614231E+02  0.7816164E-02  0.1320468E+00
        -11   -1    0    0    0    0  0.00000000000E+00  0.00000000000E+00  0.45593999997E+02  0.45594000000E+02  0.51100000000E-03 0. -1.
         11   -1    0    0    0    0 -0.00000000000E+00 -0.00000000000E+00 -0.45593999997E+02  0.45594000000E+02  0.51100000000E-03 0.  1.
    9900012    2    1    2    0    0 -0.10299395919E+02 -0.14518561282E+02 -0.41379319087E+02  0.46142309573E+02  0.99999253295E+01 0.  0.
         12    1    1    2    0    0  0.10299395919E+02  0.14518561282E+02  0.41379319087E+02  0.45045690427E+02  0.00000000000E+00 0. -1.
         11    1    3    3    0    0 -0.19849390142E+01 -0.28446286394E+01 -0.18132073253E+02  0.18460876894E+02  0.51100000000E-03 0. -1.
        -11    1    3    3    0    0 -0.92824188636E+00 -0.27178424506E+01 -0.81210875497E+01  0.86139633060E+01  0.51100000000E-03 0.  1.
        -12    1    3    3    0    0 -0.73862150185E+01 -0.89560901925E+01 -0.15126158284E+02  0.19067469372E+02  0.00000000000E+00 0.  1.
</event>
<event>
 7    1  0.2312612E-008  0.4614232E+02  0.7816164E-02  0.1320468E+00
        -11   -1    0    0    0    0  0.00000000000E+00  0.00000000000E+00  0.45593999997E+02  0.45594000000E+02  0.51100000000E-03 0.  1.
         11   -1    0    0    0    0 -0.00000000000E+00 -0.00000000000E+00 -0.45593999997E+02  0.45594000000E+02  0.51100000000E-03 0. -1.
    9900012    2    1    2    0    0  0.29178916553E+02  0.13185391577E+02  0.31683588726E+02  0.46142317445E+02  0.99999971195E+01 0.  0.
         12    1    1    2    0    0 -0.29178916553E+02 -0.13185391577E+02 -0.31683588726E+02  0.45045682555E+02  0.00000000000E+00 0. -1.
         11    1    3    3    0    0  0.61647504125E+01  0.29404222043E+01  0.66531061795E+01  0.95348860761E+01  0.51100000000E-03 0. -1.
        -11    1    3    3    0    0  0.96714538742E+01  0.12292312022E+01  0.14110313535E+02  0.17150771927E+02  0.51100000000E-03 0.  1.
         12    1    3    3    0    0  0.13342712267E+02  0.90157381705E+01  0.10920169012E+02  0.19456659442E+02  0.00000000000E+00 0. -1.
</event>
<event>
 7    1  0.2312612E-008  0.4614232E+02  0.7816164E-02  0.1320468E+00
        -11   -1    0    0    0    0  0.00000000000E+00  0.00000000000E+00  0.45593999997E+02  0.45594000000E+02  0.51100000000E-03 0.  1.
         11   -1    0    0    0    0 -0.00000000000E+00 -0.00000000000E+00 -0.45593999997E+02  0.45594000000E+02  0.51100000000E-03 0. -1.
    9900012    2    1    2    0    0 -0.72168008978E+01  0.42130849381E+02  0.14213472563E+02  0.46142317775E+02  0.10000000130E+02 0.  0.
         12    1    1    2    0    0  0.72168008978E+01 -0.42130849381E+02 -0.14213472563E+02  0.45045682225E+02  0.00000000000E+00 0. -1.
         11    1    3    3    0    0 -0.43466676900E+01  0.35076462289E+02  0.14557646266E+02  0.38225342271E+02  0.51100000000E-03 0.  1.
        -11    1    3    3    0    0 -0.28787778182E+01  0.54185035649E+01  0.33679753622E+00  0.61449959684E+01  0.51100000000E-03 0. -1.
        -12    1    3    3    0    0  0.86446103671E-02  0.16358835278E+01 -0.68097123942E+00  0.17719795356E+01  0.00000000000E+00 0.  1.
</event>
<event>
 7    1  0.2312612E-008  0.4614232E+02  0.7816164E-02  0.1320468E+00
        -11   -1    0    0    0    0  0.00000000000E+00  0.00000000000E+00  0.45593999997E+02  0.45594000000E+02  0.51100000000E-03 0.  1.
         11   -1    0    0    0    0 -0.00000000000E+00 -0.00000000000E+00 -0.45593999997E+02  0.45594000000E+02  0.51100000000E-03 0. -1.
    9900012    2    1    2    0    0  0.62208221645E+00 -0.29632404549E+00  0.45040411285E+02  0.46142318265E+02  0.10000004596E+02 0.  0.
         12    1    1    2    0    0 -0.62208221645E+00  0.29632404549E+00 -0.45040411285E+02  0.45045681735E+02  0.00000000000E+00 0. -1.
         11    1    3    3    0    0  0.39925344764E+01  0.13753740391E+01  0.11993917941E+02  0.12715583082E+02  0.51100000000E-03 0. -1.
        -11    1    3    3    0    0 -0.27224396627E+01 -0.61287458419E+00  0.11108535132E+02  0.11453682640E+02  0.51100000000E-03 0.  1.
         12    1    3    3    0    0 -0.64801259729E+00 -0.10588235004E+01  0.21937958212E+02  0.21973052543E+02  0.00000000000E+00 0. -1.
</event>
<event>
 7    1  0.2312612E-008  0.4614232E+02  0.7816164E-02  0.1320468E+00
        -11   -1    0    0    0    0  0.00000000000E+00  0.00000000000E+00  0.45593999997E+02  0.45594000000E+02  0.51100000000E-03 0.  1.
         11   -1    0    0    0    0 -0.00000000000E+00 -0.00000000000E+00 -0.45593999997E+02  0.45594000000E+02  0.51100000000E-03 0. -1.
    9900012    2    1    2    0    0  0.38781402817E+02  0.90817943323E+01  0.21038945430E+02  0.46142318547E+02  0.10000007167E+02 0.  0.
         12    1    1    2    0    0 -0.38781402817E+02 -0.90817943323E+01 -0.21038945430E+02  0.45045681453E+02  0.00000000000E+00 0. -1.
         11    1    3    3    0    0  0.22439168141E+02  0.43845047863E+01  0.84457268557E+01  0.24373560501E+02  0.51100000000E-03 0. -1.
        -11    1    3    3    0    0  0.65425601372E+01 -0.62408597283E+00  0.40361976668E+01  0.77126823037E+01  0.51100000000E-03 0.  1.
         12    1    3    3    0    0  0.97996745383E+01  0.53213755188E+01  0.85570209076E+01  0.14056075743E+02  0.00000000000E+00 0. -1.
</event>
<event>
 7    1  0.2312612E-008  0.4614231E+02  0.7816164E-02  0.1320468E+00
        -11   -1    0    0    0    0  0.00000000000E+00  0.00000000000E+00  0.45593999997E+02  0.45594000000E+02  0.51100000000E-03 0. -1.
         11   -1    0    0    0    0 -0.00000000000E+00 -0.00000000000E+00 -0.45593999997E+02  0.45594000000E+02  0.51100000000E-03 0.  1.
    9900012    2    1    2    0    0  0.74230050475E+01  0.35531612367E+01 -0.44287560471E+02  0.46142312402E+02  0.99999511351E+01 0.  0.
         12    1    1    2    0    0 -0.74230050475E+01 -0.35531612367E+01  0.44287560471E+02  0.45045687598E+02  0.00000000000E+00 0. -1.
         11    1    3    3    0    0  0.24358012751E+01  0.32448760232E+01 -0.10887632945E+02  0.11619074820E+02  0.51100000000E-03 0. -1.
        -11    1    3    3    0    0  0.58115343547E+00  0.29994112430E+01 -0.18585451403E+02  0.18834893449E+02  0.51100000000E-03 0.  1.
         12    1    3    3    0    0  0.44060503369E+01 -0.26911260294E+01 -0.14814476123E+02  0.15688344134E+02  0.00000000000E+00 0. -1.
</event>
<event>
 7    1  0.2312612E-008  0.4614232E+02  0.7816164E-02  0.1320468E+00
        -11   -1    0    0    0    0  0.00000000000E+00  0.00000000000E+00  0.45593999997E+02  0.45594000000E+02  0.51100000000E-03 0. -1.
         11   -1    0    0    0    0 -0.00000000000E+00 -0.00000000000E+00 -0.45593999997E+02  0.45594000000E+02  0.51100000000E-03 0.  1.
    9900012    2    1    2    0    0  0.28705252325E+02  0.20760504362E+02  0.27823073326E+02  0.46142318057E+02  0.10000002694E+02 0.  0.
         12    1    1    2    0    0 -0.28705252325E+02 -0.20760504362E+02 -0.27823073326E+02  0.45045681943E+02  0.00000000000E+00 0. -1.
         11    1    3    3    0    0  0.94109407256E+01  0.73583974812E+01  0.57010354717E+01  0.13236828342E+02  0.51100000000E-03 0.  1.
        -11    1    3    3    0    0  0.92897272396E+01  0.31968953300E+01  0.11336213069E+02  0.15000963267E+02  0.51100000000E-03 0. -1.
         12    1    3    3    0    0  0.10004584360E+02  0.10205211551E+02  0.10785824786E+02  0.17904526448E+02  0.00000000000E+00 0. -1.
</event>
<event>
 7    1  0.2312612E-008  0.4614232E+02  0.7816164E-02  0.1320468E+00
        -11   -1    0    0    0    0  0.00000000000E+00  0.00000000000E+00  0.45593999997E+02  0.45594000000E+02  0.51100000000E-03 0.  1.
         11   -1    0    0    0    0 -0.00000000000E+00 -0.00000000000E+00 -0.45593999997E+02  0.45594000000E+02  0.51100000000E-03 0. -1.
    9900012    2    1    2    0    0 -0.23426279439E+02  0.37302505440E+02  0.94258132286E+01  0.46142318348E+02  0.10000005352E+02 0.  0.
         12    1    1    2    0    0  0.23426279439E+02 -0.37302505440E+02 -0.94258132286E+01  0.45045681652E+02  0.00000000000E+00 0. -1.
         11    1    3    3    0    0 -0.13035226118E+02  0.23092548240E+02  0.42448182921E+01  0.26855192920E+02  0.51100000000E-03 0. -1.
        -11    1    3    3    0    0 -0.77101153397E+01  0.13385903300E+02  0.56401820420E+01  0.16445058207E+02  0.51100000000E-03 0.  1.
         12    1    3    3    0    0 -0.26809379813E+01  0.82405389985E+00 -0.45918710552E+00  0.28420672208E+01  0.00000000000E+00 0. -1.
</event>
<event>
 7    1  0.2312612E-008  0.4614232E+02  0.7816164E-02  0.1320468E+00
        -11   -1    0    0    0    0  0.00000000000E+00  0.00000000000E+00  0.45593999997E+02  0.45594000000E+02  0.51100000000E-03 0.  1.
         11   -1    0    0    0    0 -0.00000000000E+00 -0.00000000000E+00 -0.45593999997E+02  0.45594000000E+02  0.51100000000E-03 0. -1.
    9900012    2    1    2    0    0 -0.10526214791E+02 -0.43789663106E+02 -0.88181972557E+00  0.46142318755E+02  0.10000009066E+02 0.  0.
         12    1    1    2    0    0  0.10526214791E+02  0.43789663106E+02  0.88181972557E+00  0.45045681245E+02  0.00000000000E+00 0. -1.
         11    1    3    3    0    0 -0.82783605303E+01 -0.39598576799E+02 -0.24460310075E+01  0.40528528292E+02  0.51100000000E-03 0. -1.
        -11    1    3    3    0    0 -0.71376088232E+00 -0.37011375024E+01  0.92526050249E+00  0.38812344257E+01  0.51100000000E-03 0.  1.
         12    1    3    3    0    0 -0.15340933781E+01 -0.48994880459E+00  0.63895077943E+00  0.17325560373E+01  0.00000000000E+00 0. -1.
</event>
<event>
 7    1  0.2312612E-008  0.4614232E+02  0.7816164E-02  0.1320468E+00
        -11   -1    0    0    0    0  0.00000000000E+00  0.00000000000E+00  0.45593999997E+02  0.45594000000E+02  0.51100000000E-03 0.  1.
         11   -1    0    0    0    0 -0.00000000000E+00 -0.00000000000E+00 -0.45593999997E+02  0.45594000000E+02  0.51100000000E-03 0. -1.
    9900012    2    1    2    0    0  0.10398807578E+02  0.23885380269E+02  0.36748699668E+02  0.46142317444E+02  0.99999971074E+01 0.  0.
         12    1    1    2    0    0 -0.10398807578E+02 -0.23885380269E+02 -0.36748699668E+02  0.45045682556E+02  0.00000000000E+00 0. -1.
         11    1    3    3    0    0 -0.51143285820E+00  0.30185615435E+00 -0.40511667082E+00  0.71888836718E+00  0.51100000000E-03 0. -1.
        -11    1    3    3    0    0  0.45335272815E+01  0.71940745927E+01  0.10918394393E+02  0.13839035922E+02  0.51100000000E-03 0.  1.
         12    1    3    3    0    0  0.63767131551E+01  0.16389449522E+02  0.26235421946E+02  0.31584393155E+02  0.00000000000E+00 0. -1.
</event>
<event>
 7    1  0.2312612E-008  0.4614232E+02  0.7816164E-02  0.1320468E+00
        -11   -1    0    0    0    0  0.00000000000E+00  0.00000000000E+00  0.45593999997E+02  0.45594000000E+02  0.51100000000E-03 0. -1.
         11   -1    0    0    0    0 -0.00000000000E+00 -0.00000000000E+00 -0.45593999997E+02  0.45594000000E+02  0.51100000000E-03 0.  1.
    9900012    2    1    2    0    0  0.35834147833E+02 -0.26422410522E+02 -0.68471644223E+01  0.46142316640E+02  0.99999897797E+01 0.  0.
         12    1    1    2    0    0 -0.35834147833E+02  0.26422410522E+02  0.68471644223E+01  0.45045683360E+02  0.00000000000E+00 0. -1.
         11    1    3    3    0    0  0.29511034964E+01 -0.65188971769E+00 -0.16357867592E+01  0.34365346839E+01  0.51100000000E-03 0. -1.
        -11    1    3    3    0    0  0.11820318711E+02 -0.10356687209E+02  0.14098693077E+01  0.15778740003E+02  0.51100000000E-03 0.  1.
        -12    1    3    3    0    0  0.21062725625E+02 -0.15413833596E+02 -0.66212469708E+01  0.26927041953E+02  0.00000000000E+00 0.  1.
</event>
<event>
 7    1  0.2312612E-008  0.4614232E+02  0.7816164E-02  0.1320468E+00
        -11   -1    0    0    0    0  0.00000000000E+00  0.00000000000E+00  0.45593999997E+02  0.45594000000E+02  0.51100000000E-03 0.  1.
         11   -1    0    0    0    0 -0.00000000000E+00 -0.00000000000E+00 -0.45593999997E+02  0.45594000000E+02  0.51100000000E-03 0. -1.
    9900012    2    1    2    0    0 -0.35572755862E+02 -0.31986434880E+01  0.27449248611E+02  0.46142317308E+02  0.99999958724E+01 0.  0.
         12    1    1    2    0    0  0.35572755862E+02  0.31986434880E+01 -0.27449248611E+02  0.45045682692E+02  0.00000000000E+00 0. -1.
         11    1    3    3    0    0 -0.19053237586E+02 -0.31964421378E+01  0.15857288890E+02  0.24993933585E+02  0.51100000000E-03 0. -1.
        -11    1    3    3    0    0 -0.12239345044E+02  0.96491660115E+00  0.11403496916E+02  0.16756263704E+02  0.51100000000E-03 0.  1.
         12    1    3    3    0    0 -0.42801732330E+01 -0.96711795134E+00  0.18846280526E+00  0.43921200195E+01  0.00000000000E+00 0. -1.
</event>
<event>
 7    1  0.2312612E-008  0.4614232E+02  0.7816164E-02  0.1320468E+00
        -11   -1    0    0    0    0  0.00000000000E+00  0.00000000000E+00  0.45593999997E+02  0.45594000000E+02  0.51100000000E-03 0. -1.
         11   -1    0    0    0    0 -0.00000000000E+00 -0.00000000000E+00 -0.45593999997E+02  0.45594000000E+02  0.51100000000E-03 0.  1.
    9900012    2    1    2    0    0  0.81256890580E+01 -0.42812107711E+02  0.11410966368E+02  0.46142317157E+02  0.99999944903E+01 0.  0.
         12    1    1    2    0    0 -0.81256890580E+01  0.42812107711E+02 -0.11410966368E+02  0.45045682843E+02  0.00000000000E+00 0. -1.
         11    1    3    3    0    0  0.86373806942E+01 -0.28828501778E+02  0.67817661485E+01  0.30849298410E+02  0.51100000000E-03 0.  1.
        -11    1    3    3    0    0  0.40082685684E+00 -0.43164033390E+01  0.33920249740E+01  0.55043467950E+01  0.51100000000E-03 0. -1.
         12    1    3    3    0    0 -0.91251849301E+00 -0.96672025939E+01  0.12371752453E+01  0.97886719518E+01  0.00000000000E+00 0. -1.
</event>
<event>
 7    1  0.2312612E-008  0.4614232E+02  0.7816164E-02  0.1320468E+00
        -11   -1    0    0    0    0  0.00000000000E+00  0.00000000000E+00  0.45593999997E+02  0.45594000000E+02  0.51100000000E-03 0. -1.
         11   -1    0    0    0    0 -0.00000000000E+00 -0.00000000000E+00 -0.45593999997E+02  0.45594000000E+02  0.51100000000E-03 0.  1.
    9900012    2    1    2    0    0  0.14570032754E+02  0.35478341944E+02  0.23624450825E+02  0.46142320093E+02  0.10000021261E+02 0.  0.
         12    1    1    2    0    0 -0.14570032754E+02 -0.35478341944E+02 -0.23624450825E+02  0.45045679907E+02  0.00000000000E+00 0. -1.
         11    1    3    3    0    0  0.19097052668E+00  0.51213667653E+01  0.65375389367E+01  0.83068816590E+01  0.51100000000E-03 0. -1.
        -11    1    3    3    0    0  0.16406718654E+01  0.38774127112E+01  0.96651446970E+00  0.43197550838E+01  0.51100000000E-03 0.  1.
         12    1    3    3    0    0  0.12738390362E+02  0.26479562467E+02  0.16120397419E+02  0.33515683350E+02  0.00000000000E+00 0. -1.
</event>
<event>
 7    1  0.2312612E-008  0.4614232E+02  0.7816164E-02  0.1320468E+00
        -11   -1    0    0    0    0  0.00000000000E+00  0.00000000000E+00  0.45593999997E+02  0.45594000000E+02  0.51100000000E-03 0. -1.
         11   -1    0    0    0    0 -0.00000000000E+00 -0.00000000000E+00 -0.45593999997E+02  0.45594000000E+02  0.51100000000E-03 0.  1.
    9900012    2    1    2    0    0  0.10604526209E+02  0.39445982688E+02 -0.18991365814E+02  0.46142317612E+02  0.99999986415E+01 0.  0.
         12    1    1    2    0    0 -0.10604526209E+02 -0.39445982688E+02  0.18991365814E+02  0.45045682388E+02  0.00000000000E+00 0. -1.
         11    1    3    3    0    0  0.56114284578E+00  0.83428957591E+01 -0.77712701270E+00  0.83977805161E+01  0.51100000000E-03 0. -1.
        -11    1    3    3    0    0 -0.63860677394E-01  0.29274258330E+01 -0.28989093842E+01  0.41203854277E+01  0.51100000000E-03 0.  1.
         12    1    3    3    0    0  0.10107244041E+02  0.28175661096E+02 -0.15315329417E+02  0.33624151668E+02  0.00000000000E+00 0. -1.
</event>
<event>
 7    1  0.2312612E-008  0.4614232E+02  0.7816164E-02  0.1320468E+00
        -11   -1    0    0    0    0  0.00000000000E+00  0.00000000000E+00  0.45593999997E+02  0.45594000000E+02  0.51100000000E-03 0.  1.
         11   -1    0    0    0    0 -0.00000000000E+00 -0.00000000000E+00 -0.45593999997E+02  0.45594000000E+02  0.51100000000E-03 0. -1.
    9900012    2    1    2    0    0 -0.38821091939E+02 -0.22760058985E+02 -0.20039910612E+01  0.46142318248E+02  0.10000004442E+02 0.  0.
         12    1    1    2    0    0  0.38821091939E+02  0.22760058985E+02  0.20039910612E+01  0.45045681752E+02  0.00000000000E+00 0. -1.
         11    1    3    3    0    0 -0.13071529009E+02 -0.55011713308E+01 -0.18246223970E+01  0.14298846240E+02  0.51100000000E-03 0. -1.
        -11    1    3    3    0    0 -0.76198330445E+01 -0.21897311134E+01  0.19750476095E+01  0.81705318857E+01  0.51100000000E-03 0.  1.
         12    1    3    3    0    0 -0.18129729885E+02 -0.15069156540E+02 -0.21544162736E+01  0.23672940122E+02  0.00000000000E+00 0. -1.
</event>
<event>
 7    1  0.2312612E-008  0.4614233E+02  0.7816164E-02  0.1320468E+00
        -11   -1    0    0    0    0  0.00000000000E+00  0.00000000000E+00  0.45593999997E+02  0.45594000000E+02  0.51100000000E-03 0.  1.
         11   -1    0    0    0    0 -0.00000000000E+00 -0.00000000000E+00 -0.45593999997E+02  0.45594000000E+02  0.51100000000E-03 0. -1.
    9900012    2    1    2    0    0  0.36864067336E+02 -0.11996128855E+02  0.22940057715E+02  0.46142325223E+02  0.10000068047E+02 0.  0.
         12    1    1    2    0    0 -0.36864067336E+02  0.11996128855E+02 -0.22940057715E+02  0.45045674777E+02  0.00000000000E+00 0. -1.
         11    1    3    3    0    0  0.25018692255E+02 -0.55261548254E+01  0.14270529781E+02  0.29327825862E+02  0.51100000000E-03 0. -1.
        -11    1    3    3    0    0  0.11327114932E+02 -0.59881086019E+01  0.61776317636E+01  0.14224068046E+02  0.51100000000E-03 0.  1.
         12    1    3    3    0    0  0.51826014949E+00 -0.48186542802E+00  0.24918961710E+01  0.25904313155E+01  0.00000000000E+00 0. -1.
</event>
<event>
 7    1  0.2312612E-008  0.4614232E+02  0.7816164E-02  0.1320468E+00
        -11   -1    0    0    0    0  0.00000000000E+00  0.00000000000E+00  0.45593999997E+02  0.45594000000E+02  0.51100000000E-03 0. -1.
         11   -1    0    0    0    0 -0.00000000000E+00 -0.00000000000E+00 -0.45593999997E+02  0.45594000000E+02  0.51100000000E-03 0.  1.
    9900012    2    1    2    0    0 -0.16211859300E+01 -0.14305682780E+02 -0.42682932273E+02  0.46142317509E+02  0.99999977051E+01 0.  0.
         12    1    1    2    0    0  0.16211859300E+01  0.14305682780E+02  0.42682932273E+02  0.45045682491E+02  0.00000000000E+00 0. -1.
         11    1    3    3    0    0  0.23554875333E+01 -0.53403443257E+01 -0.13075644801E+02  0.14319220868E+02  0.51100000000E-03 0. -1.
        -11    1    3    3    0    0 -0.23873028236E+00 -0.43307538297E+01 -0.20416979510E+02  0.20872601023E+02  0.51100000000E-03 0.  1.
        -12    1    3    3    0    0 -0.37379431809E+01 -0.46345846243E+01 -0.91903079620E+01  0.10950495619E+02  0.00000000000E+00 0.  1.
</event>
<event>
 7    1  0.2312612E-008  0.4614232E+02  0.7816164E-02  0.1320468E+00
        -11   -1    0    0    0    0  0.00000000000E+00  0.00000000000E+00  0.45593999997E+02  0.45594000000E+02  0.51100000000E-03 0.  1.
         11   -1    0    0    0    0 -0.00000000000E+00 -0.00000000000E+00 -0.45593999997E+02  0.45594000000E+02  0.51100000000E-03 0. -1.
    9900012    2    1    2    0    0 -0.10364040643E+02  0.53037128584E+01  0.43515178942E+02  0.46142317556E+02  0.99999981267E+01 0.  0.
         12    1    1    2    0    0  0.10364040643E+02 -0.53037128584E+01 -0.43515178942E+02  0.45045682444E+02  0.00000000000E+00 0. -1.
         11    1    3    3    0    0 -0.62596581421E+01  0.33671447326E+01  0.29736009067E+02  0.30573701431E+02  0.51100000000E-03 0. -1.
        -11    1    3    3    0    0 -0.24684379704E+01  0.20949405295E+01  0.13523023861E+02  0.13905183798E+02  0.51100000000E-03 0.  1.
         12    1    3    3    0    0 -0.16359445305E+01 -0.15837240374E+00  0.25614601344E+00  0.16634323267E+01  0.00000000000E+00 0. -1.
</event>
<event>
 7    1  0.2312612E-008  0.4614232E+02  0.7816164E-02  0.1320468E+00
        -11   -1    0    0    0    0  0.00000000000E+00  0.00000000000E+00  0.45593999997E+02  0.45594000000E+02  0.51100000000E-03 0.  1.
         11   -1    0    0    0    0 -0.00000000000E+00 -0.00000000000E+00 -0.45593999997E+02  0.45594000000E+02  0.51100000000E-03 0. -1.
    9900012    2    1    2    0    0  0.41081208178E+02  0.11948967589E+02  0.14095034043E+02  0.46142317893E+02  0.10000001203E+02 0.  0.
         12    1    1    2    0    0 -0.41081208178E+02 -0.11948967589E+02 -0.14095034043E+02  0.45045682107E+02  0.00000000000E+00 0. -1.
         11    1    3    3    0    0  0.22067886934E+02  0.45519099647E+01  0.10318959864E+02  0.24782906428E+02  0.51100000000E-03 0. -1.
        -11    1    3    3    0    0  0.16818905789E+02  0.50173488773E+01  0.19939920009E+01  0.17664240319E+02  0.51100000000E-03 0.  1.
        -12    1    3    3    0    0  0.21944154551E+01  0.23797087474E+01  0.17820821780E+01  0.36951711464E+01  0.00000000000E+00 0.  1.
</event>
<event>
 7    1  0.2312612E-008  0.4614232E+02  0.7816164E-02  0.1320468E+00
        -11   -1    0    0    0    0  0.00000000000E+00  0.00000000000E+00  0.45593999997E+02  0.45594000000E+02  0.51100000000E-03 0. -1.
         11   -1    0    0    0    0 -0.00000000000E+00 -0.00000000000E+00 -0.45593999997E+02  0.45594000000E+02  0.51100000000E-03 0.  1.
    9900012    2    1    2    0    0  0.16727841576E+02  0.21454239280E+02 -0.35902762740E+02  0.46142318306E+02  0.10000004969E+02 0.  0.
         12    1    1    2    0    0 -0.16727841576E+02 -0.21454239280E+02  0.35902762740E+02  0.45045681694E+02  0.00000000000E+00 0. -1.
         11    1    3    3    0    0  0.58194181654E+01  0.52585816032E+01 -0.17950395892E+02  0.19589155704E+02  0.51100000000E-03 0. -1.
        -11    1    3    3    0    0  0.58121187584E+01  0.83118844511E+01 -0.10113836303E+02  0.14323331757E+02  0.51100000000E-03 0.  1.
         12    1    3    3    0    0  0.50963046525E+01  0.78837732260E+01 -0.78385305449E+01  0.12229830845E+02  0.00000000000E+00 0. -1.
</event>
<event>
 7    1  0.2312612E-008  0.4614232E+02  0.7816164E-02  0.1320468E+00
        -11   -1    0    0    0    0  0.00000000000E+00  0.00000000000E+00  0.45593999997E+02  0.45594000000E+02  0.51100000000E-03 0.  1.
         11   -1    0    0    0    0 -0.00000000000E+00 -0.00000000000E+00 -0.45593999997E+02  0.45594000000E+02  0.51100000000E-03 0. -1.
    9900012    2    1    2    0    0  0.31581649769E+02 -0.10577008635E+01  0.32102858443E+02  0.46142324809E+02  0.10000064264E+02 0.  0.
         12    1    1    2    0    0 -0.31581649769E+02  0.10577008635E+01 -0.32102858443E+02  0.45045675191E+02  0.00000000000E+00 0. -1.
         11    1    3    3    0    0  0.11210646180E+02  0.35307508576E+00  0.72327505466E+01  0.13346008037E+02  0.51100000000E-03 0. -1.
        -11    1    3    3    0    0  0.23419894758E+01 -0.27381445157E+00  0.41762476092E+00  0.23946397977E+01  0.51100000000E-03 0.  1.
        -12    1    3    3    0    0  0.18029014113E+02 -0.11369614976E+01  0.24452483136E+02  0.30401676974E+02  0.00000000000E+00 0.  1.
</event>
<event>
 7    1  0.2312612E-008  0.4614231E+02  0.7816164E-02  0.1320468E+00
        -11   -1    0    0    0    0  0.00000000000E+00  0.00000000000E+00  0.45593999997E+02  0.45594000000E+02  0.51100000000E-03 0. -1.
         11   -1    0    0    0    0 -0.00000000000E+00 -0.00000000000E+00 -0.45593999997E+02  0.45594000000E+02  0.51100000000E-03 0.  1.
    9900012    2    1    2    0    0 -0.31081145951E+02 -0.26716149547E+02 -0.18690200872E+02  0.46142313315E+02  0.99999594589E+01 0.  0.
         12    1    1    2    0    0  0.31081145951E+02  0.26716149547E+02  0.18690200872E+02  0.45045686685E+02  0.00000000000E+00 0. -1.
         11    1    3    3    0    0 -0.16812727622E+02 -0.17959314837E+02 -0.10495388162E+02  0.26746176782E+02  0.51100000000E-03 0. -1.
        -11    1    3    3    0    0 -0.20044448542E+01 -0.20027928848E+01 -0.37632587594E+01  0.47107425385E+01  0.51100000000E-03 0.  1.
         12    1    3    3    0    0 -0.12263973475E+02 -0.67540418253E+01 -0.44315539510E+01  0.14685393995E+02  0.00000000000E+00 0. -1.
</event>
<event>
 7    1  0.2312612E-008  0.4614232E+02  0.7816164E-02  0.1320468E+00
        -11   -1    0    0    0    0  0.00000000000E+00  0.00000000000E+00  0.45593999997E+02  0.45594000000E+02  0.51100000000E-03 0.  1.
         11   -1    0    0    0    0 -0.00000000000E+00 -0.00000000000E+00 -0.45593999997E+02  0.45594000000E+02  0.51100000000E-03 0. -1.
    9900012    2    1    2    0    0 -0.89098679585E+01 -0.31233063052E+02  0.31212553458E+02  0.46142317987E+02  0.10000002058E+02 0.  0.
         12    1    1    2    0    0  0.89098679585E+01  0.31233063052E+02 -0.31212553458E+02  0.45045682013E+02  0.00000000000E+00 0. -1.
         11    1    3    3    0    0  0.12551178609E+01 -0.16465674885E+01  0.22646003042E+01  0.30683741848E+01  0.51100000000E-03 0. -1.
        -11    1    3    3    0    0 -0.30904970689E+01 -0.12863077368E+02  0.16059290411E+02  0.20806507161E+02  0.51100000000E-03 0.  1.
         12    1    3    3    0    0 -0.70744887505E+01 -0.16723418196E+02  0.12888662744E+02  0.22267436641E+02  0.00000000000E+00 0. -1.
</event>
<event>
 7    1  0.2312612E-008  0.4614232E+02  0.7816164E-02  0.1320468E+00
        -11   -1    0    0    0    0  0.00000000000E+00  0.00000000000E+00  0.45593999997E+02  0.45594000000E+02  0.51100000000E-03 0. -1.
         11   -1    0    0    0    0 -0.00000000000E+00 -0.00000000000E+00 -0.45593999997E+02  0.45594000000E+02  0.51100000000E-03 0.  1.
    9900012    2    1    2    0    0  0.34231728039E+02  0.20564032905E+02 -0.20842812657E+02  0.46142317706E+02  0.99999994984E+01 0.  0.
         12    1    1    2    0    0 -0.34231728039E+02 -0.20564032905E+02  0.20842812657E+02  0.45045682294E+02  0.00000000000E+00 0. -1.
         11    1    3    3    0    0  0.14299976744E+02  0.39749984071E+01 -0.82958443268E+01  0.17003263822E+02  0.51100000000E-03 0. -1.
        -11    1    3    3    0    0  0.11071910973E+02  0.82296912242E+01 -0.89259270008E+01  0.16431287330E+02  0.51100000000E-03 0.  1.
        -12    1    3    3    0    0  0.88598403214E+01  0.83593432737E+01 -0.36210413295E+01  0.12707766554E+02  0.00000000000E+00 0.  1.
</event>
<event>
 7    1  0.2312612E-008  0.4614231E+02  0.7816164E-02  0.1320468E+00
        -11   -1    0    0    0    0  0.00000000000E+00  0.00000000000E+00  0.45593999997E+02  0.45594000000E+02  0.51100000000E-03 0.  1.
         11   -1    0    0    0    0 -0.00000000000E+00 -0.00000000000E+00 -0.45593999997E+02  0.45594000000E+02  0.51100000000E-03 0. -1.
    9900012    2    1    2    0    0 -0.77240591613E+00  0.89456579762E+01  0.44141738836E+02  0.46142306366E+02  0.99998960896E+01 0.  0.
         12    1    1    2    0    0  0.77240591613E+00 -0.89456579762E+01 -0.44141738836E+02  0.45045693634E+02  0.00000000000E+00 0. -1.
         11    1    3    3    0    0 -0.49068137915E-01  0.36987380730E+01  0.96186676961E+01  0.10305427673E+02  0.51100000000E-03 0. -1.
        -11    1    3    3    0    0  0.34859321345E+00  0.72681615506E+01  0.24608972761E+02  0.25662214055E+02  0.51100000000E-03 0.  1.
         12    1    3    3    0    0 -0.10719309917E+01 -0.20212416474E+01  0.99140983782E+01  0.10174664638E+02  0.00000000000E+00 0. -1.
</event>
<event>
 7    1  0.2312612E-008  0.4614232E+02  0.7816164E-02  0.1320468E+00
        -11   -1    0    0    0    0  0.00000000000E+00  0.00000000000E+00  0.45593999997E+02  0.45594000000E+02  0.51100000000E-03 0. -1.
         11   -1    0    0    0    0 -0.00000000000E+00 -0.00000000000E+00 -0.45593999997E+02  0.45594000000E+02  0.51100000000E-03 0.  1.
    9900012    2    1    2    0    0 -0.40431994488E+02 -0.16321358776E+02  0.11312843126E+02  0.46142319295E+02  0.10000013990E+02 0.  0.
         12    1    1    2    0    0  0.40431994488E+02  0.16321358776E+02 -0.11312843126E+02  0.45045680705E+02  0.00000000000E+00 0. -1.
         11    1    3    3    0    0 -0.30984726319E+01 -0.18600189198E+01  0.85286674340E+00  0.37131637421E+01  0.51100000000E-03 0. -1.
        -11    1    3    3    0    0 -0.37149116647E+02 -0.12831574364E+02  0.92112283169E+01  0.40367720962E+02  0.51100000000E-03 0.  1.
         12    1    3    3    0    0 -0.18440520865E+00 -0.16297654919E+01  0.12487480658E+01  0.20614345906E+01  0.00000000000E+00 0. -1.
</event>
<event>
 7    1  0.2355657E-008  0.4614232E+02  0.7816164E-02  0.1320468E+00
        -11   -1    0    0    0    0  0.00000000000E+00  0.00000000000E+00  0.45593999997E+02  0.45594000000E+02  0.51100000000E-03 0. -1.
         11   -1    0    0    0    0 -0.00000000000E+00 -0.00000000000E+00 -0.45593999997E+02  0.45594000000E+02  0.51100000000E-03 0.  1.
    9900012    2    1    2    0    0 -0.90888134362E+01 -0.83111701236E+00 -0.44111407146E+02  0.46142317348E+02  0.99999962361E+01 0.  0.
         12    1    1    2    0    0  0.90888134362E+01  0.83111701236E+00  0.44111407146E+02  0.45045682652E+02  0.00000000000E+00 0. -1.
         11    1    3    3    0    0 -0.75565587808E+00  0.24806895268E+01 -0.11875793685E+02  0.12155628830E+02  0.51100000000E-03 0. -1.
        -11    1    3    3    0    0 -0.29340899194E+00  0.13671574082E+01 -0.56576274563E+01  0.58278604059E+01  0.51100000000E-03 0.  1.
        -12    1    3    3    0    0 -0.80397485662E+01 -0.46789639473E+01 -0.26577986004E+02  0.28158828112E+02  0.00000000000E+00 0.  1.
</event>
<event>
 7    1  0.2312612E-008  0.4614232E+02  0.7816164E-02  0.1320468E+00
        -11   -1    0    0    0    0  0.00000000000E+00  0.00000000000E+00  0.45593999997E+02  0.45594000000E+02  0.51100000000E-03 0. -1.
         11   -1    0    0    0    0 -0.00000000000E+00 -0.00000000000E+00 -0.45593999997E+02  0.45594000000E+02  0.51100000000E-03 0.  1.
    9900012    2    1    2    0    0  0.10226859014E+02  0.43230655323E+02 -0.74589178110E+01  0.46142315858E+02  0.99999826454E+01 0.  0.
         12    1    1    2    0    0 -0.10226859014E+02 -0.43230655323E+02  0.74589178110E+01  0.45045684142E+02  0.00000000000E+00 0. -1.
         11    1    3    3    0    0  0.35490446522E+01  0.76783117073E+01 -0.33669864660E+01  0.91043279127E+01  0.51100000000E-03 0. -1.
        -11    1    3    3    0    0  0.24747772096E+01  0.31568829073E+01  0.52819294165E+00  0.40459139848E+01  0.51100000000E-03 0.  1.
        -12    1    3    3    0    0  0.42030371517E+01  0.32395460708E+02 -0.46201242866E+01  0.32992073960E+02  0.00000000000E+00 0.  1.
</event>
<event>
 7    1  0.2312612E-008  0.4614232E+02  0.7816164E-02  0.1320468E+00
        -11   -1    0    0    0    0  0.00000000000E+00  0.00000000000E+00  0.45593999997E+02  0.45594000000E+02  0.51100000000E-03 0.  1.
         11   -1    0    0    0    0 -0.00000000000E+00 -0.00000000000E+00 -0.45593999997E+02  0.45594000000E+02  0.51100000000E-03 0. -1.
    9900012    2    1    2    0    0 -0.16355328072E+02  0.64585442359E+01  0.41471724291E+02  0.46142318013E+02  0.10000002295E+02 0.  0.
         12    1    1    2    0    0  0.16355328072E+02 -0.64585442359E+01 -0.41471724291E+02  0.45045681987E+02  0.00000000000E+00 0. -1.
         11    1    3    3    0    0  0.37287768098E-01  0.24068145051E+00 -0.60373808822E-01  0.25092468229E+00  0.51100000000E-03 0. -1.
        -11    1    3    3    0    0 -0.13472172275E+02  0.10745138735E+01  0.26759626858E+02  0.29978853142E+02  0.51100000000E-03 0.  1.
        -12    1    3    3    0    0 -0.29204435652E+01  0.51433489119E+01  0.14772471242E+02  0.15912540189E+02  0.00000000000E+00 0.  1.
</event>
<event>
 7    1  0.2312612E-008  0.4614232E+02  0.7816164E-02  0.1320468E+00
        -11   -1    0    0    0    0  0.00000000000E+00  0.00000000000E+00  0.45593999997E+02  0.45594000000E+02  0.51100000000E-03 0.  1.
         11   -1    0    0    0    0 -0.00000000000E+00 -0.00000000000E+00 -0.45593999997E+02  0.45594000000E+02  0.51100000000E-03 0. -1.
    9900012    2    1    2    0    0 -0.92133924694E+01  0.10328356408E+01  0.44081290645E+02  0.46142317241E+02  0.99999952616E+01 0.  0.
         12    1    1    2    0    0  0.92133924694E+01 -0.10328356408E+01 -0.44081290645E+02  0.45045682759E+02  0.00000000000E+00 0. -1.
         11    1    3    3    0    0 -0.30184804357E+01 -0.89722140239E+00  0.52889910678E+01  0.61554575104E+01  0.51100000000E-03 0. -1.
        -11    1    3    3    0    0 -0.40001827073E+01  0.44282311028E+01  0.18935843929E+02  0.19853888233E+02  0.51100000000E-03 0.  1.
         12    1    3    3    0    0 -0.21947293264E+01 -0.24981740597E+01  0.19856455648E+02  0.20132971498E+02  0.00000000000E+00 0. -1.
</event>
<event>
 7    1  0.2312612E-008  0.4614232E+02  0.7816164E-02  0.1320468E+00
        -11   -1    0    0    0    0  0.00000000000E+00  0.00000000000E+00  0.45593999997E+02  0.45594000000E+02  0.51100000000E-03 0.  1.
         11   -1    0    0    0    0 -0.00000000000E+00 -0.00000000000E+00 -0.45593999997E+02  0.45594000000E+02  0.51100000000E-03 0. -1.
    9900012    2    1    2    0    0  0.40285725938E+01  0.43186624952E+02  0.12157265292E+02  0.46142322390E+02  0.10000042213E+02 0.  0.
         12    1    1    2    0    0 -0.40285725938E+01 -0.43186624952E+02 -0.12157265292E+02  0.45045677610E+02  0.00000000000E+00 0. -1.
         11    1    3    3    0    0  0.18546224106E+01  0.63208862121E+01  0.28693157219E+01  0.71851374215E+01  0.51100000000E-03 0. -1.
        -11    1    3    3    0    0  0.43072462939E+01  0.33914574994E+02  0.85857022502E+01  0.35248617718E+02  0.51100000000E-03 0.  1.
         12    1    3    3    0    0 -0.21332961107E+01  0.29511637466E+01  0.70224732032E+00  0.37085672508E+01  0.00000000000E+00 0. -1.
</event>
<event>
 7    1  0.2312612E-008  0.4614232E+02  0.7816164E-02  0.1320468E+00
        -11   -1    0    0    0    0  0.00000000000E+00  0.00000000000E+00  0.45593999997E+02  0.45594000000E+02  0.51100000000E-03 0.  1.
         11   -1    0    0    0    0 -0.00000000000E+00 -0.00000000000E+00 -0.45593999997E+02  0.45594000000E+02  0.51100000000E-03 0. -1.
    9900012    2    1    2    0    0  0.31449862223E+02  0.78524207352E+01  0.31278735739E+02  0.46142315916E+02  0.99999831712E+01 0.  0.
         12    1    1    2    0    0 -0.31449862223E+02 -0.78524207352E+01 -0.31278735739E+02  0.45045684084E+02  0.00000000000E+00 0. -1.
         11    1    3    3    0    0  0.37449298747E+01  0.91078640277E+00  0.76052684286E+01  0.85260858411E+01  0.51100000000E-03 0. -1.
        -11    1    3    3    0    0  0.25112554895E+02  0.49256562755E+01  0.18863220907E+02  0.31791879566E+02  0.51100000000E-03 0.  1.
        -12    1    3    3    0    0  0.25923774525E+01  0.20159780569E+01  0.48102464032E+01  0.58243505082E+01  0.00000000000E+00 0.  1.
</event>
<event>
 7    1  0.2312612E-008  0.4614232E+02  0.7816164E-02  0.1320468E+00
        -11   -1    0    0    0    0  0.00000000000E+00  0.00000000000E+00  0.45593999997E+02  0.45594000000E+02  0.51100000000E-03 0.  1.
         11   -1    0    0    0    0 -0.00000000000E+00 -0.00000000000E+00 -0.45593999997E+02  0.45594000000E+02  0.51100000000E-03 0. -1.
    9900012    2    1    2    0    0 -0.35339343421E+02  0.27913905186E+02 -0.10287037875E+01  0.46142317325E+02  0.99999960266E+01 0.  0.
         12    1    1    2    0    0  0.35339343421E+02 -0.27913905186E+02  0.10287037875E+01  0.45045682675E+02  0.00000000000E+00 0. -1.
         11    1    3    3    0    0 -0.14467925456E+02  0.11888003635E+02  0.26187178557E-02  0.18725530821E+02  0.51100000000E-03 0. -1.
        -11    1    3    3    0    0 -0.13608812851E+02  0.10611756229E+02 -0.43029005249E+01  0.17785502823E+02  0.51100000000E-03 0.  1.
         12    1    3    3    0    0 -0.72626051136E+01  0.54141453220E+01  0.32715780195E+01  0.96312836809E+01  0.00000000000E+00 0. -1.
</event>
<event>
 7    1  0.2312612E-008  0.4614232E+02  0.7816164E-02  0.1320468E+00
        -11   -1    0    0    0    0  0.00000000000E+00  0.00000000000E+00  0.45593999997E+02  0.45594000000E+02  0.51100000000E-03 0.  1.
         11   -1    0    0    0    0 -0.00000000000E+00 -0.00000000000E+00 -0.45593999997E+02  0.45594000000E+02  0.51100000000E-03 0. -1.
    9900012    2    1    2    0    0  0.20527497786E+02 -0.14150146890E+02  0.37516778978E+02  0.46142317329E+02  0.99999960642E+01 0.  0.
         12    1    1    2    0    0 -0.20527497786E+02  0.14150146890E+02 -0.37516778978E+02  0.45045682671E+02  0.00000000000E+00 0. -1.
         11    1    3    3    0    0  0.67565509372E+01 -0.10203702261E+01  0.58470462365E+01  0.89933356391E+01  0.51100000000E-03 0. -1.
        -11    1    3    3    0    0  0.56093035407E+01 -0.36118895096E+01  0.13691998925E+02  0.15230918123E+02  0.51100000000E-03 0.  1.
         12    1    3    3    0    0  0.81616433078E+01 -0.95178871541E+01  0.17977733817E+02  0.21918063568E+02  0.00000000000E+00 0. -1.
</event>
<event>
 7    1  0.2312612E-008  0.4614232E+02  0.7816164E-02  0.1320468E+00
        -11   -1    0    0    0    0  0.00000000000E+00  0.00000000000E+00  0.45593999997E+02  0.45594000000E+02  0.51100000000E-03 0.  1.
         11   -1    0    0    0    0 -0.00000000000E+00 -0.00000000000E+00 -0.45593999997E+02  0.45594000000E+02  0.51100000000E-03 0. -1.
    9900012    2    1    2    0    0 -0.42176646465E+02 -0.91992788983E+01  0.12869232886E+02  0.46142318804E+02  0.10000009513E+02 0.  0.
         12    1    1    2    0    0  0.42176646465E+02  0.91992788983E+01 -0.12869232886E+02  0.45045681196E+02  0.00000000000E+00 0. -1.
         11    1    3    3    0    0 -0.16194004807E+02 -0.16169177304E+01  0.65219870953E+01  0.17532727414E+02  0.51100000000E-03 0. -1.
        -11    1    3    3    0    0 -0.21115742999E+02 -0.37350825104E+01  0.64897364601E+01  0.22404064885E+02  0.51100000000E-03 0.  1.
         12    1    3    3    0    0 -0.48668986589E+01 -0.38472786575E+01 -0.14249066928E+00  0.62055265059E+01  0.00000000000E+00 0. -1.
</event>
<event>
 7    1  0.2312612E-008  0.4614232E+02  0.7816164E-02  0.1320468E+00
        -11   -1    0    0    0    0  0.00000000000E+00  0.00000000000E+00  0.45593999997E+02  0.45594000000E+02  0.51100000000E-03 0.  1.
         11   -1    0    0    0    0 -0.00000000000E+00 -0.00000000000E+00 -0.45593999997E+02  0.45594000000E+02  0.51100000000E-03 0. -1.
    9900012    2    1    2    0    0  0.22272841984E+02 -0.20565276022E+02  0.33318214286E+02  0.46142317953E+02  0.10000001745E+02 0.  0.
         12    1    1    2    0    0 -0.22272841984E+02  0.20565276022E+02 -0.33318214286E+02  0.45045682047E+02  0.00000000000E+00 0. -1.
         11    1    3    3    0    0  0.11724768535E+02 -0.64191181980E+01  0.17409670808E+02  0.21949303259E+02  0.51100000000E-03 0. -1.
        -11    1    3    3    0    0  0.68360425419E+01 -0.68825819003E+01  0.11027841198E+02  0.14687228908E+02  0.51100000000E-03 0.  1.
         12    1    3    3    0    0  0.37120309076E+01 -0.72635759238E+01  0.48807022797E+01  0.95057857857E+01  0.00000000000E+00 0. -1.
</event>
<event>
 7    1  0.2312612E-008  0.4614232E+02  0.7816164E-02  0.1320468E+00
        -11   -1    0    0    0    0  0.00000000000E+00  0.00000000000E+00  0.45593999997E+02  0.45594000000E+02  0.51100000000E-03 0.  1.
         11   -1    0    0    0    0 -0.00000000000E+00 -0.00000000000E+00 -0.45593999997E+02  0.45594000000E+02  0.51100000000E-03 0. -1.
    9900012    2    1    2    0    0  0.34585573886E+02  0.17882929068E+02 -0.22652869508E+02  0.46142316855E+02  0.99999917376E+01 0.  0.
         12    1    1    2    0    0 -0.34585573886E+02 -0.17882929068E+02  0.22652869508E+02  0.45045683145E+02  0.00000000000E+00 0. -1.
         11    1    3    3    0    0  0.84236339411E+01  0.61212557355E+01 -0.25734825268E+01  0.10726145306E+02  0.51100000000E-03 0. -1.
        -11    1    3    3    0    0  0.13585563766E+02  0.90051684201E+01 -0.11224293950E+02  0.19790032240E+02  0.51100000000E-03 0.  1.
         12    1    3    3    0    0  0.12576376178E+02  0.27565049125E+01 -0.88550930306E+01  0.15626139309E+02  0.00000000000E+00 0. -1.
</event>
<event>
 7    1  0.2312612E-008  0.4614233E+02  0.7816164E-02  0.1320468E+00
        -11   -1    0    0    0    0  0.00000000000E+00  0.00000000000E+00  0.45593999997E+02  0.45594000000E+02  0.51100000000E-03 0.  1.
         11   -1    0    0    0    0 -0.00000000000E+00 -0.00000000000E+00 -0.45593999997E+02  0.45594000000E+02  0.51100000000E-03 0. -1.
    9900012    2    1    2    0    0  0.27898391837E+02 -0.21410093173E+02  0.28149606282E+02  0.46142326616E+02  0.10000080746E+02 0.  0.
         12    1    1    2    0    0 -0.27898391837E+02  0.21410093173E+02 -0.28149606282E+02  0.45045673384E+02  0.00000000000E+00 0. -1.
         11    1    3    3    0    0  0.20677990319E+01 -0.30110528720E+01  0.19168615590E+01  0.41251170567E+01  0.51100000000E-03 0. -1.
        -11    1    3    3    0    0  0.73533540528E+01 -0.99002536075E+01  0.11888144626E+02  0.17129355511E+02  0.51100000000E-03 0.  1.
         12    1    3    3    0    0  0.18477238752E+02 -0.84987866935E+01  0.14344600097E+02  0.24887854048E+02  0.00000000000E+00 0. -1.
</event>
<event>
 7    1  0.2312612E-008  0.4614232E+02  0.7816164E-02  0.1320468E+00
        -11   -1    0    0    0    0  0.00000000000E+00  0.00000000000E+00  0.45593999997E+02  0.45594000000E+02  0.51100000000E-03 0.  1.
         11   -1    0    0    0    0 -0.00000000000E+00 -0.00000000000E+00 -0.45593999997E+02  0.45594000000E+02  0.51100000000E-03 0. -1.
    9900012    2    1    2    0    0 -0.35365590636E+02 -0.20403978223E+02  0.19028035201E+02  0.46142318165E+02  0.10000003683E+02 0.  0.
         12    1    1    2    0    0  0.35365590636E+02  0.20403978223E+02 -0.19028035201E+02  0.45045681835E+02  0.00000000000E+00 0. -1.
         11    1    3    3    0    0 -0.21770030837E+02 -0.13571143481E+02  0.10500310043E+02  0.27719428012E+02  0.51100000000E-03 0.  1.
        -11    1    3    3    0    0 -0.35310381801E+01 -0.42270461550E+01  0.10260079825E+01  0.56025746284E+01  0.51100000000E-03 0. -1.
        -12    1    3    3    0    0 -0.10064521619E+02 -0.26057885867E+01  0.75017171754E+01  0.12820315525E+02  0.00000000000E+00 0.  1.
</event>
<event>
 7    1  0.2312612E-008  0.4614232E+02  0.7816164E-02  0.1320468E+00
        -11   -1    0    0    0    0  0.00000000000E+00  0.00000000000E+00  0.45593999997E+02  0.45594000000E+02  0.51100000000E-03 0. -1.
         11   -1    0    0    0    0 -0.00000000000E+00 -0.00000000000E+00 -0.45593999997E+02  0.45594000000E+02  0.51100000000E-03 0.  1.
    9900012    2    1    2    0    0  0.18097224972E+02  0.37317901942E+02 -0.17577765232E+02  0.46142321100E+02  0.10000030446E+02 0.  0.
         12    1    1    2    0    0 -0.18097224972E+02 -0.37317901942E+02  0.17577765232E+02  0.45045678900E+02  0.00000000000E+00 0. -1.
         11    1    3    3    0    0  0.10265347222E+02  0.21627994745E+02 -0.58568014685E+01  0.24646493341E+02  0.51100000000E-03 0. -1.
        -11    1    3    3    0    0  0.27690800820E+01  0.92456358212E+01 -0.48504200587E+01  0.10801674002E+02  0.51100000000E-03 0.  1.
         12    1    3    3    0    0  0.50627976679E+01  0.64442713751E+01 -0.68705437047E+01  0.10694153757E+02  0.00000000000E+00 0. -1.
</event>
<event>
 7    1  0.2312612E-008  0.4614232E+02  0.7816164E-02  0.1320468E+00
        -11   -1    0    0    0    0  0.00000000000E+00  0.00000000000E+00  0.45593999997E+02  0.45594000000E+02  0.51100000000E-03 0.  1.
         11   -1    0    0    0    0 -0.00000000000E+00 -0.00000000000E+00 -0.45593999997E+02  0.45594000000E+02  0.51100000000E-03 0. -1.
    9900012    2    1    2    0    0  0.35304689226E+02  0.26177538656E+02  0.98706046955E+01  0.46142318204E+02  0.10000004037E+02 0.  0.
         12    1    1    2    0    0 -0.35304689226E+02 -0.26177538656E+02 -0.98706046955E+01  0.45045681796E+02  0.00000000000E+00 0. -1.
         11    1    3    3    0    0  0.25456658446E+01  0.11006456037E+01  0.19206236993E+01  0.33735190815E+01  0.51100000000E-03 0. -1.
        -11    1    3    3    0    0  0.24499073984E+02  0.14059754639E+02  0.57091969832E+01  0.28817984958E+02  0.51100000000E-03 0.  1.
        -12    1    3    3    0    0  0.82599493972E+01  0.11017138413E+02  0.22407840130E+01  0.13950814164E+02  0.00000000000E+00 0.  1.
</event>
<event>
 7    1  0.2312612E-008  0.4614232E+02  0.7816164E-02  0.1320468E+00
        -11   -1    0    0    0    0  0.00000000000E+00  0.00000000000E+00  0.45593999997E+02  0.45594000000E+02  0.51100000000E-03 0. -1.
         11   -1    0    0    0    0 -0.00000000000E+00 -0.00000000000E+00 -0.45593999997E+02  0.45594000000E+02  0.51100000000E-03 0.  1.
    9900012    2    1    2    0    0 -0.16889944091E+02  0.25456829480E+02 -0.33102765763E+02  0.46142317857E+02  0.10000000870E+02 0.  0.
         12    1    1    2    0    0  0.16889944091E+02 -0.25456829480E+02  0.33102765763E+02  0.45045682143E+02  0.00000000000E+00 0. -1.
         11    1    3    3    0    0 -0.89860788206E+01  0.17198079973E+02 -0.16208952451E+02  0.25283467072E+02  0.51100000000E-03 0.  1.
        -11    1    3    3    0    0 -0.33634098894E+01  0.12385468072E+01 -0.31491424357E+01  0.47711238319E+01  0.51100000000E-03 0. -1.
         12    1    3    3    0    0 -0.45404553813E+01  0.70202026997E+01 -0.13744670876E+02  0.16087726953E+02  0.00000000000E+00 0. -1.
</event>
<event>
 7    1  0.2312612E-008  0.4614232E+02  0.7816164E-02  0.1320468E+00
        -11   -1    0    0    0    0  0.00000000000E+00  0.00000000000E+00  0.45593999997E+02  0.45594000000E+02  0.51100000000E-03 0.  1.
         11   -1    0    0    0    0 -0.00000000000E+00 -0.00000000000E+00 -0.45593999997E+02  0.45594000000E+02  0.51100000000E-03 0. -1.
    9900012    2    1    2    0    0  0.44329059972E+02 -0.75042592246E+01  0.27810092731E+01  0.46142317886E+02  0.10000001142E+02 0.  0.
         12    1    1    2    0    0 -0.44329059972E+02  0.75042592246E+01 -0.27810092731E+01  0.45045682114E+02  0.00000000000E+00 0. -1.
         11    1    3    3    0    0  0.67928605062E+01 -0.31486719794E+01 -0.15932788031E+01  0.76547780305E+01  0.51100000000E-03 0. -1.
        -11    1    3    3    0    0  0.19500570893E+02 -0.32887100352E+01 -0.47242810235E+00  0.19781584047E+02  0.51100000000E-03 0.  1.
         12    1    3    3    0    0  0.18035628573E+02 -0.10668772101E+01  0.48467161786E+01  0.18705955809E+02  0.00000000000E+00 0. -1.
</event>
<event>
 7    1  0.2312612E-008  0.4614232E+02  0.7816164E-02  0.1320468E+00
        -11   -1    0    0    0    0  0.00000000000E+00  0.00000000000E+00  0.45593999997E+02  0.45594000000E+02  0.51100000000E-03 0.  1.
         11   -1    0    0    0    0 -0.00000000000E+00 -0.00000000000E+00 -0.45593999997E+02  0.45594000000E+02  0.51100000000E-03 0. -1.
    9900012    2    1    2    0    0 -0.16783551962E+02  0.23169478288E+01  0.41737965194E+02  0.46142316497E+02  0.99999884757E+01 0.  0.
         12    1    1    2    0    0  0.16783551962E+02 -0.23169478288E+01 -0.41737965194E+02  0.45045683503E+02  0.00000000000E+00 0. -1.
         11    1    3    3    0    0 -0.99400912250E+00  0.52338180008E+00  0.11681887652E+02  0.11735777861E+02  0.51100000000E-03 0. -1.
        -11    1    3    3    0    0 -0.54779747560E+00 -0.61350649024E+00  0.43314824226E+01  0.44088788287E+01  0.51100000000E-03 0.  1.
        -12    1    3    3    0    0 -0.15241745363E+02  0.24070725190E+01  0.25724595120E+02  0.29997659807E+02  0.00000000000E+00 0.  1.
</event>
<event>
 7    1  0.2312612E-008  0.4614232E+02  0.7816164E-02  0.1320468E+00
        -11   -1    0    0    0    0  0.00000000000E+00  0.00000000000E+00  0.45593999997E+02  0.45594000000E+02  0.51100000000E-03 0.  1.
         11   -1    0    0    0    0 -0.00000000000E+00 -0.00000000000E+00 -0.45593999997E+02  0.45594000000E+02  0.51100000000E-03 0. -1.
    9900012    2    1    2    0    0 -0.38566988702E+02  0.23224991950E+02  0.15167605400E+01  0.46142318396E+02  0.10000005792E+02 0.  0.
         12    1    1    2    0    0  0.38566988702E+02 -0.23224991950E+02 -0.15167605400E+01  0.45045681604E+02  0.00000000000E+00 0. -1.
         11    1    3    3    0    0 -0.73888278856E+01  0.66792364456E+01 -0.22726256373E+01  0.10216251982E+02  0.51100000000E-03 0. -1.
        -11    1    3    3    0    0 -0.81484627139E+01  0.71886893369E+01  0.12995921424E+01  0.10943657477E+02  0.51100000000E-03 0.  1.
        -12    1    3    3    0    0 -0.23029698102E+02  0.93570661680E+01  0.24897940348E+01  0.24982408937E+02  0.00000000000E+00 0.  1.
</event>
<event>
 7    1  0.2312612E-008  0.4614232E+02  0.7816164E-02  0.1320468E+00
        -11   -1    0    0    0    0  0.00000000000E+00  0.00000000000E+00  0.45593999997E+02  0.45594000000E+02  0.51100000000E-03 0. -1.
         11   -1    0    0    0    0 -0.00000000000E+00 -0.00000000000E+00 -0.45593999997E+02  0.45594000000E+02  0.51100000000E-03 0.  1.
    9900012    2    1    2    0    0  0.32417250868E+02  0.30596203987E+02 -0.64890479440E+01  0.46142316572E+02  0.99999891586E+01 0.  0.
         12    1    1    2    0    0 -0.32417250868E+02 -0.30596203987E+02  0.64890479440E+01  0.45045683428E+02  0.00000000000E+00 0. -1.
         11    1    3    3    0    0  0.66618318617E+01  0.35111237825E+01 -0.18858682835E+01  0.77630208948E+01  0.51100000000E-03 0. -1.
        -11    1    3    3    0    0  0.24622143448E+02  0.24899868567E+02 -0.60311778400E+01  0.35533484336E+02  0.51100000000E-03 0.  1.
         12    1    3    3    0    0  0.11332755580E+01  0.21852116377E+01  0.14279981795E+01  0.28458113417E+01  0.00000000000E+00 0. -1.
</event>
<event>
 7    1  0.2312612E-008  0.4614232E+02  0.7816164E-02  0.1320468E+00
        -11   -1    0    0    0    0  0.00000000000E+00  0.00000000000E+00  0.45593999997E+02  0.45594000000E+02  0.51100000000E-03 0.  1.
         11   -1    0    0    0    0 -0.00000000000E+00 -0.00000000000E+00 -0.45593999997E+02  0.45594000000E+02  0.51100000000E-03 0. -1.
    9900012    2    1    2    0    0 -0.10136761224E+02 -0.17100921156E+01  0.43856986228E+02  0.46142316698E+02  0.99999903035E+01 0.  0.
         12    1    1    2    0    0  0.10136761224E+02  0.17100921156E+01 -0.43856986228E+02  0.45045683302E+02  0.00000000000E+00 0. -1.
         11    1    3    3    0    0 -0.15793659511E+01  0.12215937814E-01  0.12497879806E+02  0.12597283277E+02  0.51100000000E-03 0. -1.
        -11    1    3    3    0    0 -0.25362417787E+01 -0.43846846564E+01  0.10253274659E+02  0.11436241664E+02  0.51100000000E-03 0.  1.
        -12    1    3    3    0    0 -0.60211534947E+01  0.26623766030E+01  0.21105831762E+02  0.22108791757E+02  0.00000000000E+00 0.  1.
</event>
<event>
 7    1  0.2312612E-008  0.4614232E+02  0.7816164E-02  0.1320468E+00
        -11   -1    0    0    0    0  0.00000000000E+00  0.00000000000E+00  0.45593999997E+02  0.45594000000E+02  0.51100000000E-03 0. -1.
         11   -1    0    0    0    0 -0.00000000000E+00 -0.00000000000E+00 -0.45593999997E+02  0.45594000000E+02  0.51100000000E-03 0.  1.
    9900012    2    1    2    0    0  0.12412266237E+02  0.26107234604E+02  0.34546510792E+02  0.46142318079E+02  0.10000002900E+02 0.  0.
         12    1    1    2    0    0 -0.12412266237E+02 -0.26107234604E+02 -0.34546510792E+02  0.45045681921E+02  0.00000000000E+00 0. -1.
         11    1    3    3    0    0  0.44369260824E+01  0.17945442851E+02  0.19861702623E+02  0.27133235405E+02  0.51100000000E-03 0. -1.
        -11    1    3    3    0    0  0.58499166787E+01  0.71856114918E+01  0.13535234836E+02  0.16402960708E+02  0.51100000000E-03 0.  1.
         12    1    3    3    0    0  0.21254234763E+01  0.97618026121E+00  0.11495733326E+01  0.26061219662E+01  0.00000000000E+00 0. -1.
</event>
<event>
 7    1  0.2312612E-008  0.4614232E+02  0.7816164E-02  0.1320468E+00
        -11   -1    0    0    0    0  0.00000000000E+00  0.00000000000E+00  0.45593999997E+02  0.45594000000E+02  0.51100000000E-03 0.  1.
         11   -1    0    0    0    0 -0.00000000000E+00 -0.00000000000E+00 -0.45593999997E+02  0.45594000000E+02  0.51100000000E-03 0. -1.
    9900012    2    1    2    0    0  0.42731938045E+01 -0.44790315907E+02  0.21634849737E+01  0.46142320390E+02  0.10000023971E+02 0.  0.
         12    1    1    2    0    0 -0.42731938045E+01  0.44790315907E+02 -0.21634849737E+01  0.45045679610E+02  0.00000000000E+00 0. -1.
         11    1    3    3    0    0  0.84777483978E+00 -0.26994556308E+00  0.33367552955E+00  0.95022755493E+00  0.51100000000E-03 0. -1.
        -11    1    3    3    0    0 -0.19809196436E+00  0.11812171971E+00 -0.27306348752E+00  0.35743124703E+00  0.51100000000E-03 0.  1.
        -12    1    3    3    0    0  0.36235109291E+01 -0.44638492063E+02  0.21028729316E+01  0.44834661588E+02  0.00000000000E+00 0.  1.
</event>
<event>
 7    1  0.2312612E-008  0.4614232E+02  0.7816164E-02  0.1320468E+00
        -11   -1    0    0    0    0  0.00000000000E+00  0.00000000000E+00  0.45593999997E+02  0.45594000000E+02  0.51100000000E-03 0.  1.
         11   -1    0    0    0    0 -0.00000000000E+00 -0.00000000000E+00 -0.45593999997E+02  0.45594000000E+02  0.51100000000E-03 0. -1.
    9900012    2    1    2    0    0  0.18123763930E+02  0.33640532268E+02  0.23852823804E+02  0.46142318368E+02  0.10000005533E+02 0.  0.
         12    1    1    2    0    0 -0.18123763930E+02 -0.33640532268E+02 -0.23852823804E+02  0.45045681632E+02  0.00000000000E+00 0. -1.
         11    1    3    3    0    0  0.23413292829E+01  0.10887721621E+02  0.62988273017E+01  0.12794511735E+02  0.51100000000E-03 0. -1.
        -11    1    3    3    0    0  0.16865884033E+01  0.12069794906E+00  0.10529378390E+01  0.19919404587E+01  0.51100000000E-03 0.  1.
        -12    1    3    3    0    0  0.14095846244E+02  0.22632112698E+02  0.16501058663E+02  0.31355866174E+02  0.00000000000E+00 0.  1.
</event>
<event>
 7    1  0.2312612E-008  0.4614232E+02  0.7816164E-02  0.1320468E+00
        -11   -1    0    0    0    0  0.00000000000E+00  0.00000000000E+00  0.45593999997E+02  0.45594000000E+02  0.51100000000E-03 0. -1.
         11   -1    0    0    0    0 -0.00000000000E+00 -0.00000000000E+00 -0.45593999997E+02  0.45594000000E+02  0.51100000000E-03 0.  1.
    9900012    2    1    2    0    0 -0.25708126044E+02 -0.11774834972E+02 -0.35065064409E+02  0.46142320681E+02  0.10000026622E+02 0.  0.
         12    1    1    2    0    0  0.25708126044E+02  0.11774834972E+02  0.35065064409E+02  0.45045679319E+02  0.00000000000E+00 0. -1.
         11    1    3    3    0    0 -0.22072998944E+01 -0.20389288521E+01 -0.22918206953E+01  0.37791329758E+01  0.51100000000E-03 0. -1.
        -11    1    3    3    0    0 -0.13490908880E+02 -0.85972189225E+01 -0.14981679204E+02  0.21917287872E+02  0.51100000000E-03 0.  1.
        -12    1    3    3    0    0 -0.10009917269E+02 -0.11386871977E+01 -0.17791564510E+02  0.20445899833E+02  0.00000000000E+00 0.  1.
</event>
<event>
 7    1  0.2312612E-008  0.4614232E+02  0.7816164E-02  0.1320468E+00
        -11   -1    0    0    0    0  0.00000000000E+00  0.00000000000E+00  0.45593999997E+02  0.45594000000E+02  0.51100000000E-03 0.  1.
         11   -1    0    0    0    0 -0.00000000000E+00 -0.00000000000E+00 -0.45593999997E+02  0.45594000000E+02  0.51100000000E-03 0. -1.
    9900012    2    1    2    0    0  0.37824342593E+02  0.16041805489E+02  0.18468705397E+02  0.46142317687E+02  0.99999993269E+01 0.  0.
         12    1    1    2    0    0 -0.37824342593E+02 -0.16041805489E+02 -0.18468705397E+02  0.45045682313E+02  0.00000000000E+00 0. -1.
         11    1    3    3    0    0  0.11238507475E+02  0.41224682140E+01  0.20520349848E+01  0.12145354761E+02  0.51100000000E-03 0. -1.
        -11    1    3    3    0    0  0.18649977414E+02  0.78932310773E+01  0.80822628774E+01  0.21804763880E+02  0.51100000000E-03 0.  1.
         12    1    3    3    0    0  0.79358577047E+01  0.40261061980E+01  0.83344075346E+01  0.12192199046E+02  0.00000000000E+00 0. -1.
</event>
<event>
 7    1  0.2312612E-008  0.4614232E+02  0.7816164E-02  0.1320468E+00
        -11   -1    0    0    0    0  0.00000000000E+00  0.00000000000E+00  0.45593999997E+02  0.45594000000E+02  0.51100000000E-03 0.  1.
         11   -1    0    0    0    0 -0.00000000000E+00 -0.00000000000E+00 -0.45593999997E+02  0.45594000000E+02  0.51100000000E-03 0. -1.
    9900012    2    1    2    0    0 -0.12185787386E+02 -0.16634197433E+02  0.40049011910E+02  0.46142319924E+02  0.10000019727E+02 0.  0.
         12    1    1    2    0    0  0.12185787386E+02  0.16634197433E+02 -0.40049011910E+02  0.45045680076E+02  0.00000000000E+00 0. -1.
         11    1    3    3    0    0 -0.35986278112E+01 -0.47846086755E+01  0.52094811072E+01  0.79360756025E+01  0.51100000000E-03 0. -1.
        -11    1    3    3    0    0 -0.47076147679E+01 -0.92628554709E+01  0.18542395770E+02  0.21255177473E+02  0.51100000000E-03 0.  1.
        -12    1    3    3    0    0 -0.38795448073E+01 -0.25867332868E+01  0.16297135034E+02  0.16951066849E+02  0.00000000000E+00 0.  1.
</event>
<event>
 7    1  0.2312612E-008  0.4614233E+02  0.7816164E-02  0.1320468E+00
        -11   -1    0    0    0    0  0.00000000000E+00  0.00000000000E+00  0.45593999997E+02  0.45594000000E+02  0.51100000000E-03 0.  1.
         11   -1    0    0    0    0 -0.00000000000E+00 -0.00000000000E+00 -0.45593999997E+02  0.45594000000E+02  0.51100000000E-03 0. -1.
    9900012    2    1    2    0    0  0.29386960997E+01 -0.21667089821E+02  0.39382909136E+02  0.46142331528E+02  0.10000125535E+02 0.  0.
         12    1    1    2    0    0 -0.29386960997E+01  0.21667089821E+02 -0.39382909136E+02  0.45045668472E+02  0.00000000000E+00 0. -1.
         11    1    3    3    0    0  0.98259717537E+00 -0.18331483960E+02  0.32757330027E+02  0.37550652086E+02  0.51100000000E-03 0.  1.
        -11    1    3    3    0    0  0.21382196588E+01 -0.34199574214E+01  0.31692967683E+01  0.51295744794E+01  0.51100000000E-03 0. -1.
         12    1    3    3    0    0 -0.18212073446E+00  0.84351559622E-01  0.34562823410E+01  0.34621049621E+01  0.00000000000E+00 0. -1.
</event>
<event>
 7    1  0.2312612E-008  0.4614232E+02  0.7816164E-02  0.1320468E+00
        -11   -1    0    0    0    0  0.00000000000E+00  0.00000000000E+00  0.45593999997E+02  0.45594000000E+02  0.51100000000E-03 0.  1.
         11   -1    0    0    0    0 -0.00000000000E+00 -0.00000000000E+00 -0.45593999997E+02  0.45594000000E+02  0.51100000000E-03 0. -1.
    9900012    2    1    2    0    0 -0.37236549154E+01 -0.41744027283E+02 -0.16513147711E+02  0.46142317997E+02  0.10000002152E+02 0.  0.
         12    1    1    2    0    0  0.37236549154E+01  0.41744027283E+02  0.16513147711E+02  0.45045682003E+02  0.00000000000E+00 0. -1.
         11    1    3    3    0    0 -0.27981192731E+01 -0.28381869691E+02 -0.12035816326E+02  0.30955142925E+02  0.51100000000E-03 0. -1.
        -11    1    3    3    0    0  0.63893701376E+00 -0.12172905190E+02 -0.49655942177E+01  0.13162256170E+02  0.51100000000E-03 0.  1.
         12    1    3    3    0    0 -0.15644726560E+01 -0.11892524025E+01  0.48826283240E+00  0.20249189025E+01  0.00000000000E+00 0. -1.
</event>
<event>
 7    1  0.2312612E-008  0.4614232E+02  0.7816164E-02  0.1320468E+00
        -11   -1    0    0    0    0  0.00000000000E+00  0.00000000000E+00  0.45593999997E+02  0.45594000000E+02  0.51100000000E-03 0. -1.
         11   -1    0    0    0    0 -0.00000000000E+00 -0.00000000000E+00 -0.45593999997E+02  0.45594000000E+02  0.51100000000E-03 0.  1.
    9900012    2    1    2    0    0 -0.24490161471E+02 -0.17265754563E+02 -0.33633900207E+02  0.46142317270E+02  0.99999955204E+01 0.  0.
         12    1    1    2    0    0  0.24490161471E+02  0.17265754563E+02  0.33633900207E+02  0.45045682730E+02  0.00000000000E+00 0. -1.
         11    1    3    3    0    0 -0.55267370237E+00  0.19876680036E+00 -0.18913724873E+01  0.19804662606E+01  0.51100000000E-03 0. -1.
        -11    1    3    3    0    0 -0.15735345137E+02 -0.13575208704E+02 -0.26507811948E+02  0.33683103664E+02  0.51100000000E-03 0.  1.
         12    1    3    3    0    0 -0.82021426319E+01 -0.38893126592E+01 -0.52347157721E+01  0.10478747345E+02  0.00000000000E+00 0. -1.
</event>
<event>
 7    1  0.2312612E-008  0.4614232E+02  0.7816164E-02  0.1320468E+00
        -11   -1    0    0    0    0  0.00000000000E+00  0.00000000000E+00  0.45593999997E+02  0.45594000000E+02  0.51100000000E-03 0.  1.
         11   -1    0    0    0    0 -0.00000000000E+00 -0.00000000000E+00 -0.45593999997E+02  0.45594000000E+02  0.51100000000E-03 0. -1.
    9900012    2    1    2    0    0 -0.34377590043E+02 -0.96822344352E+00  0.29092216939E+02  0.46142320515E+02  0.10000025116E+02 0.  0.
         12    1    1    2    0    0  0.34377590043E+02  0.96822344352E+00 -0.29092216939E+02  0.45045679485E+02  0.00000000000E+00 0. -1.
         11    1    3    3    0    0 -0.15997683384E+02 -0.25278594257E+00  0.75044046438E+01  0.17672177673E+02  0.51100000000E-03 0. -1.
        -11    1    3    3    0    0 -0.57416402851E+01 -0.10904101778E+01  0.56814388727E+01  0.81507162535E+01  0.51100000000E-03 0.  1.
        -12    1    3    3    0    0 -0.12638266374E+02  0.37497267681E+00  0.15906373423E+02  0.20319426589E+02  0.00000000000E+00 0.  1.
</event>
<event>
 7    1  0.2312612E-008  0.4614232E+02  0.7816164E-02  0.1320468E+00
        -11   -1    0    0    0    0  0.00000000000E+00  0.00000000000E+00  0.45593999997E+02  0.45594000000E+02  0.51100000000E-03 0. -1.
         11   -1    0    0    0    0 -0.00000000000E+00 -0.00000000000E+00 -0.45593999997E+02  0.45594000000E+02  0.51100000000E-03 0.  1.
    9900012    2    1    2    0    0 -0.18276382189E+02 -0.13927766648E+02 -0.38744088395E+02  0.46142320792E+02  0.10000027641E+02 0.  0.
         12    1    1    2    0    0  0.18276382189E+02  0.13927766648E+02  0.38744088395E+02  0.45045679208E+02  0.00000000000E+00 0. -1.
         11    1    3    3    0    0 -0.73137756165E+01 -0.64613951566E+01 -0.10132381940E+02  0.14067910476E+02  0.51100000000E-03 0. -1.
        -11    1    3    3    0    0 -0.54573140386E+01 -0.96654308747E+00 -0.15277619653E+02  0.16251835114E+02  0.51100000000E-03 0.  1.
         12    1    3    3    0    0 -0.55052925342E+01 -0.64998284039E+01 -0.13334086802E+02  0.15822575202E+02  0.00000000000E+00 0. -1.
</event>
<event>
 7    1  0.2312612E-008  0.4614232E+02  0.7816164E-02  0.1320468E+00
        -11   -1    0    0    0    0  0.00000000000E+00  0.00000000000E+00  0.45593999997E+02  0.45594000000E+02  0.51100000000E-03 0.  1.
         11   -1    0    0    0    0 -0.00000000000E+00 -0.00000000000E+00 -0.45593999997E+02  0.45594000000E+02  0.51100000000E-03 0. -1.
    9900012    2    1    2    0    0 -0.17848181734E+02  0.39195208889E+02  0.13201952830E+02  0.46142317082E+02  0.99999938072E+01 0.  0.
         12    1    1    2    0    0  0.17848181734E+02 -0.39195208889E+02 -0.13201952830E+02  0.45045682918E+02  0.00000000000E+00 0. -1.
         11    1    3    3    0    0 -0.70103740259E+01  0.22175124450E+02  0.78450338903E+01  0.24544368913E+02  0.51100000000E-03 0. -1.
        -11    1    3    3    0    0 -0.13447565131E+01  0.69662616625E+01  0.19051961282E+01  0.73462197202E+01  0.51100000000E-03 0.  1.
         12    1    3    3    0    0 -0.94930511947E+01  0.10053822777E+02  0.34517228112E+01  0.14251728449E+02  0.00000000000E+00 0. -1.
</event>
<event>
 7    1  0.2312612E-008  0.4614232E+02  0.7816164E-02  0.1320468E+00
        -11   -1    0    0    0    0  0.00000000000E+00  0.00000000000E+00  0.45593999997E+02  0.45594000000E+02  0.51100000000E-03 0. -1.
         11   -1    0    0    0    0 -0.00000000000E+00 -0.00000000000E+00 -0.45593999997E+02  0.45594000000E+02  0.51100000000E-03 0.  1.
    9900012    2    1    2    0    0  0.75110934822E+01  0.25443449438E+02 -0.36405051598E+02  0.46142318449E+02  0.10000006268E+02 0.  0.
         12    1    1    2    0    0 -0.75110934822E+01 -0.25443449438E+02  0.36405051598E+02  0.45045681551E+02  0.00000000000E+00 0. -1.
         11    1    3    3    0    0  0.29659599355E+01  0.78126937813E+01 -0.15692179067E+02  0.17778627242E+02  0.51100000000E-03 0. -1.
        -11    1    3    3    0    0  0.76331353880E+00  0.13742282912E+02 -0.12983970002E+02  0.18921323011E+02  0.51100000000E-03 0.  1.
        -12    1    3    3    0    0  0.37818200078E+01  0.38884727443E+01 -0.77289025284E+01  0.94423681960E+01  0.00000000000E+00 0.  1.
</event>
<event>
 7    1  0.2312612E-008  0.4614232E+02  0.7816164E-02  0.1320468E+00
        -11   -1    0    0    0    0  0.00000000000E+00  0.00000000000E+00  0.45593999997E+02  0.45594000000E+02  0.51100000000E-03 0.  1.
         11   -1    0    0    0    0 -0.00000000000E+00 -0.00000000000E+00 -0.45593999997E+02  0.45594000000E+02  0.51100000000E-03 0. -1.
    9900012    2    1    2    0    0  0.30433398762E+02  0.13090975398E+02  0.30521270242E+02  0.46142319471E+02  0.10000015595E+02 0.  0.
         12    1    1    2    0    0 -0.30433398762E+02 -0.13090975398E+02 -0.30521270242E+02  0.45045680529E+02  0.00000000000E+00 0. -1.
         11    1    3    3    0    0  0.31869643829E+01 -0.94421666479E+00  0.46765380182E+01  0.57374467479E+01  0.51100000000E-03 0. -1.
        -11    1    3    3    0    0  0.93633767815E+01  0.29332924949E+01  0.10395116163E+02  0.14294595829E+02  0.51100000000E-03 0.  1.
         12    1    3    3    0    0  0.17883057598E+02  0.11101899568E+02  0.15449616061E+02  0.26110276894E+02  0.00000000000E+00 0. -1.
</event>
<event>
 7    1  0.2312612E-008  0.4614232E+02  0.7816164E-02  0.1320468E+00
        -11   -1    0    0    0    0  0.00000000000E+00  0.00000000000E+00  0.45593999997E+02  0.45594000000E+02  0.51100000000E-03 0.  1.
         11   -1    0    0    0    0 -0.00000000000E+00 -0.00000000000E+00 -0.45593999997E+02  0.45594000000E+02  0.51100000000E-03 0. -1.
    9900012    2    1    2    0    0  0.90961837703E+01 -0.62519668146E+01  0.43672482703E+02  0.46142318812E+02  0.10000009581E+02 0.  0.
         12    1    1    2    0    0 -0.90961837703E+01  0.62519668146E+01 -0.43672482703E+02  0.45045681188E+02  0.00000000000E+00 0. -1.
         11    1    3    3    0    0  0.58158030132E+01 -0.38326862432E+01  0.10682698256E+02  0.12752767967E+02  0.51100000000E-03 0. -1.
        -11    1    3    3    0    0  0.28142794923E+01 -0.13465667234E+00  0.17569928025E+02  0.17794400033E+02  0.51100000000E-03 0.  1.
         12    1    3    3    0    0  0.46610126479E+00 -0.22846238990E+01  0.15419856423E+02  0.15595150812E+02  0.00000000000E+00 0. -1.
</event>
<event>
 7    1  0.2312612E-008  0.4614232E+02  0.7816164E-02  0.1320468E+00
        -11   -1    0    0    0    0  0.00000000000E+00  0.00000000000E+00  0.45593999997E+02  0.45594000000E+02  0.51100000000E-03 0.  1.
         11   -1    0    0    0    0 -0.00000000000E+00 -0.00000000000E+00 -0.45593999997E+02  0.45594000000E+02  0.51100000000E-03 0. -1.
    9900012    2    1    2    0    0 -0.43270866409E+02  0.87288770082E+01 -0.89750924778E+01  0.46142318091E+02  0.10000003009E+02 0.  0.
         12    1    1    2    0    0  0.43270866409E+02 -0.87288770082E+01  0.89750924778E+01  0.45045681909E+02  0.00000000000E+00 0. -1.
         11    1    3    3    0    0 -0.28959603040E+02  0.28208110364E+01 -0.47372709110E+01  0.29479778138E+02  0.51100000000E-03 0. -1.
        -11    1    3    3    0    0 -0.32864567408E+01  0.24877244442E+01  0.56436209194E+00  0.41602975436E+01  0.51100000000E-03 0.  1.
         12    1    3    3    0    0 -0.11024806629E+02  0.34203415276E+01 -0.48021836588E+01  0.12502242409E+02  0.00000000000E+00 0. -1.
</event>
<event>
 7    1  0.2312612E-008  0.4614232E+02  0.7816164E-02  0.1320468E+00
        -11   -1    0    0    0    0  0.00000000000E+00  0.00000000000E+00  0.45593999997E+02  0.45594000000E+02  0.51100000000E-03 0. -1.
         11   -1    0    0    0    0 -0.00000000000E+00 -0.00000000000E+00 -0.45593999997E+02  0.45594000000E+02  0.51100000000E-03 0.  1.
    9900012    2    1    2    0    0  0.32478845158E+02 -0.17784815779E+02 -0.25650309973E+02  0.46142318112E+02  0.10000003196E+02 0.  0.
         12    1    1    2    0    0 -0.32478845158E+02  0.17784815779E+02  0.25650309973E+02  0.45045681888E+02  0.00000000000E+00 0. -1.
         11    1    3    3    0    0  0.16801519478E+02 -0.67093812698E+01 -0.15068597233E+02  0.23545052062E+02  0.51100000000E-03 0.  1.
        -11    1    3    3    0    0  0.46276769677E+01 -0.11218114957E+01 -0.88426683039E+00  0.48431170993E+01  0.51100000000E-03 0. -1.
         12    1    3    3    0    0  0.11049648712E+02 -0.99536230140E+01 -0.96974459100E+01  0.17754148950E+02  0.00000000000E+00 0. -1.
</event>
<event>
 7    1  0.2312612E-008  0.4614232E+02  0.7816164E-02  0.1320468E+00
        -11   -1    0    0    0    0  0.00000000000E+00  0.00000000000E+00  0.45593999997E+02  0.45594000000E+02  0.51100000000E-03 0.  1.
         11   -1    0    0    0    0 -0.00000000000E+00 -0.00000000000E+00 -0.45593999997E+02  0.45594000000E+02  0.51100000000E-03 0. -1.
    9900012    2    1    2    0    0 -0.79440135050E+01  0.38065709553E+02  0.22737807402E+02  0.46142317857E+02  0.10000000871E+02 0.  0.
         12    1    1    2    0    0  0.79440135050E+01 -0.38065709553E+02 -0.22737807402E+02  0.45045682143E+02  0.00000000000E+00 0. -1.
         11    1    3    3    0    0  0.18004504806E+01  0.78113637104E+01  0.56517574707E+01  0.98082306109E+01  0.51100000000E-03 0. -1.
        -11    1    3    3    0    0 -0.43545063980E+01  0.82409320646E+01  0.38184878211E+01  0.10072513925E+02  0.51100000000E-03 0.  1.
         12    1    3    3    0    0 -0.53899575876E+01  0.22013413778E+02  0.13267562110E+02  0.26261573321E+02  0.00000000000E+00 0. -1.
</event>
<event>
 7    1  0.2312612E-008  0.4614232E+02  0.7816164E-02  0.1320468E+00
        -11   -1    0    0    0    0  0.00000000000E+00  0.00000000000E+00  0.45593999997E+02  0.45594000000E+02  0.51100000000E-03 0.  1.
         11   -1    0    0    0    0 -0.00000000000E+00 -0.00000000000E+00 -0.45593999997E+02  0.45594000000E+02  0.51100000000E-03 0. -1.
    9900012    2    1    2    0    0 -0.23240507741E+02  0.33922042854E+02  0.18392588219E+02  0.46142317711E+02  0.99999995433E+01 0.  0.
         12    1    1    2    0    0  0.23240507741E+02 -0.33922042854E+02 -0.18392588219E+02  0.45045682289E+02  0.00000000000E+00 0. -1.
         11    1    3    3    0    0 -0.49372381651E+01  0.70804275749E+01  0.73002028266E+01  0.11304943030E+02  0.51100000000E-03 0. -1.
        -11    1    3    3    0    0 -0.13089246653E+02  0.21817404356E+02  0.10654324061E+02  0.27583366948E+02  0.51100000000E-03 0.  1.
         12    1    3    3    0    0 -0.52140229235E+01  0.50242109237E+01  0.43806133139E+00  0.72540077325E+01  0.00000000000E+00 0. -1.
</event>
<event>
 7    1  0.2312612E-008  0.4614230E+02  0.7816164E-02  0.1320468E+00
        -11   -1    0    0    0    0  0.00000000000E+00  0.00000000000E+00  0.45593999997E+02  0.45594000000E+02  0.51100000000E-03 0.  1.
         11   -1    0    0    0    0 -0.00000000000E+00 -0.00000000000E+00 -0.45593999997E+02  0.45594000000E+02  0.51100000000E-03 0. -1.
    9900012    2    1    2    0    0  0.32550822709E+02  0.15445048783E+02  0.27037180973E+02  0.46142303803E+02  0.99998727152E+01 0.  0.
         12    1    1    2    0    0 -0.32550822709E+02 -0.15445048783E+02 -0.27037180973E+02  0.45045696197E+02  0.00000000000E+00 0. -1.
         11    1    3    3    0    0  0.80332146644E+00  0.11029922401E+01  0.23843090956E+01  0.27471525958E+01  0.51100000000E-03 0. -1.
        -11    1    3    3    0    0  0.96113796342E+01  0.60016422015E+01  0.12244162584E+02  0.16682860823E+02  0.51100000000E-03 0.  1.
        -12    1    3    3    0    0  0.22136121608E+02  0.83404143416E+01  0.12408709294E+02  0.26712290384E+02  0.00000000000E+00 0.  1.
</event>
<event>
 7    1  0.2312612E-008  0.4614232E+02  0.7816164E-02  0.1320468E+00
        -11   -1    0    0    0    0  0.00000000000E+00  0.00000000000E+00  0.45593999997E+02  0.45594000000E+02  0.51100000000E-03 0. -1.
         11   -1    0    0    0    0 -0.00000000000E+00 -0.00000000000E+00 -0.45593999997E+02  0.45594000000E+02  0.51100000000E-03 0.  1.
    9900012    2    1    2    0    0  0.16245225651E+02  0.42759600382E+01 -0.41796199342E+02  0.46142317964E+02  0.10000001847E+02 0.  0.
         12    1    1    2    0    0 -0.16245225651E+02 -0.42759600382E+01  0.41796199342E+02  0.45045682036E+02  0.00000000000E+00 0. -1.
         11    1    3    3    0    0  0.15832772363E+01  0.23675363815E+01 -0.49956763913E+01  0.57505459039E+01  0.51100000000E-03 0. -1.
        -11    1    3    3    0    0  0.77612793561E+01  0.17720063786E-01 -0.10033661771E+02  0.12685114901E+02  0.51100000000E-03 0.  1.
        -12    1    3    3    0    0  0.69006690584E+01  0.18907035930E+01 -0.26766861180E+02  0.27706657159E+02  0.00000000000E+00 0.  1.
</event>
<event>
 7    1  0.2312612E-008  0.4614232E+02  0.7816164E-02  0.1320468E+00
        -11   -1    0    0    0    0  0.00000000000E+00  0.00000000000E+00  0.45593999997E+02  0.45594000000E+02  0.51100000000E-03 0. -1.
         11   -1    0    0    0    0 -0.00000000000E+00 -0.00000000000E+00 -0.45593999997E+02  0.45594000000E+02  0.51100000000E-03 0.  1.
    9900012    2    1    2    0    0  0.13745735678E+02  0.40851432428E+02 -0.13089255581E+02  0.46142318826E+02  0.10000009708E+02 0.  0.
         12    1    1    2    0    0 -0.13745735678E+02 -0.40851432428E+02  0.13089255581E+02  0.45045681174E+02  0.00000000000E+00 0. -1.
         11    1    3    3    0    0  0.45212756530E+01  0.95365852266E+01  0.30373922214E-01  0.10554113613E+02  0.51100000000E-03 0. -1.
        -11    1    3    3    0    0  0.42012150514E+01  0.15300718108E+02 -0.35180801656E+01  0.16252355855E+02  0.51100000000E-03 0.  1.
        -12    1    3    3    0    0  0.50232449737E+01  0.16014129093E+02 -0.96015493379E+01  0.19335849358E+02  0.00000000000E+00 0.  1.
</event>
<event>
 7    1  0.2312612E-008  0.4614232E+02  0.7816164E-02  0.1320468E+00
        -11   -1    0    0    0    0  0.00000000000E+00  0.00000000000E+00  0.45593999997E+02  0.45594000000E+02  0.51100000000E-03 0.  1.
         11   -1    0    0    0    0 -0.00000000000E+00 -0.00000000000E+00 -0.45593999997E+02  0.45594000000E+02  0.51100000000E-03 0. -1.
    9900012    2    1    2    0    0  0.34088464529E+02 -0.23349445583E+02  0.17941388458E+02  0.46142318267E+02  0.10000004615E+02 0.  0.
         12    1    1    2    0    0 -0.34088464529E+02  0.23349445583E+02 -0.17941388458E+02  0.45045681733E+02  0.00000000000E+00 0. -1.
         11    1    3    3    0    0  0.29836597321E+01 -0.26342744651E+01  0.64843831247E+00  0.40326293979E+01  0.51100000000E-03 0. -1.
        -11    1    3    3    0    0  0.24593986316E+02 -0.18088552253E+02  0.10351545363E+02  0.32236848128E+02  0.51100000000E-03 0.  1.
        -12    1    3    3    0    0  0.65108184804E+01 -0.26266188641E+01  0.69414047832E+01  0.98728407414E+01  0.00000000000E+00 0.  1.
</event>
<event>
 7    1  0.2312612E-008  0.4614232E+02  0.7816164E-02  0.1320468E+00
        -11   -1    0    0    0    0  0.00000000000E+00  0.00000000000E+00  0.45593999997E+02  0.45594000000E+02  0.51100000000E-03 0.  1.
         11   -1    0    0    0    0 -0.00000000000E+00 -0.00000000000E+00 -0.45593999997E+02  0.45594000000E+02  0.51100000000E-03 0. -1.
    9900012    2    1    2    0    0  0.36775933723E+02 -0.10864229881E+02  0.23634988723E+02  0.46142317809E+02  0.10000000437E+02 0.  0.
         12    1    1    2    0    0 -0.36775933723E+02  0.10864229881E+02 -0.23634988723E+02  0.45045682191E+02  0.00000000000E+00 0. -1.
         11    1    3    3    0    0  0.53615864687E+01 -0.17329131730E+01  0.58588403158E+01  0.81286904009E+01  0.51100000000E-03 0. -1.
        -11    1    3    3    0    0  0.16578090456E+02 -0.86818538646E+01  0.10880400485E+02  0.21646957861E+02  0.51100000000E-03 0.  1.
        -12    1    3    3    0    0  0.14836256798E+02 -0.44946284330E+00  0.68957479230E+01  0.16366669547E+02  0.00000000000E+00 0.  1.
</event>
<event>
 7    1  0.2312612E-008  0.4614232E+02  0.7816164E-02  0.1320468E+00
        -11   -1    0    0    0    0  0.00000000000E+00  0.00000000000E+00  0.45593999997E+02  0.45594000000E+02  0.51100000000E-03 0.  1.
         11   -1    0    0    0    0 -0.00000000000E+00 -0.00000000000E+00 -0.45593999997E+02  0.45594000000E+02  0.51100000000E-03 0. -1.
    9900012    2    1    2    0    0 -0.25876913068E+02  0.19970550446E+02  0.30994773200E+02  0.46142317846E+02  0.10000000770E+02 0.  0.
         12    1    1    2    0    0  0.25876913068E+02 -0.19970550446E+02 -0.30994773200E+02  0.45045682154E+02  0.00000000000E+00 0. -1.
         11    1    3    3    0    0 -0.32600642518E+01  0.43366270645E+01  0.20208901784E+01  0.57895034844E+01  0.51100000000E-03 0. -1.
        -11    1    3    3    0    0 -0.14843141492E+02  0.11427709775E+02  0.15895702691E+02  0.24567962153E+02  0.51100000000E-03 0.  1.
        -12    1    3    3    0    0 -0.77737073242E+01  0.42062136061E+01  0.13078180331E+02  0.15784852208E+02  0.00000000000E+00 0.  1.
</event>
<event>
 7    1  0.2312612E-008  0.4614233E+02  0.7816164E-02  0.1320468E+00
        -11   -1    0    0    0    0  0.00000000000E+00  0.00000000000E+00  0.45593999997E+02  0.45594000000E+02  0.51100000000E-03 0.  1.
         11   -1    0    0    0    0 -0.00000000000E+00 -0.00000000000E+00 -0.45593999997E+02  0.45594000000E+02  0.51100000000E-03 0. -1.
    9900012    2    1    2    0    0 -0.17339673769E+01 -0.10372504400E+02  0.43800877794E+02  0.46142329998E+02  0.10000111589E+02 0.  0.
         12    1    1    2    0    0  0.17339673769E+01  0.10372504400E+02 -0.43800877794E+02  0.45045670002E+02  0.00000000000E+00 0. -1.
         11    1    3    3    0    0  0.18304920046E+01 -0.31478537963E+01  0.41121716064E+01  0.54926896948E+01  0.51100000000E-03 0. -1.
        -11    1    3    3    0    0 -0.20002522966E+01 -0.68889529163E+01  0.31557953245E+02  0.32362989584E+02  0.51100000000E-03 0.  1.
         12    1    3    3    0    0 -0.15642070849E+01 -0.33569768781E+00  0.81307529422E+01  0.82866507196E+01  0.00000000000E+00 0. -1.
</event>
<event>
 7    1  0.2312612E-008  0.4614232E+02  0.7816164E-02  0.1320468E+00
        -11   -1    0    0    0    0  0.00000000000E+00  0.00000000000E+00  0.45593999997E+02  0.45594000000E+02  0.51100000000E-03 0.  1.
         11   -1    0    0    0    0 -0.00000000000E+00 -0.00000000000E+00 -0.45593999997E+02  0.45594000000E+02  0.51100000000E-03 0. -1.
    9900012    2    1    2    0    0 -0.33752085859E+02 -0.25810378752E+02  0.14957755119E+02  0.46142318861E+02  0.10000010027E+02 0.  0.
         12    1    1    2    0    0  0.33752085859E+02  0.25810378752E+02 -0.14957755119E+02  0.45045681139E+02  0.00000000000E+00 0. -1.
         11    1    3    3    0    0 -0.11594460733E+02 -0.55228809257E+01  0.43070747664E+01  0.13545649734E+02  0.51100000000E-03 0. -1.
        -11    1    3    3    0    0  0.36316540515E+00 -0.11496639229E+01  0.77243505908E-01  0.12081320571E+01  0.51100000000E-03 0.  1.
        -12    1    3    3    0    0 -0.22520790531E+02 -0.19137833903E+02  0.10573436846E+02  0.31388537070E+02  0.00000000000E+00 0.  1.
</event>
<event>
 7    1  0.2312612E-008  0.4614232E+02  0.7816164E-02  0.1320468E+00
        -11   -1    0    0    0    0  0.00000000000E+00  0.00000000000E+00  0.45593999997E+02  0.45594000000E+02  0.51100000000E-03 0.  1.
         11   -1    0    0    0    0 -0.00000000000E+00 -0.00000000000E+00 -0.45593999997E+02  0.45594000000E+02  0.51100000000E-03 0. -1.
    9900012    2    1    2    0    0 -0.21035693528E+02  0.19699827006E+02  0.34619791380E+02  0.46142317172E+02  0.99999946253E+01 0.  0.
         12    1    1    2    0    0  0.21035693528E+02 -0.19699827006E+02 -0.34619791380E+02  0.45045682828E+02  0.00000000000E+00 0. -1.
         11    1    3    3    0    0 -0.30258132022E+01  0.36051788540E+01  0.95750310293E+01  0.10669305487E+02  0.51100000000E-03 0. -1.
        -11    1    3    3    0    0 -0.11170084784E+02  0.95454056497E+01  0.19774043860E+02  0.24635307466E+02  0.51100000000E-03 0.  1.
        -12    1    3    3    0    0 -0.68397955419E+01  0.65492425025E+01  0.52707164910E+01  0.10837704219E+02  0.00000000000E+00 0.  1.
</event>
<event>
 7    1  0.2312612E-008  0.4614232E+02  0.7816164E-02  0.1320468E+00
        -11   -1    0    0    0    0  0.00000000000E+00  0.00000000000E+00  0.45593999997E+02  0.45594000000E+02  0.51100000000E-03 0.  1.
         11   -1    0    0    0    0 -0.00000000000E+00 -0.00000000000E+00 -0.45593999997E+02  0.45594000000E+02  0.51100000000E-03 0. -1.
    9900012    2    1    2    0    0 -0.25317514903E+02 -0.20502960448E+02  0.31108933055E+02  0.46142315814E+02  0.99999822403E+01 0.  0.
         12    1    1    2    0    0  0.25317514903E+02  0.20502960448E+02 -0.31108933055E+02  0.45045684186E+02  0.00000000000E+00 0. -1.
         11    1    3    3    0    0 -0.82606405666E+00 -0.80225893681E+00  0.30796978555E+01  0.32879386201E+01  0.51100000000E-03 0. -1.
        -11    1    3    3    0    0 -0.12817662065E+02 -0.12218381567E+02  0.20452698359E+02  0.27053542824E+02  0.51100000000E-03 0.  1.
         12    1    3    3    0    0 -0.11673788781E+02 -0.74823199445E+01  0.75765368408E+01  0.15800834369E+02  0.00000000000E+00 0. -1.
</event>
<event>
 7    1  0.2312612E-008  0.4614232E+02  0.7816164E-02  0.1320468E+00
        -11   -1    0    0    0    0  0.00000000000E+00  0.00000000000E+00  0.45593999997E+02  0.45594000000E+02  0.51100000000E-03 0.  1.
         11   -1    0    0    0    0 -0.00000000000E+00 -0.00000000000E+00 -0.45593999997E+02  0.45594000000E+02  0.51100000000E-03 0. -1.
    9900012    2    1    2    0    0 -0.40965511693E+02 -0.11284746383E+02  0.14953089549E+02  0.46142317229E+02  0.99999951501E+01 0.  0.
         12    1    1    2    0    0  0.40965511693E+02  0.11284746383E+02 -0.14953089549E+02  0.45045682771E+02  0.00000000000E+00 0. -1.
         11    1    3    3    0    0 -0.55485184775E+01 -0.54063793283E+00 -0.18027493537E+00  0.55777097436E+01  0.51100000000E-03 0. -1.
        -11    1    3    3    0    0 -0.38117167332E+00 -0.21449035270E+00  0.14350653740E+01  0.15002369295E+01  0.51100000000E-03 0.  1.
        -12    1    3    3    0    0 -0.35035821542E+02 -0.10529618098E+02  0.13698299111E+02  0.39064370556E+02  0.00000000000E+00 0.  1.
</event>
<event>
 7    1  0.2312612E-008  0.4614232E+02  0.7816164E-02  0.1320468E+00
        -11   -1    0    0    0    0  0.00000000000E+00  0.00000000000E+00  0.45593999997E+02  0.45594000000E+02  0.51100000000E-03 0.  1.
         11   -1    0    0    0    0 -0.00000000000E+00 -0.00000000000E+00 -0.45593999997E+02  0.45594000000E+02  0.51100000000E-03 0. -1.
    9900012    2    1    2    0    0 -0.31414009116E+02 -0.31402586980E+02  0.74933976858E+01  0.46142318224E+02  0.10000004218E+02 0.  0.
         12    1    1    2    0    0  0.31414009116E+02  0.31402586980E+02 -0.74933976858E+01  0.45045681776E+02  0.00000000000E+00 0. -1.
         11    1    3    3    0    0 -0.24390264817E+01 -0.50476842230E+01 -0.17587807026E+01  0.58754809177E+01  0.51100000000E-03 0. -1.
        -11    1    3    3    0    0 -0.11638981129E+02 -0.97533743029E+01  0.34398982488E+01  0.15570070400E+02  0.51100000000E-03 0.  1.
         12    1    3    3    0    0 -0.17336001505E+02 -0.16601528455E+02  0.58122801396E+01  0.24696766906E+02  0.00000000000E+00 0. -1.
</event>
<event>
 7    1  0.2312612E-008  0.4614232E+02  0.7816164E-02  0.1320468E+00
        -11   -1    0    0    0    0  0.00000000000E+00  0.00000000000E+00  0.45593999997E+02  0.45594000000E+02  0.51100000000E-03 0.  1.
         11   -1    0    0    0    0 -0.00000000000E+00 -0.00000000000E+00 -0.45593999997E+02  0.45594000000E+02  0.51100000000E-03 0. -1.
    9900012    2    1    2    0    0  0.31759614092E+02  0.24072117788E+02  0.20999374511E+02  0.46142315724E+02  0.99999814213E+01 0.  0.
         12    1    1    2    0    0 -0.31759614092E+02 -0.24072117788E+02 -0.20999374511E+02  0.45045684276E+02  0.00000000000E+00 0. -1.
         11    1    3    3    0    0  0.14074872721E+02  0.13333021831E+02  0.62742759647E+01  0.20377390716E+02  0.51100000000E-03 0. -1.
        -11    1    3    3    0    0  0.11638631122E+02  0.64189111959E+01  0.69075825481E+01  0.14979147247E+02  0.51100000000E-03 0.  1.
         12    1    3    3    0    0  0.60461102491E+01  0.43201847605E+01  0.78175159979E+01  0.10785777760E+02  0.00000000000E+00 0. -1.
</event>
<event>
 7    1  0.2312612E-008  0.4614232E+02  0.7816164E-02  0.1320468E+00
        -11   -1    0    0    0    0  0.00000000000E+00  0.00000000000E+00  0.45593999997E+02  0.45594000000E+02  0.51100000000E-03 0.  1.
         11   -1    0    0    0    0 -0.00000000000E+00 -0.00000000000E+00 -0.45593999997E+02  0.45594000000E+02  0.51100000000E-03 0. -1.
    9900012    2    1    2    0    0  0.43839662758E+02 -0.27168038793E+01  0.99908211845E+01  0.46142316944E+02  0.99999925468E+01 0.  0.
         12    1    1    2    0    0 -0.43839662758E+02  0.27168038793E+01 -0.99908211845E+01  0.45045683056E+02  0.00000000000E+00 0. -1.
         11    1    3    3    0    0  0.27458403523E+02 -0.22760591650E+01  0.40906300493E+01  0.27854579944E+02  0.51100000000E-03 0.  1.
        -11    1    3    3    0    0  0.70004814108E+01  0.25664082228E+01  0.23813191634E+01  0.78271241441E+01  0.51100000000E-03 0. -1.
         12    1    3    3    0    0  0.93807778241E+01 -0.30071529371E+01  0.35188719719E+01  0.10460612856E+02  0.00000000000E+00 0. -1.
</event>
<event>
 7    1  0.2312612E-008  0.4614231E+02  0.7816164E-02  0.1320468E+00
        -11   -1    0    0    0    0  0.00000000000E+00  0.00000000000E+00  0.45593999997E+02  0.45594000000E+02  0.51100000000E-03 0. -1.
         11   -1    0    0    0    0 -0.00000000000E+00 -0.00000000000E+00 -0.45593999997E+02  0.45594000000E+02  0.51100000000E-03 0.  1.
    9900012    2    1    2    0    0 -0.19745398144E+02 -0.39681761339E+02 -0.80368446230E+01  0.46142314276E+02  0.99999682198E+01 0.  0.
         12    1    1    2    0    0  0.19745398144E+02  0.39681761339E+02  0.80368446230E+01  0.45045685724E+02  0.00000000000E+00 0. -1.
         11    1    3    3    0    0 -0.10501631601E+02 -0.27381368224E+02 -0.62989235385E+01  0.29995000085E+02  0.51100000000E-03 0. -1.
        -11    1    3    3    0    0 -0.20818596478E+01 -0.26295889062E+01  0.15167461824E+01  0.36809505093E+01  0.51100000000E-03 0.  1.
        -12    1    3    3    0    0 -0.71619068948E+01 -0.96708042095E+01 -0.32546672670E+01  0.12466363682E+02  0.00000000000E+00 0.  1.
</event>
<event>
 7    1  0.2312612E-008  0.4614232E+02  0.7816164E-02  0.1320468E+00
        -11   -1    0    0    0    0  0.00000000000E+00  0.00000000000E+00  0.45593999997E+02  0.45594000000E+02  0.51100000000E-03 0. -1.
         11   -1    0    0    0    0 -0.00000000000E+00 -0.00000000000E+00 -0.45593999997E+02  0.45594000000E+02  0.51100000000E-03 0.  1.
    9900012    2    1    2    0    0  0.37672172934E+02  0.24688374194E+02 -0.63644192739E+00  0.46142317718E+02  0.99999996099E+01 0.  0.
         12    1    1    2    0    0 -0.37672172934E+02 -0.24688374194E+02  0.63644192739E+00  0.45045682282E+02  0.00000000000E+00 0. -1.
         11    1    3    3    0    0  0.43692535800E+01  0.20334606039E+01 -0.11158050289E+01  0.49467524698E+01  0.51100000000E-03 0. -1.
        -11    1    3    3    0    0  0.88179074217E+01  0.10221020045E+02 -0.18971474991E+01  0.13631724430E+02  0.51100000000E-03 0.  1.
        -12    1    3    3    0    0  0.24485011932E+02  0.12433893545E+02  0.23765106005E+01  0.27563840818E+02  0.00000000000E+00 0.  1.
</event>
<event>
 7    1  0.2312612E-008  0.4614232E+02  0.7816164E-02  0.1320468E+00
        -11   -1    0    0    0    0  0.00000000000E+00  0.00000000000E+00  0.45593999997E+02  0.45594000000E+02  0.51100000000E-03 0.  1.
         11   -1    0    0    0    0 -0.00000000000E+00 -0.00000000000E+00 -0.45593999997E+02  0.45594000000E+02  0.51100000000E-03 0. -1.
    9900012    2    1    2    0    0 -0.43246815062E+02  0.12353576300E+02  0.24931175012E+01  0.46142317684E+02  0.99999992968E+01 0.  0.
         12    1    1    2    0    0  0.43246815062E+02 -0.12353576300E+02 -0.24931175012E+01  0.45045682316E+02  0.00000000000E+00 0. -1.
         11    1    3    3    0    0 -0.24228239678E+02  0.88479461826E+01 -0.10273756097E+01  0.25813741504E+02  0.51100000000E-03 0. -1.
        -11    1    3    3    0    0 -0.60507568770E+01  0.49827071152E+00 -0.12296102495E+01  0.61945035405E+01  0.51100000000E-03 0.  1.
        -12    1    3    3    0    0 -0.12967818508E+02  0.30073594055E+01  0.47501033604E+01  0.14134072640E+02  0.00000000000E+00 0.  1.
</event>
<event>
 7    1  0.2312612E-008  0.4614232E+02  0.7816164E-02  0.1320468E+00
        -11   -1    0    0    0    0  0.00000000000E+00  0.00000000000E+00  0.45593999997E+02  0.45594000000E+02  0.51100000000E-03 0.  1.
         11   -1    0    0    0    0 -0.00000000000E+00 -0.00000000000E+00 -0.45593999997E+02  0.45594000000E+02  0.51100000000E-03 0. -1.
    9900012    2    1    2    0    0 -0.22519711811E+01 -0.28578263858E+02  0.34746581218E+02  0.46142318236E+02  0.10000004326E+02 0.  0.
         12    1    1    2    0    0  0.22519711811E+01  0.28578263858E+02 -0.34746581218E+02  0.45045681764E+02  0.00000000000E+00 0. -1.
         11    1    3    3    0    0 -0.19060418633E+01 -0.94898458618E+00  0.18700648205E+01  0.28338507412E+01  0.51100000000E-03 0. -1.
        -11    1    3    3    0    0  0.12716346055E+00 -0.11326052392E+02  0.93829141540E+01  0.14708321169E+02  0.51100000000E-03 0.  1.
         12    1    3    3    0    0 -0.47309277831E+00 -0.16303226879E+02  0.23493602243E+02  0.28600146325E+02  0.00000000000E+00 0. -1.
</event>
<event>
 7    1  0.2312612E-008  0.4614232E+02  0.7816164E-02  0.1320468E+00
        -11   -1    0    0    0    0  0.00000000000E+00  0.00000000000E+00  0.45593999997E+02  0.45594000000E+02  0.51100000000E-03 0.  1.
         11   -1    0    0    0    0 -0.00000000000E+00 -0.00000000000E+00 -0.45593999997E+02  0.45594000000E+02  0.51100000000E-03 0. -1.
    9900012    2    1    2    0    0 -0.88561326029E+01  0.26781203420E+02  0.35120500929E+02  0.46142317335E+02  0.99999961104E+01 0.  0.
         12    1    1    2    0    0  0.88561326029E+01 -0.26781203420E+02 -0.35120500929E+02  0.45045682665E+02  0.00000000000E+00 0. -1.
         11    1    3    3    0    0 -0.70498860056E+01  0.15336117418E+02  0.17603689556E+02  0.24388261036E+02  0.51100000000E-03 0. -1.
        -11    1    3    3    0    0 -0.34211638290E+01  0.76078791423E+01  0.89824892425E+01  0.12258437920E+02  0.51100000000E-03 0.  1.
         12    1    3    3    0    0  0.16149172317E+01  0.38372068597E+01  0.85343221308E+01  0.94956183780E+01  0.00000000000E+00 0. -1.
</event>
<event>
 7    1  0.2312612E-008  0.4614232E+02  0.7816164E-02  0.1320468E+00
        -11   -1    0    0    0    0  0.00000000000E+00  0.00000000000E+00  0.45593999997E+02  0.45594000000E+02  0.51100000000E-03 0. -1.
         11   -1    0    0    0    0 -0.00000000000E+00 -0.00000000000E+00 -0.45593999997E+02  0.45594000000E+02  0.51100000000E-03 0.  1.
    9900012    2    1    2    0    0  0.21604987368E+02  0.17578501744E+01 -0.39487315343E+02  0.46142316640E+02  0.99999897737E+01 0.  0.
         12    1    1    2    0    0 -0.21604987368E+02 -0.17578501744E+01  0.39487315343E+02  0.45045683360E+02  0.00000000000E+00 0. -1.
         11    1    3    3    0    0  0.35190306413E+00  0.15999343566E+01 -0.31047137773E+01  0.35103950792E+01  0.51100000000E-03 0. -1.
        -11    1    3    3    0    0  0.13974392210E+02  0.28949726336E+01 -0.20921197478E+02  0.25325106285E+02  0.51100000000E-03 0.  1.
        -12    1    3    3    0    0  0.72786920946E+01 -0.27370568158E+01 -0.15461404087E+02  0.17306815275E+02  0.00000000000E+00 0.  1.
</event>
<event>
 7    1  0.2312612E-008  0.4614232E+02  0.7816164E-02  0.1320468E+00
        -11   -1    0    0    0    0  0.00000000000E+00  0.00000000000E+00  0.45593999997E+02  0.45594000000E+02  0.51100000000E-03 0. -1.
         11   -1    0    0    0    0 -0.00000000000E+00 -0.00000000000E+00 -0.45593999997E+02  0.45594000000E+02  0.51100000000E-03 0.  1.
    9900012    2    1    2    0    0  0.29327694379E+02 -0.30098655882E+02  0.16219442884E+02  0.46142322395E+02  0.10000042254E+02 0.  0.
         12    1    1    2    0    0 -0.29327694379E+02  0.30098655882E+02 -0.16219442884E+02  0.45045677605E+02  0.00000000000E+00 0. -1.
         11    1    3    3    0    0  0.15060421601E+02 -0.10562386190E+02  0.69356891070E+01  0.19659198470E+02  0.51100000000E-03 0. -1.
        -11    1    3    3    0    0  0.13612483552E+02 -0.15391302965E+02  0.70089652080E+01  0.21709848202E+02  0.51100000000E-03 0.  1.
         12    1    3    3    0    0  0.65478922600E+00 -0.41449667263E+01  0.22747885686E+01  0.47732757227E+01  0.00000000000E+00 0. -1.
</event>
<event>
 7    1  0.2312612E-008  0.4614233E+02  0.7816164E-02  0.1320468E+00
        -11   -1    0    0    0    0  0.00000000000E+00  0.00000000000E+00  0.45593999997E+02  0.45594000000E+02  0.51100000000E-03 0.  1.
         11   -1    0    0    0    0 -0.00000000000E+00 -0.00000000000E+00 -0.45593999997E+02  0.45594000000E+02  0.51100000000E-03 0. -1.
    9900012    2    1    2    0    0  0.11095704880E+02 -0.42860168908E+02  0.83068233499E+01  0.46142333619E+02  0.10000144600E+02 0.  0.
         12    1    1    2    0    0 -0.11095704880E+02  0.42860168908E+02 -0.83068233499E+01  0.45045666381E+02  0.00000000000E+00 0. -1.
         11    1    3    3    0    0  0.80442567809E+01 -0.36414860959E+02  0.36862504807E+01  0.37474532801E+02  0.51100000000E-03 0.  1.
        -11    1    3    3    0    0 -0.10191503607E+00  0.45594320156E-01  0.11567009512E+00  0.16076488620E+00  0.51100000000E-03 0. -1.
        -12    1    3    3    0    0  0.31533631355E+01 -0.64909022689E+01  0.45049027741E+01  0.85070359311E+01  0.00000000000E+00 0.  1.
</event>
<event>
 7    1  0.2312612E-008  0.4614232E+02  0.7816164E-02  0.1320468E+00
        -11   -1    0    0    0    0  0.00000000000E+00  0.00000000000E+00  0.45593999997E+02  0.45594000000E+02  0.51100000000E-03 0. -1.
         11   -1    0    0    0    0 -0.00000000000E+00 -0.00000000000E+00 -0.45593999997E+02  0.45594000000E+02  0.51100000000E-03 0.  1.
    9900012    2    1    2    0    0  0.44889325928E+02  0.29372907087E+01 -0.23311696699E+01  0.46142316399E+02  0.99999875836E+01 0.  0.
         12    1    1    2    0    0 -0.44889325928E+02 -0.29372907087E+01  0.23311696699E+01  0.45045683601E+02  0.00000000000E+00 0. -1.
         11    1    3    3    0    0  0.30079229428E+02  0.31614661728E+01 -0.34910669257E+01  0.30445729748E+02  0.51100000000E-03 0. -1.
        -11    1    3    3    0    0  0.14131910461E+02 -0.94767315239E+00  0.21139121790E+01  0.14320530808E+02  0.51100000000E-03 0.  1.
         12    1    3    3    0    0  0.67818603936E+00  0.72349768832E+00 -0.95401492318E+00  0.13760558429E+01  0.00000000000E+00 0. -1.
</event>
<event>
 7    1  0.2312612E-008  0.4614232E+02  0.7816164E-02  0.1320468E+00
        -11   -1    0    0    0    0  0.00000000000E+00  0.00000000000E+00  0.45593999997E+02  0.45594000000E+02  0.51100000000E-03 0. -1.
         11   -1    0    0    0    0 -0.00000000000E+00 -0.00000000000E+00 -0.45593999997E+02  0.45594000000E+02  0.51100000000E-03 0.  1.
    9900012    2    1    2    0    0  0.36604648733E+02  0.91970803931E+01 -0.24589162601E+02  0.46142317477E+02  0.99999974051E+01 0.  0.
         12    1    1    2    0    0 -0.36604648733E+02 -0.91970803931E+01  0.24589162601E+02  0.45045682523E+02  0.00000000000E+00 0. -1.
         11    1    3    3    0    0  0.88136144574E+01  0.41041427581E+01 -0.38839298288E+01  0.10469417308E+02  0.51100000000E-03 0. -1.
        -11    1    3    3    0    0  0.24938206259E+01 -0.14559204363E+01 -0.25656417363E+01  0.38628180660E+01  0.51100000000E-03 0.  1.
        -12    1    3    3    0    0  0.25297213649E+02  0.65488580713E+01 -0.18139591036E+02  0.31810082103E+02  0.00000000000E+00 0.  1.
</event>
<event>
 7    1  0.2312612E-008  0.4614232E+02  0.7816164E-02  0.1320468E+00
        -11   -1    0    0    0    0  0.00000000000E+00  0.00000000000E+00  0.45593999997E+02  0.45594000000E+02  0.51100000000E-03 0.  1.
         11   -1    0    0    0    0 -0.00000000000E+00 -0.00000000000E+00 -0.45593999997E+02  0.45594000000E+02  0.51100000000E-03 0. -1.
    9900012    2    1    2    0    0  0.13168138799E+02 -0.31822597908E+02  0.29035079369E+02  0.46142318176E+02  0.10000003781E+02 0.  0.
         12    1    1    2    0    0 -0.13168138799E+02  0.31822597908E+02 -0.29035079369E+02  0.45045681824E+02  0.00000000000E+00 0. -1.
         11    1    3    3    0    0  0.23497357621E+01 -0.49952939891E+01  0.13169410227E+01  0.56752580653E+01  0.51100000000E-03 0. -1.
        -11    1    3    3    0    0  0.65720226988E+01 -0.91785189205E+01  0.11692971941E+02  0.16253070018E+02  0.51100000000E-03 0.  1.
        -12    1    3    3    0    0  0.42463803381E+01 -0.17648784998E+02  0.16025166406E+02  0.24213990093E+02  0.00000000000E+00 0.  1.
</event>
<event>
 7    1  0.2312612E-008  0.4614232E+02  0.7816164E-02  0.1320468E+00
        -11   -1    0    0    0    0  0.00000000000E+00  0.00000000000E+00  0.45593999997E+02  0.45594000000E+02  0.51100000000E-03 0. -1.
         11   -1    0    0    0    0 -0.00000000000E+00 -0.00000000000E+00 -0.45593999997E+02  0.45594000000E+02  0.51100000000E-03 0.  1.
    9900012    2    1    2    0    0 -0.36980528934E+02 -0.67013881638E+01 -0.24832346557E+02  0.46142316975E+02  0.99999928360E+01 0.  0.
         12    1    1    2    0    0  0.36980528934E+02  0.67013881638E+01  0.24832346557E+02  0.45045683025E+02  0.00000000000E+00 0. -1.
         11    1    3    3    0    0 -0.26223932286E+01  0.20671798444E+01 -0.27120816631E+01  0.43018096149E+01  0.51100000000E-03 0. -1.
        -11    1    3    3    0    0 -0.17920311798E+02 -0.35791341042E+01 -0.11669358036E+02  0.21682289850E+02  0.51100000000E-03 0.  1.
        -12    1    3    3    0    0 -0.16437823908E+02 -0.51894339041E+01 -0.10450906858E+02  0.20158217511E+02  0.00000000000E+00 0.  1.
</event>
<event>
 7    1  0.2312612E-008  0.4614232E+02  0.7816164E-02  0.1320468E+00
        -11   -1    0    0    0    0  0.00000000000E+00  0.00000000000E+00  0.45593999997E+02  0.45594000000E+02  0.51100000000E-03 0. -1.
         11   -1    0    0    0    0 -0.00000000000E+00 -0.00000000000E+00 -0.45593999997E+02  0.45594000000E+02  0.51100000000E-03 0.  1.
    9900012    2    1    2    0    0 -0.34731729886E+02  0.24541440857E+02 -0.14850522266E+02  0.46142318833E+02  0.10000009773E+02 0.  0.
         12    1    1    2    0    0  0.34731729886E+02 -0.24541440857E+02  0.14850522266E+02  0.45045681167E+02  0.00000000000E+00 0. -1.
         11    1    3    3    0    0 -0.40454237109E+01  0.56574526633E+01 -0.26415682491E+01  0.74397652325E+01  0.51100000000E-03 0. -1.
        -11    1    3    3    0    0 -0.13198475158E+02  0.82744125315E+01 -0.90206269222E+01  0.18001037736E+02  0.51100000000E-03 0.  1.
         12    1    3    3    0    0 -0.17487831017E+02  0.10609575662E+02 -0.31883270943E+01  0.20701515864E+02  0.00000000000E+00 0. -1.
</event>
<event>
 7    1  0.2312612E-008  0.4614232E+02  0.7816164E-02  0.1320468E+00
        -11   -1    0    0    0    0  0.00000000000E+00  0.00000000000E+00  0.45593999997E+02  0.45594000000E+02  0.51100000000E-03 0. -1.
         11   -1    0    0    0    0 -0.00000000000E+00 -0.00000000000E+00 -0.45593999997E+02  0.45594000000E+02  0.51100000000E-03 0.  1.
    9900012    2    1    2    0    0 -0.11353601981E+02 -0.22209065731E+02 -0.37509553240E+02  0.46142318044E+02  0.10000002581E+02 0.  0.
         12    1    1    2    0    0  0.11353601981E+02  0.22209065731E+02  0.37509553240E+02  0.45045681956E+02  0.00000000000E+00 0. -1.
         11    1    3    3    0    0 -0.56945424872E+01 -0.15381917809E+02 -0.23075384691E+02  0.28310856373E+02  0.51100000000E-03 0. -1.
        -11    1    3    3    0    0 -0.24810690653E+01 -0.57277563461E+01 -0.56262253364E+01  0.84034105138E+01  0.51100000000E-03 0.  1.
         12    1    3    3    0    0 -0.31779904283E+01 -0.10993915758E+01 -0.88079432125E+01  0.94280511577E+01  0.00000000000E+00 0. -1.
</event>
<event>
 7    1  0.2312612E-008  0.4614232E+02  0.7816164E-02  0.1320468E+00
        -11   -1    0    0    0    0  0.00000000000E+00  0.00000000000E+00  0.45593999997E+02  0.45594000000E+02  0.51100000000E-03 0.  1.
         11   -1    0    0    0    0 -0.00000000000E+00 -0.00000000000E+00 -0.45593999997E+02  0.45594000000E+02  0.51100000000E-03 0. -1.
    9900012    2    1    2    0    0  0.87343124284E+01  0.43026743267E+02  0.10075948019E+02  0.46142316763E+02  0.99999908998E+01 0.  0.
         12    1    1    2    0    0 -0.87343124284E+01 -0.43026743267E+02 -0.10075948019E+02  0.45045683237E+02  0.00000000000E+00 0. -1.
         11    1    3    3    0    0  0.60803986030E+01  0.13515081946E+02  0.24777903293E+01  0.15025582596E+02  0.51100000000E-03 0. -1.
        -11    1    3    3    0    0  0.61713057043E+00  0.16508513836E+02  0.14313017158E+01  0.16581933062E+02  0.51100000000E-03 0.  1.
         12    1    3    3    0    0  0.20367832550E+01  0.13003147486E+02  0.61668559740E+01  0.14534801106E+02  0.00000000000E+00 0. -1.
</event>
<event>
 7    1  0.2312612E-008  0.4614232E+02  0.7816164E-02  0.1320468E+00
        -11   -1    0    0    0    0  0.00000000000E+00  0.00000000000E+00  0.45593999997E+02  0.45594000000E+02  0.51100000000E-03 0. -1.
         11   -1    0    0    0    0 -0.00000000000E+00 -0.00000000000E+00 -0.45593999997E+02  0.45594000000E+02  0.51100000000E-03 0.  1.
    9900012    2    1    2    0    0  0.15952733929E+02 -0.30531409415E+02  0.29025106257E+02  0.46142317922E+02  0.10000001467E+02 0.  0.
         12    1    1    2    0    0 -0.15952733929E+02  0.30531409415E+02 -0.29025106257E+02  0.45045682078E+02  0.00000000000E+00 0. -1.
         11    1    3    3    0    0  0.52205695652E+01 -0.46852713468E+01  0.48877781161E+01  0.85496484929E+01  0.51100000000E-03 0. -1.
        -11    1    3    3    0    0  0.91515179772E+01 -0.16876200573E+02  0.19529297459E+02  0.27385212918E+02  0.51100000000E-03 0.  1.
        -12    1    3    3    0    0  0.15806463865E+01 -0.89699374948E+01  0.46080306817E+01  0.10207456511E+02  0.00000000000E+00 0.  1.
</event>
<event>
 7    1  0.2312612E-008  0.4614232E+02  0.7816164E-02  0.1320468E+00
        -11   -1    0    0    0    0  0.00000000000E+00  0.00000000000E+00  0.45593999997E+02  0.45594000000E+02  0.51100000000E-03 0. -1.
         11   -1    0    0    0    0 -0.00000000000E+00 -0.00000000000E+00 -0.45593999997E+02  0.45594000000E+02  0.51100000000E-03 0.  1.
    9900012    2    1    2    0    0 -0.32297723803E+02  0.26270372648E+02 -0.17199936484E+02  0.46142320329E+02  0.10000023418E+02 0.  0.
         12    1    1    2    0    0  0.32297723803E+02 -0.26270372648E+02  0.17199936484E+02  0.45045679671E+02  0.00000000000E+00 0. -1.
         11    1    3    3    0    0 -0.22943527368E+02  0.19449498115E+02 -0.16279432756E+02  0.34200999344E+02  0.51100000000E-03 0. -1.
        -11    1    3    3    0    0 -0.62621166525E-01  0.64415952275E+00 -0.42254569958E+00  0.77292174934E+00  0.51100000000E-03 0.  1.
        -12    1    3    3    0    0 -0.92915752688E+01  0.61767150099E+01 -0.49795802886E+00  0.11168399236E+02  0.00000000000E+00 0.  1.
</event>
<event>
 7    1  0.2312612E-008  0.4614232E+02  0.7816164E-02  0.1320468E+00
        -11   -1    0    0    0    0  0.00000000000E+00  0.00000000000E+00  0.45593999997E+02  0.45594000000E+02  0.51100000000E-03 0.  1.
         11   -1    0    0    0    0 -0.00000000000E+00 -0.00000000000E+00 -0.45593999997E+02  0.45594000000E+02  0.51100000000E-03 0. -1.
    9900012    2    1    2    0    0  0.38444886845E+02 -0.62759638440E+01  0.22621150290E+02  0.46142317774E+02  0.10000000122E+02 0.  0.
         12    1    1    2    0    0 -0.38444886845E+02  0.62759638440E+01 -0.22621150290E+02  0.45045682226E+02  0.00000000000E+00 0. -1.
         11    1    3    3    0    0  0.19960646765E+02 -0.26856691448E+01  0.88671267261E+01  0.22006048593E+02  0.51100000000E-03 0.  1.
        -11    1    3    3    0    0  0.16123510089E+02 -0.45590459654E+01  0.97432566023E+01  0.19382557292E+02  0.51100000000E-03 0. -1.
        -12    1    3    3    0    0  0.23607299913E+01  0.96875126618E+00  0.40107669617E+01  0.47537118895E+01  0.00000000000E+00 0.  1.
</event>
<event>
 7    1  0.2312612E-008  0.4614232E+02  0.7816164E-02  0.1320468E+00
        -11   -1    0    0    0    0  0.00000000000E+00  0.00000000000E+00  0.45593999997E+02  0.45594000000E+02  0.51100000000E-03 0.  1.
         11   -1    0    0    0    0 -0.00000000000E+00 -0.00000000000E+00 -0.45593999997E+02  0.45594000000E+02  0.51100000000E-03 0. -1.
    9900012    2    1    2    0    0 -0.28896215403E+02 -0.34257731024E+02 -0.45309960159E+01  0.46142319581E+02  0.10000016595E+02 0.  0.
         12    1    1    2    0    0  0.28896215403E+02  0.34257731024E+02  0.45309960159E+01  0.45045680419E+02  0.00000000000E+00 0. -1.
         11    1    3    3    0    0 -0.15336845060E+02 -0.20999876691E+02  0.24144588310E+00  0.26005228971E+02  0.51100000000E-03 0. -1.
        -11    1    3    3    0    0 -0.52002799087E+01 -0.21148136290E+01 -0.96453499329E+00  0.56961105879E+01  0.51100000000E-03 0.  1.
        -12    1    3    3    0    0 -0.83590904350E+01 -0.11143040703E+02 -0.38079069057E+01  0.14440980023E+02  0.00000000000E+00 0.  1.
</event>
<event>
 7    1  0.2312612E-008  0.4614232E+02  0.7816164E-02  0.1320468E+00
        -11   -1    0    0    0    0  0.00000000000E+00  0.00000000000E+00  0.45593999997E+02  0.45594000000E+02  0.51100000000E-03 0.  1.
         11   -1    0    0    0    0 -0.00000000000E+00 -0.00000000000E+00 -0.45593999997E+02  0.45594000000E+02  0.51100000000E-03 0. -1.
    9900012    2    1    2    0    0  0.24281768732E+02  0.35461315937E+02  0.13490896283E+02  0.46142317596E+02  0.99999984919E+01 0.  0.
         12    1    1    2    0    0 -0.24281768732E+02 -0.35461315937E+02 -0.13490896283E+02  0.45045682404E+02  0.00000000000E+00 0. -1.
         11    1    3    3    0    0  0.51090176906E+01  0.95940811579E+01  0.59016093054E+00  0.10885621030E+02  0.51100000000E-03 0. -1.
        -11    1    3    3    0    0  0.18360237544E+02  0.25845244923E+02  0.11671667576E+02  0.33783173801E+02  0.51100000000E-03 0.  1.
         12    1    3    3    0    0  0.81251349732E+00  0.21989855886E-01  0.12290677769E+01  0.14735227644E+01  0.00000000000E+00 0. -1.
</event>
<event>
 7    1  0.2312612E-008  0.4614232E+02  0.7816164E-02  0.1320468E+00
        -11   -1    0    0    0    0  0.00000000000E+00  0.00000000000E+00  0.45593999997E+02  0.45594000000E+02  0.51100000000E-03 0.  1.
         11   -1    0    0    0    0 -0.00000000000E+00 -0.00000000000E+00 -0.45593999997E+02  0.45594000000E+02  0.51100000000E-03 0. -1.
    9900012    2    1    2    0    0 -0.27585256683E+02  0.13079883057E+01  0.35587299706E+02  0.46142321849E+02  0.10000037280E+02 0.  0.
         12    1    1    2    0    0  0.27585256683E+02 -0.13079883057E+01 -0.35587299706E+02  0.45045678151E+02  0.00000000000E+00 0. -1.
         11    1    3    3    0    0 -0.13060593504E+01 -0.75522260609E+00  0.34962645761E+01  0.38078889767E+01  0.51100000000E-03 0. -1.
        -11    1    3    3    0    0 -0.18337038874E+02 -0.22898944869E+01  0.22968785578E+02  0.29479751061E+02  0.51100000000E-03 0.  1.
         12    1    3    3    0    0 -0.79421584586E+01  0.43531053987E+01  0.91222495524E+01  0.12854681812E+02  0.00000000000E+00 0. -1.
</event>
<event>
 7    1  0.2312612E-008  0.4614232E+02  0.7816164E-02  0.1320468E+00
        -11   -1    0    0    0    0  0.00000000000E+00  0.00000000000E+00  0.45593999997E+02  0.45594000000E+02  0.51100000000E-03 0. -1.
         11   -1    0    0    0    0 -0.00000000000E+00 -0.00000000000E+00 -0.45593999997E+02  0.45594000000E+02  0.51100000000E-03 0.  1.
    9900012    2    1    2    0    0  0.18738298900E+02  0.23053865813E+02 -0.33860137960E+02  0.46142317440E+02  0.99999970753E+01 0.  0.
         12    1    1    2    0    0 -0.18738298900E+02 -0.23053865813E+02  0.33860137960E+02  0.45045682560E+02  0.00000000000E+00 0. -1.
         11    1    3    3    0    0  0.51930014160E+00  0.25980255789E+01 -0.73955692427E+01  0.78558165859E+01  0.51100000000E-03 0. -1.
        -11    1    3    3    0    0  0.72608226784E+01  0.10620322487E+02 -0.10916919744E+02  0.16872757115E+02  0.51100000000E-03 0.  1.
        -12    1    3    3    0    0  0.10958176080E+02  0.98355177466E+01 -0.15547648974E+02  0.21413743739E+02  0.00000000000E+00 0.  1.
</event>
<event>
 7    1  0.2312612E-008  0.4614232E+02  0.7816164E-02  0.1320468E+00
        -11   -1    0    0    0    0  0.00000000000E+00  0.00000000000E+00  0.45593999997E+02  0.45594000000E+02  0.51100000000E-03 0.  1.
         11   -1    0    0    0    0 -0.00000000000E+00 -0.00000000000E+00 -0.45593999997E+02  0.45594000000E+02  0.51100000000E-03 0. -1.
    9900012    2    1    2    0    0 -0.12734015770E+02  0.64977677396E+01  0.42716942949E+02  0.46142319207E+02  0.10000013185E+02 0.  0.
         12    1    1    2    0    0  0.12734015770E+02 -0.64977677396E+01 -0.42716942949E+02  0.45045680793E+02  0.00000000000E+00 0. -1.
         11    1    3    3    0    0 -0.95128144230E+01  0.62106608079E+01  0.36956208181E+02  0.38662996124E+02  0.51100000000E-03 0. -1.
        -11    1    3    3    0    0 -0.25800682907E+01  0.17861633843E+01  0.36951780000E+01  0.48478317559E+01  0.51100000000E-03 0.  1.
         12    1    3    3    0    0 -0.64113305637E+00 -0.14990564526E+01  0.20655567676E+01  0.26314913271E+01  0.00000000000E+00 0. -1.
</event>
<event>
 7    1  0.2312612E-008  0.4614232E+02  0.7816164E-02  0.1320468E+00
        -11   -1    0    0    0    0  0.00000000000E+00  0.00000000000E+00  0.45593999997E+02  0.45594000000E+02  0.51100000000E-03 0.  1.
         11   -1    0    0    0    0 -0.00000000000E+00 -0.00000000000E+00 -0.45593999997E+02  0.45594000000E+02  0.51100000000E-03 0. -1.
    9900012    2    1    2    0    0  0.15123037655E+02  0.32168033957E+02  0.27669925391E+02  0.46142318212E+02  0.10000004113E+02 0.  0.
         12    1    1    2    0    0 -0.15123037655E+02 -0.32168033957E+02 -0.27669925391E+02  0.45045681788E+02  0.00000000000E+00 0. -1.
         11    1    3    3    0    0  0.20504860221E+00  0.21075145670E+01  0.34521877044E+01  0.40498472547E+01  0.51100000000E-03 0. -1.
        -11    1    3    3    0    0  0.11566852062E+02  0.25273680026E+02  0.16199660667E+02  0.32171104654E+02  0.51100000000E-03 0.  1.
         12    1    3    3    0    0  0.33511369910E+01  0.47868393640E+01  0.80180770197E+01  0.99213663033E+01  0.00000000000E+00 0. -1.
</event>
<event>
 7    1  0.2312612E-008  0.4614232E+02  0.7816164E-02  0.1320468E+00
        -11   -1    0    0    0    0  0.00000000000E+00  0.00000000000E+00  0.45593999997E+02  0.45594000000E+02  0.51100000000E-03 0.  1.
         11   -1    0    0    0    0 -0.00000000000E+00 -0.00000000000E+00 -0.45593999997E+02  0.45594000000E+02  0.51100000000E-03 0. -1.
    9900012    2    1    2    0    0  0.27691825151E+01  0.44957365140E+02 -0.52950966705E+00  0.46142318380E+02  0.10000005641E+02 0.  0.
         12    1    1    2    0    0 -0.27691825151E+01 -0.44957365140E+02  0.52950966705E+00  0.45045681620E+02  0.00000000000E+00 0. -1.
         11    1    3    3    0    0 -0.15097280576E+01  0.76755337471E+01  0.16944881143E+01  0.80040231972E+01  0.51100000000E-03 0. -1.
        -11    1    3    3    0    0  0.58645461622E+01  0.25628537484E+02 -0.21318841287E+01  0.26377258490E+02  0.51100000000E-03 0.  1.
        -12    1    3    3    0    0 -0.15856355896E+01  0.11653293909E+02 -0.92113652702E-01  0.11761036693E+02  0.00000000000E+00 0.  1.
</event>
<event>
 7    1  0.2312612E-008  0.4614232E+02  0.7816164E-02  0.1320468E+00
        -11   -1    0    0    0    0  0.00000000000E+00  0.00000000000E+00  0.45593999997E+02  0.45594000000E+02  0.51100000000E-03 0.  1.
         11   -1    0    0    0    0 -0.00000000000E+00 -0.00000000000E+00 -0.45593999997E+02  0.45594000000E+02  0.51100000000E-03 0. -1.
    9900012    2    1    2    0    0  0.14484041993E+02  0.31327131196E+02  0.28947139211E+02  0.46142317744E+02  0.99999998416E+01 0.  0.
         12    1    1    2    0    0 -0.14484041993E+02 -0.31327131196E+02 -0.28947139211E+02  0.45045682256E+02  0.00000000000E+00 0. -1.
         11    1    3    3    0    0  0.21782066618E+01  0.32079890537E+01  0.56015043314E+01  0.68126814887E+01  0.51100000000E-03 0. -1.
        -11    1    3    3    0    0  0.26265599462E+01  0.11902843195E+02  0.12900486966E+02  0.17748212797E+02  0.51100000000E-03 0.  1.
        -12    1    3    3    0    0  0.96792753847E+01  0.16216298948E+02  0.10445147914E+02  0.21581423458E+02  0.00000000000E+00 0.  1.
</event>
<event>
 7    1  0.2312612E-008  0.4614232E+02  0.7816164E-02  0.1320468E+00
        -11   -1    0    0    0    0  0.00000000000E+00  0.00000000000E+00  0.45593999997E+02  0.45594000000E+02  0.51100000000E-03 0. -1.
         11   -1    0    0    0    0 -0.00000000000E+00 -0.00000000000E+00 -0.45593999997E+02  0.45594000000E+02  0.51100000000E-03 0.  1.
    9900012    2    1    2    0    0 -0.72171191937E+01  0.42420704370E+02 -0.13323313710E+02  0.46142315890E+02  0.99999829358E+01 0.  0.
         12    1    1    2    0    0  0.72171191937E+01 -0.42420704370E+02  0.13323313710E+02  0.45045684110E+02  0.00000000000E+00 0. -1.
         11    1    3    3    0    0  0.77660798250E+00  0.48851254429E+01 -0.24148104306E+01  0.55044418635E+01  0.51100000000E-03 0. -1.
        -11    1    3    3    0    0 -0.36351176774E+01  0.25341111473E+02 -0.10532324742E+02  0.27682410949E+02  0.51100000000E-03 0.  1.
         12    1    3    3    0    0 -0.43586094988E+01  0.12194467454E+02 -0.37617853821E+00  0.12955463078E+02  0.00000000000E+00 0. -1.
</event>
<event>
 7    1  0.2312612E-008  0.4614232E+02  0.7816164E-02  0.1320468E+00
        -11   -1    0    0    0    0  0.00000000000E+00  0.00000000000E+00  0.45593999997E+02  0.45594000000E+02  0.51100000000E-03 0.  1.
         11   -1    0    0    0    0 -0.00000000000E+00 -0.00000000000E+00 -0.45593999997E+02  0.45594000000E+02  0.51100000000E-03 0. -1.
    9900012    2    1    2    0    0  0.30471232456E+02 -0.17521244456E+02  0.28171323337E+02  0.46142317929E+02  0.10000001532E+02 0.  0.
         12    1    1    2    0    0 -0.30471232456E+02  0.17521244456E+02 -0.28171323337E+02  0.45045682071E+02  0.00000000000E+00 0. -1.
         11    1    3    3    0    0  0.10710975728E+02 -0.55397201239E+01  0.12108904547E+02  0.17089150643E+02  0.51100000000E-03 0.  1.
        -11    1    3    3    0    0  0.63589941721E+01 -0.33807402764E+01  0.12584753753E+01  0.73109487913E+01  0.51100000000E-03 0. -1.
         12    1    3    3    0    0  0.13401262556E+02 -0.86007840552E+01  0.14803943415E+02  0.21742218495E+02  0.00000000000E+00 0. -1.
</event>
<event>
 7    1  0.2312612E-008  0.4614232E+02  0.7816164E-02  0.1320468E+00
        -11   -1    0    0    0    0  0.00000000000E+00  0.00000000000E+00  0.45593999997E+02  0.45594000000E+02  0.51100000000E-03 0. -1.
         11   -1    0    0    0    0 -0.00000000000E+00 -0.00000000000E+00 -0.45593999997E+02  0.45594000000E+02  0.51100000000E-03 0.  1.
    9900012    2    1    2    0    0 -0.34027425525E+02 -0.51122399180E+01 -0.29070823218E+02  0.46142318215E+02  0.10000004143E+02 0.  0.
         12    1    1    2    0    0  0.34027425525E+02  0.51122399180E+01  0.29070823218E+02  0.45045681785E+02  0.00000000000E+00 0. -1.
         11    1    3    3    0    0 -0.52640023246E+01 -0.32188907052E+01 -0.42416347975E+01  0.74874858171E+01  0.51100000000E-03 0. -1.
        -11    1    3    3    0    0 -0.17171577759E+02 -0.41171937510E+01 -0.12859911241E+02  0.21844717542E+02  0.51100000000E-03 0.  1.
        -12    1    3    3    0    0 -0.11591845442E+02  0.22238445381E+01 -0.11969277179E+02  0.16810114856E+02  0.00000000000E+00 0.  1.
</event>
<event>
 7    1  0.2312612E-008  0.4614232E+02  0.7816164E-02  0.1320468E+00
        -11   -1    0    0    0    0  0.00000000000E+00  0.00000000000E+00  0.45593999997E+02  0.45594000000E+02  0.51100000000E-03 0.  1.
         11   -1    0    0    0    0 -0.00000000000E+00 -0.00000000000E+00 -0.45593999997E+02  0.45594000000E+02  0.51100000000E-03 0. -1.
    9900012    2    1    2    0    0  0.75975204798E+01  0.35936882262E+02  0.26075499644E+02  0.46142317568E+02  0.99999982363E+01 0.  0.
         12    1    1    2    0    0 -0.75975204798E+01 -0.35936882262E+02 -0.26075499644E+02  0.45045682432E+02  0.00000000000E+00 0. -1.
         11    1    3    3    0    0  0.26122875892E+01  0.10707898876E+02  0.10592569854E+02  0.15286781256E+02  0.51100000000E-03 0. -1.
        -11    1    3    3    0    0  0.45898267523E+01  0.68258242060E+01  0.38639261683E+01  0.90878111447E+01  0.51100000000E-03 0.  1.
         12    1    3    3    0    0  0.39540613819E+00  0.18403159179E+02  0.11619003621E+02  0.21767725167E+02  0.00000000000E+00 0. -1.
</event>
<event>
 7    1  0.2312612E-008  0.4614232E+02  0.7816164E-02  0.1320468E+00
        -11   -1    0    0    0    0  0.00000000000E+00  0.00000000000E+00  0.45593999997E+02  0.45594000000E+02  0.51100000000E-03 0.  1.
         11   -1    0    0    0    0 -0.00000000000E+00 -0.00000000000E+00 -0.45593999997E+02  0.45594000000E+02  0.51100000000E-03 0. -1.
    9900012    2    1    2    0    0 -0.32427471900E+02  0.13275298097E+02  0.28307932199E+02  0.46142317646E+02  0.99999989502E+01 0.  0.
         12    1    1    2    0    0  0.32427471900E+02 -0.13275298097E+02 -0.28307932199E+02  0.45045682354E+02  0.00000000000E+00 0. -1.
         11    1    3    3    0    0 -0.66115905088E+01  0.15488518885E+01  0.68276392451E+01  0.96295757514E+01  0.51100000000E-03 0. -1.
        -11    1    3    3    0    0 -0.99185479493E+01  0.73691773573E+01  0.13147100346E+02  0.18042411594E+02  0.51100000000E-03 0.  1.
        -12    1    3    3    0    0 -0.15897333441E+02  0.43572688508E+01  0.83331926082E+01  0.18470330301E+02  0.00000000000E+00 0.  1.
</event>
<event>
 7    1  0.2312612E-008  0.4614232E+02  0.7816164E-02  0.1320468E+00
        -11   -1    0    0    0    0  0.00000000000E+00  0.00000000000E+00  0.45593999997E+02  0.45594000000E+02  0.51100000000E-03 0. -1.
         11   -1    0    0    0    0 -0.00000000000E+00 -0.00000000000E+00 -0.45593999997E+02  0.45594000000E+02  0.51100000000E-03 0.  1.
    9900012    2    1    2    0    0  0.10858463621E+02 -0.41105774906E+01 -0.43523674319E+02  0.46142319788E+02  0.10000018486E+02 0.  0.
         12    1    1    2    0    0 -0.10858463621E+02  0.41105774906E+01  0.43523674319E+02  0.45045680212E+02  0.00000000000E+00 0. -1.
         11    1    3    3    0    0  0.54615949161E+01  0.29632149828E+01 -0.17501654065E+02  0.18571956206E+02  0.51100000000E-03 0. -1.
        -11    1    3    3    0    0  0.30915804108E+01 -0.24654249865E+01 -0.11602265785E+02  0.12257600149E+02  0.51100000000E-03 0.  1.
         12    1    3    3    0    0  0.23052882940E+01 -0.46083674869E+01 -0.14419754469E+02  0.15312763433E+02  0.00000000000E+00 0. -1.
</event>
<event>
 7    1  0.2312612E-008  0.4614232E+02  0.7816164E-02  0.1320468E+00
        -11   -1    0    0    0    0  0.00000000000E+00  0.00000000000E+00  0.45593999997E+02  0.45594000000E+02  0.51100000000E-03 0.  1.
         11   -1    0    0    0    0 -0.00000000000E+00 -0.00000000000E+00 -0.45593999997E+02  0.45594000000E+02  0.51100000000E-03 0. -1.
    9900012    2    1    2    0    0  0.13443188996E+02 -0.24707605692E+02  0.35184205429E+02  0.46142318508E+02  0.10000006810E+02 0.  0.
         12    1    1    2    0    0 -0.13443188996E+02  0.24707605692E+02 -0.35184205429E+02  0.45045681492E+02  0.00000000000E+00 0. -1.
         11    1    3    3    0    0 -0.68563207972E+00 -0.49315835516E+00  0.14916386708E+01  0.17141419712E+01  0.51100000000E-03 0. -1.
        -11    1    3    3    0    0  0.69687202886E+01 -0.14279742436E+02  0.24126139211E+02  0.28888487326E+02  0.51100000000E-03 0.  1.
         12    1    3    3    0    0  0.71601007870E+01 -0.99347049008E+01  0.95664275474E+01  0.15539689211E+02  0.00000000000E+00 0. -1.
</event>
<event>
 7    1  0.2312612E-008  0.4614232E+02  0.7816164E-02  0.1320468E+00
        -11   -1    0    0    0    0  0.00000000000E+00  0.00000000000E+00  0.45593999997E+02  0.45594000000E+02  0.51100000000E-03 0.  1.
         11   -1    0    0    0    0 -0.00000000000E+00 -0.00000000000E+00 -0.45593999997E+02  0.45594000000E+02  0.51100000000E-03 0. -1.
    9900012    2    1    2    0    0 -0.26187471499E+02 -0.32873344080E+02  0.16207192459E+02  0.46142317611E+02  0.99999986268E+01 0.  0.
         12    1    1    2    0    0  0.26187471499E+02  0.32873344080E+02 -0.16207192459E+02  0.45045682389E+02  0.00000000000E+00 0. -1.
         11    1    3    3    0    0 -0.33871225981E+01 -0.31275895563E+01  0.42524526373E+01  0.62719829098E+01  0.51100000000E-03 0. -1.
        -11    1    3    3    0    0 -0.10719774638E+02 -0.18911710532E+02  0.56436959040E+01  0.22459244583E+02  0.51100000000E-03 0.  1.
        -12    1    3    3    0    0 -0.12080574263E+02 -0.10834043992E+02  0.63110439179E+01  0.17411090118E+02  0.00000000000E+00 0.  1.
</event>
<event>
 7    1  0.2312612E-008  0.4614232E+02  0.7816164E-02  0.1320468E+00
        -11   -1    0    0    0    0  0.00000000000E+00  0.00000000000E+00  0.45593999997E+02  0.45594000000E+02  0.51100000000E-03 0.  1.
         11   -1    0    0    0    0 -0.00000000000E+00 -0.00000000000E+00 -0.45593999997E+02  0.45594000000E+02  0.51100000000E-03 0. -1.
    9900012    2    1    2    0    0 -0.26399514870E+02 -0.34686957768E+02  0.11357558254E+02  0.46142317032E+02  0.99999933471E+01 0.  0.
         12    1    1    2    0    0  0.26399514870E+02  0.34686957768E+02 -0.11357558254E+02  0.45045682968E+02  0.00000000000E+00 0. -1.
         11    1    3    3    0    0 -0.37857285356E+01 -0.44294095678E+01 -0.33533535692E+00  0.58364252524E+01  0.51100000000E-03 0. -1.
        -11    1    3    3    0    0 -0.37250490217E+01 -0.81389284462E+01 -0.16863086438E-01  0.89508899609E+01  0.51100000000E-03 0.  1.
         12    1    3    3    0    0 -0.18888737313E+02 -0.22118619754E+02  0.11709756697E+02  0.31355001818E+02  0.00000000000E+00 0. -1.
</event>
<event>
 7    1  0.2312612E-008  0.4614232E+02  0.7816164E-02  0.1320468E+00
        -11   -1    0    0    0    0  0.00000000000E+00  0.00000000000E+00  0.45593999997E+02  0.45594000000E+02  0.51100000000E-03 0.  1.
         11   -1    0    0    0    0 -0.00000000000E+00 -0.00000000000E+00 -0.45593999997E+02  0.45594000000E+02  0.51100000000E-03 0. -1.
    9900012    2    1    2    0    0  0.34184345260E+02 -0.73231689936E+00  0.29325888054E+02  0.46142318087E+02  0.10000002968E+02 0.  0.
         12    1    1    2    0    0 -0.34184345260E+02  0.73231689936E+00 -0.29325888054E+02  0.45045681913E+02  0.00000000000E+00 0. -1.
         11    1    3    3    0    0  0.39360113982E+01  0.43624328200E+00  0.18302405482E+01  0.43625995293E+01  0.51100000000E-03 0. -1.
        -11    1    3    3    0    0  0.26958424475E+02 -0.20952730317E+01  0.20294134971E+02  0.33808264281E+02  0.51100000000E-03 0.  1.
        -12    1    3    3    0    0  0.32899093869E+01  0.92671285034E+00  0.72015125351E+01  0.79714542760E+01  0.00000000000E+00 0.  1.
</event>
<event>
 7    1  0.2312612E-008  0.4614232E+02  0.7816164E-02  0.1320468E+00
        -11   -1    0    0    0    0  0.00000000000E+00  0.00000000000E+00  0.45593999997E+02  0.45594000000E+02  0.51100000000E-03 0. -1.
         11   -1    0    0    0    0 -0.00000000000E+00 -0.00000000000E+00 -0.45593999997E+02  0.45594000000E+02  0.51100000000E-03 0.  1.
    9900012    2    1    2    0    0 -0.21325945660E+02  0.39451629970E+02 -0.42292313273E+01  0.46142318040E+02  0.10000002542E+02 0.  0.
         12    1    1    2    0    0  0.21325945660E+02 -0.39451629970E+02  0.42292313273E+01  0.45045681960E+02  0.00000000000E+00 0. -1.
         11    1    3    3    0    0 -0.28276341602E+01  0.18306133837E+01  0.15895860197E+00  0.33722289962E+01  0.51100000000E-03 0. -1.
        -11    1    3    3    0    0 -0.58956239724E+01  0.19170552552E+02 -0.38314126961E+01  0.20419309261E+02  0.51100000000E-03 0.  1.
         12    1    3    3    0    0 -0.12602687528E+02  0.18450464035E+02 -0.55677723312E+00  0.22350779783E+02  0.00000000000E+00 0. -1.
</event>
<event>
 7    1  0.2312612E-008  0.4614232E+02  0.7816164E-02  0.1320468E+00
        -11   -1    0    0    0    0  0.00000000000E+00  0.00000000000E+00  0.45593999997E+02  0.45594000000E+02  0.51100000000E-03 0.  1.
         11   -1    0    0    0    0 -0.00000000000E+00 -0.00000000000E+00 -0.45593999997E+02  0.45594000000E+02  0.51100000000E-03 0. -1.
    9900012    2    1    2    0    0  0.24247208824E+02 -0.14025130692E+02  0.35277216970E+02  0.46142318034E+02  0.10000002486E+02 0.  0.
         12    1    1    2    0    0 -0.24247208824E+02  0.14025130692E+02 -0.35277216970E+02  0.45045681966E+02  0.00000000000E+00 0. -1.
         11    1    3    3    0    0 -0.88792654480E-01 -0.38874130941E+00  0.17048248000E+01  0.17508374570E+01  0.51100000000E-03 0. -1.
        -11    1    3    3    0    0  0.83674850703E+01 -0.44605873879E+01  0.17693894411E+02  0.20074499892E+02  0.51100000000E-03 0.  1.
        -12    1    3    3    0    0  0.15968516408E+02 -0.91758019950E+01  0.15878497759E+02  0.24316980684E+02  0.00000000000E+00 0.  1.
</event>
<event>
 7    1  0.2312612E-008  0.4614231E+02  0.7816164E-02  0.1320468E+00
        -11   -1    0    0    0    0  0.00000000000E+00  0.00000000000E+00  0.45593999997E+02  0.45594000000E+02  0.51100000000E-03 0.  1.
         11   -1    0    0    0    0 -0.00000000000E+00 -0.00000000000E+00 -0.45593999997E+02  0.45594000000E+02  0.51100000000E-03 0. -1.
    9900012    2    1    2    0    0 -0.13919999401E+02  0.31134442860E+02  0.29427779364E+02  0.46142310819E+02  0.99999366952E+01 0.  0.
         12    1    1    2    0    0  0.13919999401E+02 -0.31134442860E+02 -0.29427779364E+02  0.45045689181E+02  0.00000000000E+00 0. -1.
         11    1    3    3    0    0 -0.58281216255E+01  0.63220501020E+01  0.11210057833E+02  0.14128011751E+02  0.51100000000E-03 0.  1.
        -11    1    3    3    0    0 -0.37694206783E+01  0.15645580664E+02  0.12503005514E+02  0.20379349197E+02  0.51100000000E-03 0. -1.
        -12    1    3    3    0    0 -0.43224570972E+01  0.91668120944E+01  0.57147160162E+01  0.11634949870E+02  0.00000000000E+00 0.  1.
</event>
<event>
 7    1  0.2312612E-008  0.4614232E+02  0.7816164E-02  0.1320468E+00
        -11   -1    0    0    0    0  0.00000000000E+00  0.00000000000E+00  0.45593999997E+02  0.45594000000E+02  0.51100000000E-03 0.  1.
         11   -1    0    0    0    0 -0.00000000000E+00 -0.00000000000E+00 -0.45593999997E+02  0.45594000000E+02  0.51100000000E-03 0. -1.
    9900012    2    1    2    0    0  0.52832915397E+01 -0.54074469102E+01  0.44406753244E+02  0.46142318905E+02  0.10000010435E+02 0.  0.
         12    1    1    2    0    0 -0.52832915397E+01  0.54074469102E+01 -0.44406753244E+02  0.45045681095E+02  0.00000000000E+00 0. -1.
         11    1    3    3    0    0  0.57937122068E+00  0.37180526396E+00  0.27869063864E+01  0.28706719829E+01  0.51100000000E-03 0. -1.
        -11    1    3    3    0    0 -0.10565907919E+01 -0.24726067496E+01  0.27892549086E+02  0.28021856880E+02  0.51100000000E-03 0.  1.
         12    1    3    3    0    0  0.57605111109E+01 -0.33066454245E+01  0.13727297772E+02  0.15249790042E+02  0.00000000000E+00 0. -1.
</event>
<event>
 7    1  0.2312612E-008  0.4614232E+02  0.7816164E-02  0.1320468E+00
        -11   -1    0    0    0    0  0.00000000000E+00  0.00000000000E+00  0.45593999997E+02  0.45594000000E+02  0.51100000000E-03 0.  1.
         11   -1    0    0    0    0 -0.00000000000E+00 -0.00000000000E+00 -0.45593999997E+02  0.45594000000E+02  0.51100000000E-03 0. -1.
    9900012    2    1    2    0    0  0.16067702575E+02 -0.36091463754E+02  0.21641365815E+02  0.46142317229E+02  0.99999951509E+01 0.  0.
         12    1    1    2    0    0 -0.16067702575E+02  0.36091463754E+02 -0.21641365815E+02  0.45045682771E+02  0.00000000000E+00 0. -1.
         11    1    3    3    0    0  0.13151291928E+01 -0.23299580154E+00 -0.20415873036E+00  0.13511228240E+01  0.51100000000E-03 0. -1.
        -11    1    3    3    0    0  0.36684005506E+01 -0.52018754742E+01  0.22236695322E+01  0.67425052836E+01  0.51100000000E-03 0.  1.
        -12    1    3    3    0    0  0.11084172832E+02 -0.30656592478E+02  0.19621855013E+02  0.38048689122E+02  0.00000000000E+00 0.  1.
</event>
<event>
 7    1  0.2312612E-008  0.4614232E+02  0.7816164E-02  0.1320468E+00
        -11   -1    0    0    0    0  0.00000000000E+00  0.00000000000E+00  0.45593999997E+02  0.45594000000E+02  0.51100000000E-03 0. -1.
         11   -1    0    0    0    0 -0.00000000000E+00 -0.00000000000E+00 -0.45593999997E+02  0.45594000000E+02  0.51100000000E-03 0.  1.
    9900012    2    1    2    0    0  0.52255864409E+01 -0.41222143087E+02  0.17393722366E+02  0.46142318608E+02  0.10000007723E+02 0.  0.
         12    1    1    2    0    0 -0.52255864409E+01  0.41222143087E+02 -0.17393722366E+02  0.45045681392E+02  0.00000000000E+00 0. -1.
         11    1    3    3    0    0  0.28520495145E+01 -0.12125825914E+02  0.36556127991E+01  0.12982039352E+02  0.51100000000E-03 0. -1.
        -11    1    3    3    0    0  0.50254913341E+01 -0.20593653819E+02  0.85856184225E+01  0.22870657724E+02  0.51100000000E-03 0.  1.
         12    1    3    3    0    0 -0.26519544077E+01 -0.85026633532E+01  0.51524911444E+01  0.10289621532E+02  0.00000000000E+00 0. -1.
</event>
<event>
 7    1  0.2312612E-008  0.4614232E+02  0.7816164E-02  0.1320468E+00
        -11   -1    0    0    0    0  0.00000000000E+00  0.00000000000E+00  0.45593999997E+02  0.45594000000E+02  0.51100000000E-03 0.  1.
         11   -1    0    0    0    0 -0.00000000000E+00 -0.00000000000E+00 -0.45593999997E+02  0.45594000000E+02  0.51100000000E-03 0. -1.
    9900012    2    1    2    0    0  0.14408240719E+01 -0.43970287498E+02  0.96773639016E+01  0.46142317313E+02  0.99999959150E+01 0.  0.
         12    1    1    2    0    0 -0.14408240719E+01  0.43970287498E+02 -0.96773639016E+01  0.45045682687E+02  0.00000000000E+00 0. -1.
         11    1    3    3    0    0 -0.85427252966E+00 -0.74913221405E+01  0.37044811880E+01  0.84007660425E+01  0.51100000000E-03 0. -1.
        -11    1    3    3    0    0 -0.11523816297E+01 -0.29080440246E+02  0.47327335323E+01  0.29485568593E+02  0.51100000000E-03 0.  1.
         12    1    3    3    0    0  0.34474782313E+01 -0.73985251117E+01  0.12401491813E+01  0.82559826778E+01  0.00000000000E+00 0. -1.
</event>
<event>
 7    1  0.2312612E-008  0.4614232E+02  0.7816164E-02  0.1320468E+00
        -11   -1    0    0    0    0  0.00000000000E+00  0.00000000000E+00  0.45593999997E+02  0.45594000000E+02  0.51100000000E-03 0. -1.
         11   -1    0    0    0    0 -0.00000000000E+00 -0.00000000000E+00 -0.45593999997E+02  0.45594000000E+02  0.51100000000E-03 0.  1.
    9900012    2    1    2    0    0 -0.11170379431E+02  0.42906444568E+02 -0.79607308235E+01  0.46142316551E+02  0.99999889686E+01 0.  0.
         12    1    1    2    0    0  0.11170379431E+02 -0.42906444568E+02  0.79607308235E+01  0.45045683449E+02  0.00000000000E+00 0. -1.
         11    1    3    3    0    0  0.12027805349E+01  0.14331765375E+01 -0.70569651686E+00  0.19996709324E+01  0.51100000000E-03 0. -1.
        -11    1    3    3    0    0 -0.49870289895E+01  0.21109341659E+02 -0.56888838698E+01  0.22424053232E+02  0.51100000000E-03 0.  1.
        -12    1    3    3    0    0 -0.73861309760E+01  0.20363926372E+02 -0.15661504368E+01  0.21718592387E+02  0.00000000000E+00 0.  1.
</event>
<event>
 7    1  0.2312612E-008  0.4614232E+02  0.7816164E-02  0.1320468E+00
        -11   -1    0    0    0    0  0.00000000000E+00  0.00000000000E+00  0.45593999997E+02  0.45594000000E+02  0.51100000000E-03 0. -1.
         11   -1    0    0    0    0 -0.00000000000E+00 -0.00000000000E+00 -0.45593999997E+02  0.45594000000E+02  0.51100000000E-03 0.  1.
    9900012    2    1    2    0    0  0.11671168644E+02 -0.36938922156E+02 -0.22987241566E+02  0.46142318494E+02  0.10000006679E+02 0.  0.
         12    1    1    2    0    0 -0.11671168644E+02  0.36938922156E+02  0.22987241566E+02  0.45045681506E+02  0.00000000000E+00 0. -1.
         11    1    3    3    0    0  0.83914657036E+00 -0.52798264364E+01 -0.18335423845E+01  0.56517795518E+01  0.51100000000E-03 0. -1.
        -11    1    3    3    0    0  0.24440099158E+01 -0.19737972941E+02 -0.11019688748E+02  0.22737508673E+02  0.51100000000E-03 0.  1.
         12    1    3    3    0    0  0.83880121575E+01 -0.11921122779E+02 -0.10134010433E+02  0.17753030269E+02  0.00000000000E+00 0. -1.
</event>
<event>
 7    1  0.2312612E-008  0.4614232E+02  0.7816164E-02  0.1320468E+00
        -11   -1    0    0    0    0  0.00000000000E+00  0.00000000000E+00  0.45593999997E+02  0.45594000000E+02  0.51100000000E-03 0. -1.
         11   -1    0    0    0    0 -0.00000000000E+00 -0.00000000000E+00 -0.45593999997E+02  0.45594000000E+02  0.51100000000E-03 0.  1.
    9900012    2    1    2    0    0  0.96372067293E+01  0.42796148165E+02  0.10233642563E+02  0.46142317727E+02  0.99999996910E+01 0.  0.
         12    1    1    2    0    0 -0.96372067293E+01 -0.42796148165E+02 -0.10233642563E+02  0.45045682273E+02  0.00000000000E+00 0. -1.
         11    1    3    3    0    0  0.35962655083E+01  0.16023949386E+02  0.78974535397E+00  0.16441526009E+02  0.51100000000E-03 0. -1.
        -11    1    3    3    0    0  0.56391012004E+01  0.17522476458E+02  0.36116246774E+01  0.18758477460E+02  0.51100000000E-03 0.  1.
         12    1    3    3    0    0  0.40184002057E+00  0.92497223217E+01  0.58322725320E+01  0.10942314258E+02  0.00000000000E+00 0. -1.
</event>
<event>
 7    1  0.2312612E-008  0.4614232E+02  0.7816164E-02  0.1320468E+00
        -11   -1    0    0    0    0  0.00000000000E+00  0.00000000000E+00  0.45593999997E+02  0.45594000000E+02  0.51100000000E-03 0.  1.
         11   -1    0    0    0    0 -0.00000000000E+00 -0.00000000000E+00 -0.45593999997E+02  0.45594000000E+02  0.51100000000E-03 0. -1.
    9900012    2    1    2    0    0 -0.35873181552E+02 -0.66836995084E+01  0.26411293994E+02  0.46142318251E+02  0.10000004466E+02 0.  0.
         12    1    1    2    0    0  0.35873181552E+02  0.66836995084E+01 -0.26411293994E+02  0.45045681749E+02  0.00000000000E+00 0. -1.
         11    1    3    3    0    0 -0.12024219912E+01  0.11648083111E+01  0.33054579970E+01  0.37052192753E+01  0.51100000000E-03 0. -1.
        -11    1    3    3    0    0 -0.98532012192E+01 -0.21669514553E+01  0.75544958536E+01  0.12603636806E+02  0.51100000000E-03 0.  1.
        -12    1    3    3    0    0 -0.24817558342E+02 -0.56815563642E+01  0.15551340144E+02  0.29833462170E+02  0.00000000000E+00 0.  1.
</event>
<event>
 7    1  0.2312612E-008  0.4614232E+02  0.7816164E-02  0.1320468E+00
        -11   -1    0    0    0    0  0.00000000000E+00  0.00000000000E+00  0.45593999997E+02  0.45594000000E+02  0.51100000000E-03 0. -1.
         11   -1    0    0    0    0 -0.00000000000E+00 -0.00000000000E+00 -0.45593999997E+02  0.45594000000E+02  0.51100000000E-03 0.  1.
    9900012    2    1    2    0    0 -0.20254166804E+02  0.24294848480E+02 -0.32072450881E+02  0.46142322726E+02  0.10000045269E+02 0.  0.
         12    1    1    2    0    0  0.20254166804E+02 -0.24294848480E+02  0.32072450881E+02  0.45045677274E+02  0.00000000000E+00 0. -1.
         11    1    3    3    0    0 -0.11374206698E-01  0.92619414068E+00  0.11233903765E+00  0.93305159520E+00  0.51100000000E-03 0. -1.
        -11    1    3    3    0    0 -0.93426201263E+00  0.39714491061E+00 -0.36909513832E+01  0.38280141017E+01  0.51100000000E-03 0.  1.
        -12    1    3    3    0    0 -0.19308530585E+02  0.22971509429E+02 -0.28493838535E+02  0.41381257029E+02  0.00000000000E+00 0.  1.
</event>
<event>
 7    1  0.2312612E-008  0.4614231E+02  0.7816164E-02  0.1320468E+00
        -11   -1    0    0    0    0  0.00000000000E+00  0.00000000000E+00  0.45593999997E+02  0.45594000000E+02  0.51100000000E-03 0.  1.
         11   -1    0    0    0    0 -0.00000000000E+00 -0.00000000000E+00 -0.45593999997E+02  0.45594000000E+02  0.51100000000E-03 0. -1.
    9900012    2    1    2    0    0  0.11880712652E+02 -0.26718705899E+02  0.34264760958E+02  0.46142307403E+02  0.99999055428E+01 0.  0.
         12    1    1    2    0    0 -0.11880712652E+02  0.26718705899E+02 -0.34264760958E+02  0.45045692597E+02  0.00000000000E+00 0. -1.
         11    1    3    3    0    0  0.70706919513E+01 -0.14043875253E+02  0.14120712260E+02  0.21133377198E+02  0.51100000000E-03 0. -1.
        -11    1    3    3    0    0  0.23281514132E+01 -0.78249291296E+01  0.69040592164E+01  0.10691858529E+02  0.51100000000E-03 0.  1.
         12    1    3    3    0    0  0.24818692872E+01 -0.48499015163E+01  0.13239989482E+02  0.14317071675E+02  0.00000000000E+00 0. -1.
</event>
<event>
 7    1  0.2312612E-008  0.4614232E+02  0.7816164E-02  0.1320468E+00
        -11   -1    0    0    0    0  0.00000000000E+00  0.00000000000E+00  0.45593999997E+02  0.45594000000E+02  0.51100000000E-03 0.  1.
         11   -1    0    0    0    0 -0.00000000000E+00 -0.00000000000E+00 -0.45593999997E+02  0.45594000000E+02  0.51100000000E-03 0. -1.
    9900012    2    1    2    0    0  0.43594392047E+02 -0.42271015085E+01 -0.10524925604E+02  0.46142318030E+02  0.10000002455E+02 0.  0.
         12    1    1    2    0    0 -0.43594392047E+02  0.42271015085E+01  0.10524925604E+02  0.45045681970E+02  0.00000000000E+00 0. -1.
         11    1    3    3    0    0  0.12839306374E+02 -0.35545199507E+01 -0.38813142901E+00  0.13327904806E+02  0.51100000000E-03 0. -1.
        -11    1    3    3    0    0  0.11418272037E+02 -0.17954398945E+01 -0.16825951307E+01  0.11680396713E+02  0.51100000000E-03 0.  1.
        -12    1    3    3    0    0  0.19336813637E+02  0.11228583367E+01 -0.84541990442E+01  0.21134016512E+02  0.00000000000E+00 0.  1.
</event>
<event>
 7    1  0.2312612E-008  0.4614232E+02  0.7816164E-02  0.1320468E+00
        -11   -1    0    0    0    0  0.00000000000E+00  0.00000000000E+00  0.45593999997E+02  0.45594000000E+02  0.51100000000E-03 0.  1.
         11   -1    0    0    0    0 -0.00000000000E+00 -0.00000000000E+00 -0.45593999997E+02  0.45594000000E+02  0.51100000000E-03 0. -1.
    9900012    2    1    2    0    0 -0.16752226796E+02 -0.29452452626E+02  0.29682139668E+02  0.46142317815E+02  0.10000000487E+02 0.  0.
         12    1    1    2    0    0  0.16752226796E+02  0.29452452626E+02 -0.29682139668E+02  0.45045682185E+02  0.00000000000E+00 0. -1.
         11    1    3    3    0    0 -0.40668719241E+01 -0.78027922304E+01  0.68617494974E+01  0.11158253459E+02  0.51100000000E-03 0. -1.
        -11    1    3    3    0    0 -0.64377960907E+01 -0.87591181455E+01  0.45919248766E+01  0.11800556916E+02  0.51100000000E-03 0.  1.
         12    1    3    3    0    0 -0.62475587817E+01 -0.12890542250E+02  0.18228465294E+02  0.23183507439E+02  0.00000000000E+00 0. -1.
</event>
<event>
 7    1  0.2312612E-008  0.4614232E+02  0.7816164E-02  0.1320468E+00
        -11   -1    0    0    0    0  0.00000000000E+00  0.00000000000E+00  0.45593999997E+02  0.45594000000E+02  0.51100000000E-03 0.  1.
         11   -1    0    0    0    0 -0.00000000000E+00 -0.00000000000E+00 -0.45593999997E+02  0.45594000000E+02  0.51100000000E-03 0. -1.
    9900012    2    1    2    0    0 -0.71339685089E+01  0.45595090446E+01  0.44242862213E+02  0.46142317785E+02  0.10000000216E+02 0.  0.
         12    1    1    2    0    0  0.71339685089E+01 -0.45595090446E+01 -0.44242862213E+02  0.45045682215E+02  0.00000000000E+00 0. -1.
         11    1    3    3    0    0 -0.29759895598E+01  0.72799394252E+01  0.26075970148E+02  0.27236193774E+02  0.51100000000E-03 0. -1.
        -11    1    3    3    0    0 -0.13373164216E+01 -0.45176403295E-01  0.51620666909E+01  0.53326718351E+01  0.51100000000E-03 0.  1.
         12    1    3    3    0    0 -0.28206625275E+01 -0.26752539773E+01  0.13004825374E+02  0.13573452175E+02  0.00000000000E+00 0. -1.
</event>
<event>
 7    1  0.2312612E-008  0.4614232E+02  0.7816164E-02  0.1320468E+00
        -11   -1    0    0    0    0  0.00000000000E+00  0.00000000000E+00  0.45593999997E+02  0.45594000000E+02  0.51100000000E-03 0.  1.
         11   -1    0    0    0    0 -0.00000000000E+00 -0.00000000000E+00 -0.45593999997E+02  0.45594000000E+02  0.51100000000E-03 0. -1.
    9900012    2    1    2    0    0  0.29934795749E+01 -0.44524000146E+02  0.61454040541E+01  0.46142317633E+02  0.99999988310E+01 0.  0.
         12    1    1    2    0    0 -0.29934795749E+01  0.44524000146E+02 -0.61454040541E+01  0.45045682367E+02  0.00000000000E+00 0. -1.
         11    1    3    3    0    0  0.19141054718E+01 -0.14846745304E+02  0.33296790697E+00  0.14973326743E+02  0.51100000000E-03 0. -1.
        -11    1    3    3    0    0  0.28252241880E+01 -0.25872524301E+02  0.67322967947E+01  0.26882954187E+02  0.51100000000E-03 0.  1.
         12    1    3    3    0    0 -0.17458500849E+01 -0.38047305408E+01 -0.91986064757E+00  0.42860367028E+01  0.00000000000E+00 0. -1.
</event>
<event>
 7    1  0.2312612E-008  0.4614232E+02  0.7816164E-02  0.1320468E+00
        -11   -1    0    0    0    0  0.00000000000E+00  0.00000000000E+00  0.45593999997E+02  0.45594000000E+02  0.51100000000E-03 0.  1.
         11   -1    0    0    0    0 -0.00000000000E+00 -0.00000000000E+00 -0.45593999997E+02  0.45594000000E+02  0.51100000000E-03 0. -1.
    9900012    2    1    2    0    0 -0.26330156474E+02 -0.12178793196E+02  0.34460315461E+02  0.46142317794E+02  0.10000000304E+02 0.  0.
         12    1    1    2    0    0  0.26330156474E+02  0.12178793196E+02 -0.34460315461E+02  0.45045682206E+02  0.00000000000E+00 0. -1.
         11    1    3    3    0    0 -0.85937977377E+01  0.39787399944E+00  0.10210301726E+02  0.13351476505E+02  0.51100000000E-03 0. -1.
        -11    1    3    3    0    0 -0.23960289942E+01 -0.35107942999E+01  0.48709999726E+01  0.64647716550E+01  0.51100000000E-03 0.  1.
         12    1    3    3    0    0 -0.15340329742E+02 -0.90658728953E+01  0.19379013763E+02  0.26326069634E+02  0.00000000000E+00 0. -1.
</event>
<event>
 7    1  0.2312612E-008  0.4614232E+02  0.7816164E-02  0.1320468E+00
        -11   -1    0    0    0    0  0.00000000000E+00  0.00000000000E+00  0.45593999997E+02  0.45594000000E+02  0.51100000000E-03 0.  1.
         11   -1    0    0    0    0 -0.00000000000E+00 -0.00000000000E+00 -0.45593999997E+02  0.45594000000E+02  0.51100000000E-03 0. -1.
    9900012    2    1    2    0    0  0.13693523711E+01 -0.22507109375E+02  0.38995748347E+02  0.46142317771E+02  0.10000000089E+02 0.  0.
         12    1    1    2    0    0 -0.13693523711E+01  0.22507109375E+02 -0.38995748347E+02  0.45045682229E+02  0.00000000000E+00 0. -1.
         11    1    3    3    0    0 -0.52934356321E+00 -0.86410874989E+00  0.40529741248E+01  0.41777371934E+01  0.51100000000E-03 0. -1.
        -11    1    3    3    0    0 -0.68647048214E+00  0.55970264210E+00  0.13544536235E+01  0.16183490507E+01  0.51100000000E-03 0.  1.
        -12    1    3    3    0    0  0.25851664165E+01 -0.22202703267E+02  0.33588320599E+02  0.40346231527E+02  0.00000000000E+00 0.  1.
</event>
<event>
 7    1  0.2312612E-008  0.4614232E+02  0.7816164E-02  0.1320468E+00
        -11   -1    0    0    0    0  0.00000000000E+00  0.00000000000E+00  0.45593999997E+02  0.45594000000E+02  0.51100000000E-03 0.  1.
         11   -1    0    0    0    0 -0.00000000000E+00 -0.00000000000E+00 -0.45593999997E+02  0.45594000000E+02  0.51100000000E-03 0. -1.
    9900012    2    1    2    0    0  0.29932151110E+02  0.64096981090E+00  0.33656634971E+02  0.46142316634E+02  0.99999897211E+01 0.  0.
         12    1    1    2    0    0 -0.29932151110E+02 -0.64096981090E+00 -0.33656634971E+02  0.45045683366E+02  0.00000000000E+00 0. -1.
         11    1    3    3    0    0  0.85685069837E+01  0.26806314022E+01  0.80074070647E+01  0.12030114912E+02  0.51100000000E-03 0. -1.
        -11    1    3    3    0    0  0.61471743064E+01 -0.36008427344E+01  0.69385901607E+01  0.99447400183E+01  0.51100000000E-03 0.  1.
        -12    1    3    3    0    0  0.15216469820E+02  0.15611811431E+01  0.18710637746E+02  0.24167461703E+02  0.00000000000E+00 0.  1.
</event>
<event>
 7    1  0.2312612E-008  0.4614232E+02  0.7816164E-02  0.1320468E+00
        -11   -1    0    0    0    0  0.00000000000E+00  0.00000000000E+00  0.45593999997E+02  0.45594000000E+02  0.51100000000E-03 0.  1.
         11   -1    0    0    0    0 -0.00000000000E+00 -0.00000000000E+00 -0.45593999997E+02  0.45594000000E+02  0.51100000000E-03 0. -1.
    9900012    2    1    2    0    0 -0.13289275653E+02 -0.15437101798E+01  0.43013086467E+02  0.46142317677E+02  0.99999992362E+01 0.  0.
         12    1    1    2    0    0  0.13289275653E+02  0.15437101798E+01 -0.43013086467E+02  0.45045682323E+02  0.00000000000E+00 0. -1.
         11    1    3    3    0    0 -0.51901286779E+00 -0.22529774102E+00  0.55173208496E-01  0.56848726732E+00  0.51100000000E-03 0. -1.
        -11    1    3    3    0    0 -0.12127145236E+02 -0.25161108487E+01  0.28792895773E+02  0.31343728442E+02  0.51100000000E-03 0.  1.
         12    1    3    3    0    0 -0.64311754926E+00  0.11976984098E+01  0.14165017485E+02  0.14230101968E+02  0.00000000000E+00 0. -1.
</event>
<event>
 7    1  0.2312612E-008  0.4614232E+02  0.7816164E-02  0.1320468E+00
        -11   -1    0    0    0    0  0.00000000000E+00  0.00000000000E+00  0.45593999997E+02  0.45594000000E+02  0.51100000000E-03 0.  1.
         11   -1    0    0    0    0 -0.00000000000E+00 -0.00000000000E+00 -0.45593999997E+02  0.45594000000E+02  0.51100000000E-03 0. -1.
    9900012    2    1    2    0    0 -0.20273280758E+02 -0.31992537823E+02  0.24384114610E+02  0.46142318360E+02  0.10000005463E+02 0.  0.
         12    1    1    2    0    0  0.20273280758E+02  0.31992537823E+02 -0.24384114610E+02  0.45045681640E+02  0.00000000000E+00 0. -1.
         11    1    3    3    0    0 -0.41194177113E+01 -0.88536586130E+01  0.77629882423E+01  0.12474809010E+02  0.51100000000E-03 0. -1.
        -11    1    3    3    0    0 -0.14476487645E+02 -0.19783336743E+02  0.10905122767E+02  0.26830408310E+02  0.51100000000E-03 0.  1.
         12    1    3    3    0    0 -0.16773754017E+01 -0.33555424676E+01  0.57160035999E+01  0.68371010410E+01  0.00000000000E+00 0. -1.
</event>
<event>
 7    1  0.2312612E-008  0.4614232E+02  0.7816164E-02  0.1320468E+00
        -11   -1    0    0    0    0  0.00000000000E+00  0.00000000000E+00  0.45593999997E+02  0.45594000000E+02  0.51100000000E-03 0.  1.
         11   -1    0    0    0    0 -0.00000000000E+00 -0.00000000000E+00 -0.45593999997E+02  0.45594000000E+02  0.51100000000E-03 0. -1.
    9900012    2    1    2    0    0 -0.48682440219E+00 -0.25937633977E+02  0.36825474542E+02  0.46142318413E+02  0.10000005949E+02 0.  0.
         12    1    1    2    0    0  0.48682440219E+00  0.25937633977E+02 -0.36825474542E+02  0.45045681587E+02  0.00000000000E+00 0. -1.
         11    1    3    3    0    0  0.39407839435E+01 -0.18490888532E+02  0.27157886944E+02  0.33090686912E+02  0.51100000000E-03 0. -1.
        -11    1    3    3    0    0 -0.35463686786E+01 -0.67646120908E+01  0.86870878810E+01  0.11567290247E+02  0.51100000000E-03 0.  1.
         12    1    3    3    0    0 -0.88123966711E+00 -0.68213335458E+00  0.98049971757E+00  0.14843412547E+01  0.00000000000E+00 0. -1.
</event>
<event>
 7    1  0.2312612E-008  0.4614232E+02  0.7816164E-02  0.1320468E+00
        -11   -1    0    0    0    0  0.00000000000E+00  0.00000000000E+00  0.45593999997E+02  0.45594000000E+02  0.51100000000E-03 0.  1.
         11   -1    0    0    0    0 -0.00000000000E+00 -0.00000000000E+00 -0.45593999997E+02  0.45594000000E+02  0.51100000000E-03 0. -1.
    9900012    2    1    2    0    0 -0.18069411907E+02  0.94592978282E+01  0.40163809611E+02  0.46142316916E+02  0.99999922899E+01 0.  0.
         12    1    1    2    0    0  0.18069411907E+02 -0.94592978282E+01 -0.40163809611E+02  0.45045683084E+02  0.00000000000E+00 0. -1.
         11    1    3    3    0    0 -0.10177557456E+01  0.20098514698E+01  0.33664845714E+01  0.40507466372E+01  0.51100000000E-03 0. -1.
        -11    1    3    3    0    0 -0.86765703449E+01  0.44776818385E+01  0.10522688259E+02  0.14354771891E+02  0.51100000000E-03 0.  1.
        -12    1    3    3    0    0 -0.83750858161E+01  0.29717645199E+01  0.26274636781E+02  0.27736798387E+02  0.00000000000E+00 0.  1.
</event>
<event>
 7    1  0.2312612E-008  0.4614232E+02  0.7816164E-02  0.1320468E+00
        -11   -1    0    0    0    0  0.00000000000E+00  0.00000000000E+00  0.45593999997E+02  0.45594000000E+02  0.51100000000E-03 0.  1.
         11   -1    0    0    0    0 -0.00000000000E+00 -0.00000000000E+00 -0.45593999997E+02  0.45594000000E+02  0.51100000000E-03 0. -1.
    9900012    2    1    2    0    0 -0.30594830613E+02 -0.22416957240E+02  0.24301233709E+02  0.46142316612E+02  0.99999895221E+01 0.  0.
         12    1    1    2    0    0  0.30594830613E+02  0.22416957240E+02 -0.24301233709E+02  0.45045683388E+02  0.00000000000E+00 0. -1.
         11    1    3    3    0    0 -0.11216159940E+02 -0.72573666279E+01  0.50163072391E+01  0.14270071925E+02  0.51100000000E-03 0.  1.
        -11    1    3    3    0    0 -0.23793801355E+01 -0.15076607759E+01  0.52056168718E+01  0.59188629078E+01  0.51100000000E-03 0. -1.
        -12    1    3    3    0    0 -0.16999290537E+02 -0.13651929837E+02  0.14079309598E+02  0.25953381779E+02  0.00000000000E+00 0.  1.
</event>
<event>
 7    1  0.2312612E-008  0.4614232E+02  0.7816164E-02  0.1320468E+00
        -11   -1    0    0    0    0  0.00000000000E+00  0.00000000000E+00  0.45593999997E+02  0.45594000000E+02  0.51100000000E-03 0.  1.
         11   -1    0    0    0    0 -0.00000000000E+00 -0.00000000000E+00 -0.45593999997E+02  0.45594000000E+02  0.51100000000E-03 0. -1.
    9900012    2    1    2    0    0 -0.14552960638E+02 -0.37538234633E+02  0.20204104544E+02  0.46142316932E+02  0.99999924371E+01 0.  0.
         12    1    1    2    0    0  0.14552960638E+02  0.37538234633E+02 -0.20204104544E+02  0.45045683068E+02  0.00000000000E+00 0. -1.
         11    1    3    3    0    0 -0.15442974706E+02 -0.36529469230E+02  0.19502008829E+02  0.44195202666E+02  0.51100000000E-03 0. -1.
        -11    1    3    3    0    0 -0.79069310532E-01 -0.60723179789E+00  0.65560672532E+00  0.89710804904E+00  0.51100000000E-03 0.  1.
         12    1    3    3    0    0  0.96908337843E+00 -0.40153360469E+00  0.46488989015E-01  0.10500062172E+01  0.00000000000E+00 0. -1.
</event>
<event>
 7    1  0.2312612E-008  0.4614232E+02  0.7816164E-02  0.1320468E+00
        -11   -1    0    0    0    0  0.00000000000E+00  0.00000000000E+00  0.45593999997E+02  0.45594000000E+02  0.51100000000E-03 0. -1.
         11   -1    0    0    0    0 -0.00000000000E+00 -0.00000000000E+00 -0.45593999997E+02  0.45594000000E+02  0.51100000000E-03 0.  1.
    9900012    2    1    2    0    0  0.93471386354E+01  0.28118957561E+02 -0.33927398990E+02  0.46142321215E+02  0.10000031491E+02 0.  0.
         12    1    1    2    0    0 -0.93471386354E+01 -0.28118957561E+02  0.33927398990E+02  0.45045678785E+02  0.00000000000E+00 0. -1.
         11    1    3    3    0    0  0.57190210557E+00  0.10853799830E+02 -0.89649156535E+01  0.14089065111E+02  0.51100000000E-03 0. -1.
        -11    1    3    3    0    0  0.27949430770E+01  0.10998883816E+02 -0.15694448130E+02  0.19367572237E+02  0.51100000000E-03 0.  1.
         12    1    3    3    0    0  0.59802934528E+01  0.62662739151E+01 -0.92680352072E+01  0.12685683867E+02  0.00000000000E+00 0. -1.
</event>
<event>
 7    1  0.2312612E-008  0.4614232E+02  0.7816164E-02  0.1320468E+00
        -11   -1    0    0    0    0  0.00000000000E+00  0.00000000000E+00  0.45593999997E+02  0.45594000000E+02  0.51100000000E-03 0.  1.
         11   -1    0    0    0    0 -0.00000000000E+00 -0.00000000000E+00 -0.45593999997E+02  0.45594000000E+02  0.51100000000E-03 0. -1.
    9900012    2    1    2    0    0  0.17083750815E+02 -0.39445048796E+02 -0.13466515418E+02  0.46142318143E+02  0.10000003481E+02 0.  0.
         12    1    1    2    0    0 -0.17083750815E+02  0.39445048796E+02  0.13466515418E+02  0.45045681857E+02  0.00000000000E+00 0. -1.
         11    1    3    3    0    0  0.41195345799E+01 -0.31433094154E+01 -0.11019324955E+01  0.52976612502E+01  0.51100000000E-03 0. -1.
        -11    1    3    3    0    0  0.76356919064E+01 -0.14855691961E+02 -0.36964091337E+01  0.17107273754E+02  0.51100000000E-03 0.  1.
        -12    1    3    3    0    0  0.53285243291E+01 -0.21446047420E+02 -0.86681737892E+01  0.23737383139E+02  0.00000000000E+00 0.  1.
</event>
<event>
 7    1  0.2312612E-008  0.4614232E+02  0.7816164E-02  0.1320468E+00
        -11   -1    0    0    0    0  0.00000000000E+00  0.00000000000E+00  0.45593999997E+02  0.45594000000E+02  0.51100000000E-03 0. -1.
         11   -1    0    0    0    0 -0.00000000000E+00 -0.00000000000E+00 -0.45593999997E+02  0.45594000000E+02  0.51100000000E-03 0.  1.
    9900012    2    1    2    0    0 -0.23732985056E+02 -0.11007249635E+02 -0.36670142315E+02  0.46142318058E+02  0.10000002711E+02 0.  0.
         12    1    1    2    0    0  0.23732985056E+02  0.11007249635E+02  0.36670142315E+02  0.45045681942E+02  0.00000000000E+00 0. -1.
         11    1    3    3    0    0 -0.30738834183E+01 -0.10706262506E+01 -0.48065714853E+01  0.58050090045E+01  0.51100000000E-03 0. -1.
        -11    1    3    3    0    0 -0.13148496437E+02 -0.12251404839E+01 -0.16083748783E+02  0.20810355666E+02  0.51100000000E-03 0.  1.
         12    1    3    3    0    0 -0.75106052002E+01 -0.87114829000E+01 -0.15779822047E+02  0.19526953388E+02  0.00000000000E+00 0. -1.
</event>
<event>
 7    1  0.2312612E-008  0.4614232E+02  0.7816164E-02  0.1320468E+00
        -11   -1    0    0    0    0  0.00000000000E+00  0.00000000000E+00  0.45593999997E+02  0.45594000000E+02  0.51100000000E-03 0.  1.
         11   -1    0    0    0    0 -0.00000000000E+00 -0.00000000000E+00 -0.45593999997E+02  0.45594000000E+02  0.51100000000E-03 0. -1.
    9900012    2    1    2    0    0 -0.29210593064E+02 -0.31784998943E+02  0.12867343264E+02  0.46142318435E+02  0.10000006149E+02 0.  0.
         12    1    1    2    0    0  0.29210593064E+02  0.31784998943E+02 -0.12867343264E+02  0.45045681565E+02  0.00000000000E+00 0. -1.
         11    1    3    3    0    0 -0.15338544098E+02 -0.11564050505E+02  0.40850510990E+01  0.19638885963E+02  0.51100000000E-03 0. -1.
        -11    1    3    3    0    0 -0.59537160110E+01 -0.47144921734E+01  0.25849492538E+01  0.80221651503E+01  0.51100000000E-03 0.  1.
        -12    1    3    3    0    0 -0.79183329548E+01 -0.15506456264E+02  0.61973429112E+01  0.18481267322E+02  0.00000000000E+00 0.  1.
</event>
<event>
 7    1  0.2312612E-008  0.4614232E+02  0.7816164E-02  0.1320468E+00
        -11   -1    0    0    0    0  0.00000000000E+00  0.00000000000E+00  0.45593999997E+02  0.45594000000E+02  0.51100000000E-03 0.  1.
         11   -1    0    0    0    0 -0.00000000000E+00 -0.00000000000E+00 -0.45593999997E+02  0.45594000000E+02  0.51100000000E-03 0. -1.
    9900012    2    1    2    0    0 -0.44505007143E+02 -0.44931929060E+01  0.53131060112E+01  0.46142317202E+02  0.99999949002E+01 0.  0.
         12    1    1    2    0    0  0.44505007143E+02  0.44931929060E+01 -0.53131060112E+01  0.45045682798E+02  0.00000000000E+00 0. -1.
         11    1    3    3    0    0 -0.17103917018E+02 -0.12977929223E+01  0.58092685014E+01  0.18110103385E+02  0.51100000000E-03 0. -1.
        -11    1    3    3    0    0 -0.57952596652E+01 -0.19009103300E+01 -0.17684789210E+01  0.63502765787E+01  0.51100000000E-03 0.  1.
        -12    1    3    3    0    0 -0.21605830459E+02 -0.12944896537E+01  0.12723164308E+01  0.21681937238E+02  0.00000000000E+00 0.  1.
</event>
<event>
 7    1  0.2312612E-008  0.4614232E+02  0.7816164E-02  0.1320468E+00
        -11   -1    0    0    0    0  0.00000000000E+00  0.00000000000E+00  0.45593999997E+02  0.45594000000E+02  0.51100000000E-03 0. -1.
         11   -1    0    0    0    0 -0.00000000000E+00 -0.00000000000E+00 -0.45593999997E+02  0.45594000000E+02  0.51100000000E-03 0.  1.
    9900012    2    1    2    0    0 -0.33403749498E+02 -0.30219015324E+02 -0.33767709995E+00  0.46142318814E+02  0.10000009601E+02 0.  0.
         12    1    1    2    0    0  0.33403749498E+02  0.30219015324E+02  0.33767709995E+00  0.45045681186E+02  0.00000000000E+00 0. -1.
         11    1    3    3    0    0 -0.14969313934E+02 -0.14588728631E+02 -0.19622830207E+01  0.20994330607E+02  0.51100000000E-03 0. -1.
        -11    1    3    3    0    0 -0.13746942829E+02 -0.78702218734E+01 -0.45358005237E+00  0.15846910254E+02  0.51100000000E-03 0.  1.
        -12    1    3    3    0    0 -0.46874927357E+01 -0.77600648197E+01  0.20781859731E+01  0.93010779532E+01  0.00000000000E+00 0.  1.
</event>
<event>
 7    1  0.2312612E-008  0.4614232E+02  0.7816164E-02  0.1320468E+00
        -11   -1    0    0    0    0  0.00000000000E+00  0.00000000000E+00  0.45593999997E+02  0.45594000000E+02  0.51100000000E-03 0.  1.
         11   -1    0    0    0    0 -0.00000000000E+00 -0.00000000000E+00 -0.45593999997E+02  0.45594000000E+02  0.51100000000E-03 0. -1.
    9900012    2    1    2    0    0 -0.15333654706E+02  0.11063520641E+02  0.40885096679E+02  0.46142316677E+02  0.99999901125E+01 0.  0.
         12    1    1    2    0    0  0.15333654706E+02 -0.11063520641E+02 -0.40885096679E+02  0.45045683323E+02  0.00000000000E+00 0. -1.
         11    1    3    3    0    0  0.26213845093E-01 -0.66230455321E+00  0.26364994893E+00  0.71333445422E+00  0.51100000000E-03 0. -1.
        -11    1    3    3    0    0 -0.95416442438E+00 -0.69457911522E+00  0.38867552408E+01  0.40619867625E+01  0.51100000000E-03 0.  1.
        -12    1    3    3    0    0 -0.14405704126E+02  0.12420404309E+02  0.36734691489E+02  0.41366995460E+02  0.00000000000E+00 0.  1.
</event>
<event>
 7    1  0.2312612E-008  0.4614232E+02  0.7816164E-02  0.1320468E+00
        -11   -1    0    0    0    0  0.00000000000E+00  0.00000000000E+00  0.45593999997E+02  0.45594000000E+02  0.51100000000E-03 0.  1.
         11   -1    0    0    0    0 -0.00000000000E+00 -0.00000000000E+00 -0.45593999997E+02  0.45594000000E+02  0.51100000000E-03 0. -1.
    9900012    2    1    2    0    0 -0.25248862983E+02  0.22542235660E+02  0.29722991661E+02  0.46142315370E+02  0.99999781963E+01 0.  0.
         12    1    1    2    0    0  0.25248862983E+02 -0.22542235660E+02 -0.29722991661E+02  0.45045684630E+02  0.00000000000E+00 0. -1.
         11    1    3    3    0    0 -0.87192376569E+01  0.11208644057E+02  0.10531414409E+02  0.17679635082E+02  0.51100000000E-03 0. -1.
        -11    1    3    3    0    0 -0.11961656491E+02  0.77324984389E+01  0.93737127372E+01  0.17051077645E+02  0.51100000000E-03 0.  1.
        -12    1    3    3    0    0 -0.45679688356E+01  0.36010931644E+01  0.98178645147E+01  0.11411602643E+02  0.00000000000E+00 0.  1.
</event>
<event>
 7    1  0.2312612E-008  0.4614232E+02  0.7816164E-02  0.1320468E+00
        -11   -1    0    0    0    0  0.00000000000E+00  0.00000000000E+00  0.45593999997E+02  0.45594000000E+02  0.51100000000E-03 0. -1.
         11   -1    0    0    0    0 -0.00000000000E+00 -0.00000000000E+00 -0.45593999997E+02  0.45594000000E+02  0.51100000000E-03 0.  1.
    9900012    2    1    2    0    0  0.27469028425E+01 -0.36782051383E+02 -0.25858241619E+02  0.46142318311E+02  0.10000005012E+02 0.  0.
         12    1    1    2    0    0 -0.27469028425E+01  0.36782051383E+02  0.25858241619E+02  0.45045681689E+02  0.00000000000E+00 0. -1.
         11    1    3    3    0    0  0.12323200273E+01 -0.31412119651E+01 -0.45816996700E+01  0.56901491533E+01  0.51100000000E-03 0. -1.
        -11    1    3    3    0    0  0.32688571555E+01 -0.27548382248E+02 -0.19359018826E+02  0.33828544186E+02  0.51100000000E-03 0.  1.
         12    1    3    3    0    0 -0.17542743402E+01 -0.60924571708E+01 -0.19175231238E+01  0.66236249719E+01  0.00000000000E+00 0. -1.
</event>
<event>
 7    1  0.2312612E-008  0.4614232E+02  0.7816164E-02  0.1320468E+00
        -11   -1    0    0    0    0  0.00000000000E+00  0.00000000000E+00  0.45593999997E+02  0.45594000000E+02  0.51100000000E-03 0.  1.
         11   -1    0    0    0    0 -0.00000000000E+00 -0.00000000000E+00 -0.45593999997E+02  0.45594000000E+02  0.51100000000E-03 0. -1.
    9900012    2    1    2    0    0  0.21903665789E+02 -0.22228462470E+02  0.32484431289E+02  0.46142318798E+02  0.10000009453E+02 0.  0.
         12    1    1    2    0    0 -0.21903665789E+02  0.22228462470E+02 -0.32484431289E+02  0.45045681202E+02  0.00000000000E+00 0. -1.
         11    1    3    3    0    0  0.43233708462E+00 -0.39949963025E+01  0.15924651920E+01  0.43223669974E+01  0.51100000000E-03 0. -1.
        -11    1    3    3    0    0  0.98357947652E+01 -0.76869685463E+01  0.13480377408E+02  0.18372613299E+02  0.51100000000E-03 0.  1.
         12    1    3    3    0    0  0.11635533939E+02 -0.10546497621E+02  0.17411588689E+02  0.23447338502E+02  0.00000000000E+00 0. -1.
</event>
<event>
 7    1  0.2312612E-008  0.4614232E+02  0.7816164E-02  0.1320468E+00
        -11   -1    0    0    0    0  0.00000000000E+00  0.00000000000E+00  0.45593999997E+02  0.45594000000E+02  0.51100000000E-03 0.  1.
         11   -1    0    0    0    0 -0.00000000000E+00 -0.00000000000E+00 -0.45593999997E+02  0.45594000000E+02  0.51100000000E-03 0. -1.
    9900012    2    1    2    0    0 -0.17952073797E+02 -0.13367230220E+02  0.39091606347E+02  0.46142317807E+02  0.10000000423E+02 0.  0.
         12    1    1    2    0    0  0.17952073797E+02  0.13367230220E+02 -0.39091606347E+02  0.45045682193E+02  0.00000000000E+00 0. -1.
         11    1    3    3    0    0 -0.12650796600E+02 -0.75658583726E+01  0.24077411566E+02  0.28231305594E+02  0.51100000000E-03 0. -1.
        -11    1    3    3    0    0 -0.63864479954E+01 -0.58574335308E+01  0.13624535829E+02  0.16146957063E+02  0.51100000000E-03 0.  1.
         12    1    3    3    0    0  0.10851707981E+01  0.56061683661E-01  0.13896589520E+01  0.17640551511E+01  0.00000000000E+00 0. -1.
</event>
<event>
 7    1  0.2312612E-008  0.4614232E+02  0.7816164E-02  0.1320468E+00
        -11   -1    0    0    0    0  0.00000000000E+00  0.00000000000E+00  0.45593999997E+02  0.45594000000E+02  0.51100000000E-03 0.  1.
         11   -1    0    0    0    0 -0.00000000000E+00 -0.00000000000E+00 -0.45593999997E+02  0.45594000000E+02  0.51100000000E-03 0. -1.
    9900012    2    1    2    0    0  0.17938225701E+02 -0.41059695443E+02 -0.46297795734E+01  0.46142318852E+02  0.10000009949E+02 0.  0.
         12    1    1    2    0    0 -0.17938225701E+02  0.41059695443E+02  0.46297795734E+01  0.45045681148E+02  0.00000000000E+00 0. -1.
         11    1    3    3    0    0  0.97445264434E+01 -0.22696887508E+02 -0.46618725640E+01  0.25136379099E+02  0.51100000000E-03 0. -1.
        -11    1    3    3    0    0  0.69856729321E+01 -0.14866907709E+02  0.24195820848E+01  0.16603582411E+02  0.51100000000E-03 0.  1.
        -12    1    3    3    0    0  0.12080263259E+01 -0.34959002252E+01 -0.23874890942E+01  0.44023573416E+01  0.00000000000E+00 0.  1.
</event>
<event>
 7    1  0.2312612E-008  0.4614232E+02  0.7816164E-02  0.1320468E+00
        -11   -1    0    0    0    0  0.00000000000E+00  0.00000000000E+00  0.45593999997E+02  0.45594000000E+02  0.51100000000E-03 0. -1.
         11   -1    0    0    0    0 -0.00000000000E+00 -0.00000000000E+00 -0.45593999997E+02  0.45594000000E+02  0.51100000000E-03 0.  1.
    9900012    2    1    2    0    0  0.21155197087E+02 -0.31250073757E+02  0.24596828298E+02  0.46142318343E+02  0.10000005310E+02 0.  0.
         12    1    1    2    0    0 -0.21155197087E+02  0.31250073757E+02 -0.24596828298E+02  0.45045681657E+02  0.00000000000E+00 0. -1.
         11    1    3    3    0    0  0.19443098872E+01 -0.43533962255E+01  0.57228047256E+01  0.74486840329E+01  0.51100000000E-03 0. -1.
        -11    1    3    3    0    0  0.28611910941E+01 -0.12195022389E+01  0.53583178377E+00  0.31560602259E+01  0.51100000000E-03 0.  1.
        -12    1    3    3    0    0  0.16349696105E+02 -0.25677175293E+02  0.18338191788E+02  0.35537574085E+02  0.00000000000E+00 0.  1.
</event>
<event>
 7    1  0.2312612E-008  0.4614232E+02  0.7816164E-02  0.1320468E+00
        -11   -1    0    0    0    0  0.00000000000E+00  0.00000000000E+00  0.45593999997E+02  0.45594000000E+02  0.51100000000E-03 0.  1.
         11   -1    0    0    0    0 -0.00000000000E+00 -0.00000000000E+00 -0.45593999997E+02  0.45594000000E+02  0.51100000000E-03 0. -1.
    9900012    2    1    2    0    0  0.18939354308E+02 -0.38412968899E+01  0.40689786939E+02  0.46142318025E+02  0.10000002407E+02 0.  0.
         12    1    1    2    0    0 -0.18939354308E+02  0.38412968899E+01 -0.40689786939E+02  0.45045681975E+02  0.00000000000E+00 0. -1.
         11    1    3    3    0    0  0.29744936974E+01 -0.26789521066E+01  0.50176958031E+01  0.64188525905E+01  0.51100000000E-03 0. -1.
        -11    1    3    3    0    0  0.18830027316E+01 -0.64318189743E+00  0.12084652636E+02  0.12247375712E+02  0.51100000000E-03 0.  1.
         12    1    3    3    0    0  0.14081857879E+02 -0.51916288583E+00  0.23587438501E+02  0.27476089723E+02  0.00000000000E+00 0. -1.
</event>
<event>
 7    1  0.2312612E-008  0.4614232E+02  0.7816164E-02  0.1320468E+00
        -11   -1    0    0    0    0  0.00000000000E+00  0.00000000000E+00  0.45593999997E+02  0.45594000000E+02  0.51100000000E-03 0. -1.
         11   -1    0    0    0    0 -0.00000000000E+00 -0.00000000000E+00 -0.45593999997E+02  0.45594000000E+02  0.51100000000E-03 0.  1.
    9900012    2    1    2    0    0 -0.42956514864E+02 -0.12791869566E+02 -0.44965945021E+01  0.46142318094E+02  0.10000003040E+02 0.  0.
         12    1    1    2    0    0  0.42956514864E+02  0.12791869566E+02  0.44965945021E+01  0.45045681906E+02  0.00000000000E+00 0. -1.
         11    1    3    3    0    0 -0.21216481135E+02 -0.36559784779E+01  0.12901168133E+01  0.21567792007E+02  0.51100000000E-03 0. -1.
        -11    1    3    3    0    0 -0.17337830708E+02 -0.70163495552E+01 -0.29793560320E+01  0.18939537940E+02  0.51100000000E-03 0.  1.
        -12    1    3    3    0    0 -0.44022030201E+01 -0.21195415326E+01 -0.28073552834E+01  0.56349881478E+01  0.00000000000E+00 0.  1.
</event>
<event>
 7    1  0.2312612E-008  0.4614232E+02  0.7816164E-02  0.1320468E+00
        -11   -1    0    0    0    0  0.00000000000E+00  0.00000000000E+00  0.45593999997E+02  0.45594000000E+02  0.51100000000E-03 0.  1.
         11   -1    0    0    0    0 -0.00000000000E+00 -0.00000000000E+00 -0.45593999997E+02  0.45594000000E+02  0.51100000000E-03 0. -1.
    9900012    2    1    2    0    0 -0.92798996377E-01 -0.27002406015E+02  0.36055166220E+02  0.46142317039E+02  0.99999934148E+01 0.  0.
         12    1    1    2    0    0  0.92798996377E-01  0.27002406015E+02 -0.36055166220E+02  0.45045682961E+02  0.00000000000E+00 0. -1.
         11    1    3    3    0    0  0.23360660795E+01 -0.39026261203E+01  0.47517672113E+01  0.65777646092E+01  0.51100000000E-03 0.  1.
        -11    1    3    3    0    0  0.51322284273E+00 -0.17977469963E+02  0.20656608776E+02  0.27388835506E+02  0.51100000000E-03 0. -1.
         12    1    3    3    0    0 -0.29420879186E+01 -0.51223099318E+01  0.10646790233E+02  0.12175716924E+02  0.00000000000E+00 0. -1.
</event>
<event>
 7    1  0.2312612E-008  0.4614232E+02  0.7816164E-02  0.1320468E+00
        -11   -1    0    0    0    0  0.00000000000E+00  0.00000000000E+00  0.45593999997E+02  0.45594000000E+02  0.51100000000E-03 0.  1.
         11   -1    0    0    0    0 -0.00000000000E+00 -0.00000000000E+00 -0.45593999997E+02  0.45594000000E+02  0.51100000000E-03 0. -1.
    9900012    2    1    2    0    0 -0.26097656179E+02 -0.29048678696E+02  0.22454401306E+02  0.46142317299E+02  0.99999957830E+01 0.  0.
         12    1    1    2    0    0  0.26097656179E+02  0.29048678696E+02 -0.22454401306E+02  0.45045682701E+02  0.00000000000E+00 0. -1.
         11    1    3    3    0    0 -0.12420900255E+02 -0.10317998901E+02  0.99670271271E+01  0.18975813408E+02  0.51100000000E-03 0. -1.
        -11    1    3    3    0    0 -0.77366711161E+01 -0.56457919482E+01  0.33952440242E+01  0.10161630230E+02  0.51100000000E-03 0.  1.
         12    1    3    3    0    0 -0.59400848079E+01 -0.13084887847E+02  0.90921301546E+01  0.17004873661E+02  0.00000000000E+00 0. -1.
</event>
<event>
 7    1  0.2312612E-008  0.4614231E+02  0.7816164E-02  0.1320468E+00
        -11   -1    0    0    0    0  0.00000000000E+00  0.00000000000E+00  0.45593999997E+02  0.45594000000E+02  0.51100000000E-03 0.  1.
         11   -1    0    0    0    0 -0.00000000000E+00 -0.00000000000E+00 -0.45593999997E+02  0.45594000000E+02  0.51100000000E-03 0. -1.
    9900012    2    1    2    0    0 -0.95190396081E+01  0.42865753071E+02  0.10051331078E+02  0.46142310330E+02  0.99999322367E+01 0.  0.
         12    1    1    2    0    0  0.95190396081E+01 -0.42865753071E+02 -0.10051331078E+02  0.45045689670E+02  0.00000000000E+00 0. -1.
         11    1    3    3    0    0 -0.14091060902E+01  0.29814393893E+01  0.27288494236E+01  0.42803247825E+01  0.51100000000E-03 0. -1.
        -11    1    3    3    0    0 -0.81460038442E+01  0.31864629321E+02  0.78887717200E+01  0.33822251550E+02  0.51100000000E-03 0.  1.
        -12    1    3    3    0    0  0.36070326240E-01  0.80196843610E+01 -0.56629006537E+00  0.80397339979E+01  0.00000000000E+00 0.  1.
</event>
<event>
 7    1  0.2312612E-008  0.4614231E+02  0.7816164E-02  0.1320468E+00
        -11   -1    0    0    0    0  0.00000000000E+00  0.00000000000E+00  0.45593999997E+02  0.45594000000E+02  0.51100000000E-03 0. -1.
         11   -1    0    0    0    0 -0.00000000000E+00 -0.00000000000E+00 -0.45593999997E+02  0.45594000000E+02  0.51100000000E-03 0.  1.
    9900012    2    1    2    0    0  0.44932034453E+02 -0.30411386702E+01 -0.98871756754E+00  0.46142314225E+02  0.99999677520E+01 0.  0.
         12    1    1    2    0    0 -0.44932034453E+02  0.30411386702E+01  0.98871756754E+00  0.45045685775E+02  0.00000000000E+00 0. -1.
         11    1    3    3    0    0  0.19036980136E+00  0.84165149140E+00  0.81121076890E-01  0.86671724598E+00  0.51100000000E-03 0. -1.
        -11    1    3    3    0    0  0.19716364797E+02  0.10474182111E+01  0.60059896714E-01  0.19744258233E+02  0.51100000000E-03 0.  1.
        -12    1    3    3    0    0  0.25025299855E+02 -0.49302083727E+01 -0.11298985411E+01  0.25531338746E+02  0.00000000000E+00 0.  1.
</event>
<event>
 7    1  0.2312612E-008  0.4614232E+02  0.7816164E-02  0.1320468E+00
        -11   -1    0    0    0    0  0.00000000000E+00  0.00000000000E+00  0.45593999997E+02  0.45594000000E+02  0.51100000000E-03 0.  1.
         11   -1    0    0    0    0 -0.00000000000E+00 -0.00000000000E+00 -0.45593999997E+02  0.45594000000E+02  0.51100000000E-03 0. -1.
    9900012    2    1    2    0    0 -0.90546120132E+01  0.44041978044E+02  0.27261115855E+01  0.46142317487E+02  0.99999974964E+01 0.  0.
         12    1    1    2    0    0  0.90546120132E+01 -0.44041978044E+02 -0.27261115855E+01  0.45045682513E+02  0.00000000000E+00 0. -1.
         11    1    3    3    0    0 -0.47748792735E+00  0.22186584097E+01  0.65287301934E+00  0.23615002223E+01  0.51100000000E-03 0. -1.
        -11    1    3    3    0    0 -0.14359889355E+01  0.17360354304E+02 -0.33179976926E+01  0.17732824781E+02  0.51100000000E-03 0.  1.
        -12    1    3    3    0    0 -0.71411351504E+01  0.24462965330E+02  0.53912362587E+01  0.26047992483E+02  0.00000000000E+00 0.  1.
</event>
<event>
 7    1  0.2312612E-008  0.4614232E+02  0.7816164E-02  0.1320468E+00
        -11   -1    0    0    0    0  0.00000000000E+00  0.00000000000E+00  0.45593999997E+02  0.45594000000E+02  0.51100000000E-03 0.  1.
         11   -1    0    0    0    0 -0.00000000000E+00 -0.00000000000E+00 -0.45593999997E+02  0.45594000000E+02  0.51100000000E-03 0. -1.
    9900012    2    1    2    0    0 -0.31099358754E+02 -0.13616667430E+02  0.29606243896E+02  0.46142318471E+02  0.10000006470E+02 0.  0.
         12    1    1    2    0    0  0.31099358754E+02  0.13616667430E+02 -0.29606243896E+02  0.45045681529E+02  0.00000000000E+00 0. -1.
         11    1    3    3    0    0 -0.15392601941E+02 -0.20886329825E+01  0.12437935578E+02  0.19899668941E+02  0.51100000000E-03 0. -1.
        -11    1    3    3    0    0 -0.32907778154E+01 -0.27760607651E+01  0.19033756820E+01  0.47072891615E+01  0.51100000000E-03 0.  1.
        -12    1    3    3    0    0 -0.12415978998E+02 -0.87519736824E+01  0.15264932636E+02  0.21535360368E+02  0.00000000000E+00 0.  1.
</event>
<event>
 7    1  0.2312612E-008  0.4614232E+02  0.7816164E-02  0.1320468E+00
        -11   -1    0    0    0    0  0.00000000000E+00  0.00000000000E+00  0.45593999997E+02  0.45594000000E+02  0.51100000000E-03 0.  1.
         11   -1    0    0    0    0 -0.00000000000E+00 -0.00000000000E+00 -0.45593999997E+02  0.45594000000E+02  0.51100000000E-03 0. -1.
    9900012    2    1    2    0    0 -0.11638942442E+02  0.40236854931E+02 -0.16572387357E+02  0.46142317647E+02  0.99999989596E+01 0.  0.
         12    1    1    2    0    0  0.11638942442E+02 -0.40236854931E+02  0.16572387357E+02  0.45045682353E+02  0.00000000000E+00 0. -1.
         11    1    3    3    0    0 -0.15668444117E+01  0.51474073764E+01 -0.47468768471E+01  0.71752103921E+01  0.51100000000E-03 0. -1.
        -11    1    3    3    0    0 -0.21820666715E+01  0.19529351136E+01 -0.18879375825E+01  0.34842042267E+01  0.51100000000E-03 0.  1.
        -12    1    3    3    0    0 -0.78900313592E+01  0.33136512441E+02 -0.99375729276E+01  0.35482903028E+02  0.00000000000E+00 0.  1.
</event>
<event>
 7    1  0.2312612E-008  0.4614232E+02  0.7816164E-02  0.1320468E+00
        -11   -1    0    0    0    0  0.00000000000E+00  0.00000000000E+00  0.45593999997E+02  0.45594000000E+02  0.51100000000E-03 0.  1.
         11   -1    0    0    0    0 -0.00000000000E+00 -0.00000000000E+00 -0.45593999997E+02  0.45594000000E+02  0.51100000000E-03 0. -1.
    9900012    2    1    2    0    0 -0.27245262836E+02 -0.33411068405E+02  0.13057934762E+02  0.46142317641E+02  0.99999989015E+01 0.  0.
         12    1    1    2    0    0  0.27245262836E+02  0.33411068405E+02 -0.13057934762E+02  0.45045682359E+02  0.00000000000E+00 0. -1.
         11    1    3    3    0    0 -0.96402028408E+01 -0.15303081833E+02  0.48066178941E+01  0.18714203169E+02  0.51100000000E-03 0. -1.
        -11    1    3    3    0    0 -0.44865677616E+01 -0.35300336501E+01  0.49185701165E+01  0.75354336373E+01  0.51100000000E-03 0.  1.
        -12    1    3    3    0    0 -0.13118492233E+02 -0.14577952922E+02  0.33327467512E+01  0.19892680834E+02  0.00000000000E+00 0.  1.
</event>
<event>
 7    1  0.2312612E-008  0.4614232E+02  0.7816164E-02  0.1320468E+00
        -11   -1    0    0    0    0  0.00000000000E+00  0.00000000000E+00  0.45593999997E+02  0.45594000000E+02  0.51100000000E-03 0. -1.
         11   -1    0    0    0    0 -0.00000000000E+00 -0.00000000000E+00 -0.45593999997E+02  0.45594000000E+02  0.51100000000E-03 0.  1.
    9900012    2    1    2    0    0 -0.39657027040E+02  0.15005714294E+02  0.15207307982E+02  0.46142317952E+02  0.10000001742E+02 0.  0.
         12    1    1    2    0    0  0.39657027040E+02 -0.15005714294E+02 -0.15207307982E+02  0.45045682048E+02  0.00000000000E+00 0. -1.
         11    1    3    3    0    0 -0.62502800729E+01  0.39327978914E+01  0.29804435553E+00  0.73906515912E+01  0.51100000000E-03 0. -1.
        -11    1    3    3    0    0 -0.19337558119E+02  0.96640763626E+01  0.94885965498E+01  0.23608663467E+02  0.51100000000E-03 0.  1.
         12    1    3    3    0    0 -0.14069188847E+02  0.14088400399E+01  0.54206670767E+01  0.15143002894E+02  0.00000000000E+00 0. -1.
</event>
<event>
 7    1  0.2312612E-008  0.4614232E+02  0.7816164E-02  0.1320468E+00
        -11   -1    0    0    0    0  0.00000000000E+00  0.00000000000E+00  0.45593999997E+02  0.45594000000E+02  0.51100000000E-03 0.  1.
         11   -1    0    0    0    0 -0.00000000000E+00 -0.00000000000E+00 -0.45593999997E+02  0.45594000000E+02  0.51100000000E-03 0. -1.
    9900012    2    1    2    0    0  0.18097834042E+02  0.13853074981E+02  0.38854525768E+02  0.46142318119E+02  0.10000003265E+02 0.  0.
         12    1    1    2    0    0 -0.18097834042E+02 -0.13853074981E+02 -0.38854525768E+02  0.45045681881E+02  0.00000000000E+00 0. -1.
         11    1    3    3    0    0  0.89383901797E+01  0.72303213382E+01  0.24068382808E+02  0.26673196601E+02  0.51100000000E-03 0.  1.
        -11    1    3    3    0    0  0.47045609387E+01  0.63318200986E+01  0.72718374105E+01  0.10728674614E+02  0.51100000000E-03 0. -1.
         12    1    3    3    0    0  0.44548829233E+01  0.29093354392E+00  0.75143055501E+01  0.87404469044E+01  0.00000000000E+00 0. -1.
</event>
<event>
 7    1  0.2312612E-008  0.4614232E+02  0.7816164E-02  0.1320468E+00
        -11   -1    0    0    0    0  0.00000000000E+00  0.00000000000E+00  0.45593999997E+02  0.45594000000E+02  0.51100000000E-03 0. -1.
         11   -1    0    0    0    0 -0.00000000000E+00 -0.00000000000E+00 -0.45593999997E+02  0.45594000000E+02  0.51100000000E-03 0.  1.
    9900012    2    1    2    0    0 -0.26767248776E+02  0.84485481440E+01 -0.35231377353E+02  0.46142317377E+02  0.99999964937E+01 0.  0.
         12    1    1    2    0    0  0.26767248776E+02 -0.84485481440E+01  0.35231377353E+02  0.45045682623E+02  0.00000000000E+00 0. -1.
         11    1    3    3    0    0 -0.26815270768E+01 -0.74653319194E-01 -0.45541585721E+01  0.52855010304E+01  0.51100000000E-03 0. -1.
        -11    1    3    3    0    0 -0.12702966811E+02  0.74710734088E+00 -0.10934444033E+02  0.16777532648E+02  0.51100000000E-03 0.  1.
        -12    1    3    3    0    0 -0.11382754888E+02  0.77760941223E+01 -0.19742774749E+02  0.24079283698E+02  0.00000000000E+00 0.  1.
</event>
<event>
 7    1  0.2312612E-008  0.4614232E+02  0.7816164E-02  0.1320468E+00
        -11   -1    0    0    0    0  0.00000000000E+00  0.00000000000E+00  0.45593999997E+02  0.45594000000E+02  0.51100000000E-03 0.  1.
         11   -1    0    0    0    0 -0.00000000000E+00 -0.00000000000E+00 -0.45593999997E+02  0.45594000000E+02  0.51100000000E-03 0. -1.
    9900012    2    1    2    0    0  0.41352490322E+01 -0.23283854801E+02  0.38338950410E+02  0.46142319880E+02  0.10000019319E+02 0.  0.
         12    1    1    2    0    0 -0.41352490322E+01  0.23283854801E+02 -0.38338950410E+02  0.45045680120E+02  0.00000000000E+00 0. -1.
         11    1    3    3    0    0  0.11192611402E+01 -0.35198216281E+01  0.30850434787E+01  0.48124196949E+01  0.51100000000E-03 0. -1.
        -11    1    3    3    0    0  0.52682257188E+00 -0.67360805062E+01  0.53561180861E+01  0.86220834965E+01  0.51100000000E-03 0.  1.
        -12    1    3    3    0    0  0.24891653201E+01 -0.13027952667E+02  0.29897788845E+02  0.32707816688E+02  0.00000000000E+00 0.  1.
</event>
<event>
 7    1  0.2312612E-008  0.4614232E+02  0.7816164E-02  0.1320468E+00
        -11   -1    0    0    0    0  0.00000000000E+00  0.00000000000E+00  0.45593999997E+02  0.45594000000E+02  0.51100000000E-03 0.  1.
         11   -1    0    0    0    0 -0.00000000000E+00 -0.00000000000E+00 -0.45593999997E+02  0.45594000000E+02  0.51100000000E-03 0. -1.
    9900012    2    1    2    0    0  0.29020819548E+02  0.25632138048E+02  0.23019534610E+02  0.46142318278E+02  0.10000004716E+02 0.  0.
         12    1    1    2    0    0 -0.29020819548E+02 -0.25632138048E+02 -0.23019534610E+02  0.45045681722E+02  0.00000000000E+00 0. -1.
         11    1    3    3    0    0  0.12008969501E+02  0.11399871997E+02  0.11790818816E+02  0.20327219157E+02  0.51100000000E-03 0. -1.
        -11    1    3    3    0    0  0.16751568176E+02  0.11388059949E+02  0.88782986123E+01  0.22116218760E+02  0.51100000000E-03 0.  1.
         12    1    3    3    0    0  0.26028187118E+00  0.28442061018E+01  0.23504171812E+01  0.36988803614E+01  0.00000000000E+00 0. -1.
</event>
<event>
 7    1  0.2312612E-008  0.4614232E+02  0.7816164E-02  0.1320468E+00
        -11   -1    0    0    0    0  0.00000000000E+00  0.00000000000E+00  0.45593999997E+02  0.45594000000E+02  0.51100000000E-03 0.  1.
         11   -1    0    0    0    0 -0.00000000000E+00 -0.00000000000E+00 -0.45593999997E+02  0.45594000000E+02  0.51100000000E-03 0. -1.
    9900012    2    1    2    0    0 -0.30004640313E+02 -0.71801965132E+01  0.32821940625E+02  0.46142318202E+02  0.10000004021E+02 0.  0.
         12    1    1    2    0    0  0.30004640313E+02  0.71801965132E+01 -0.32821940625E+02  0.45045681798E+02  0.00000000000E+00 0. -1.
         11    1    3    3    0    0 -0.56601350561E+01 -0.32166268514E+01  0.36607075609E+01  0.74689087063E+01  0.51100000000E-03 0. -1.
        -11    1    3    3    0    0 -0.13866863826E+02 -0.49484142523E+01  0.14874892171E+02  0.20929384447E+02  0.51100000000E-03 0.  1.
        -12    1    3    3    0    0 -0.10477641430E+02  0.98484459047E+00  0.14286340893E+02  0.17744025049E+02  0.00000000000E+00 0.  1.
</event>
<event>
 7    1  0.2312612E-008  0.4614232E+02  0.7816164E-02  0.1320468E+00
        -11   -1    0    0    0    0  0.00000000000E+00  0.00000000000E+00  0.45593999997E+02  0.45594000000E+02  0.51100000000E-03 0.  1.
         11   -1    0    0    0    0 -0.00000000000E+00 -0.00000000000E+00 -0.45593999997E+02  0.45594000000E+02  0.51100000000E-03 0. -1.
    9900012    2    1    2    0    0  0.26796865249E+02  0.35850047773E+02 -0.50809105986E+01  0.46142316911E+02  0.99999922439E+01 0.  0.
         12    1    1    2    0    0 -0.26796865249E+02 -0.35850047773E+02  0.50809105986E+01  0.45045683089E+02  0.00000000000E+00 0. -1.
         11    1    3    3    0    0  0.27138876486E+01  0.67490715700E+01 -0.38523540945E+00  0.72844738869E+01  0.51100000000E-03 0. -1.
        -11    1    3    3    0    0  0.13606305996E+02  0.19741011162E+02  0.21124364159E+00  0.23976732652E+02  0.51100000000E-03 0.  1.
         12    1    3    3    0    0  0.10476671604E+02  0.93599650413E+01 -0.49069188307E+01  0.14881110371E+02  0.00000000000E+00 0. -1.
</event>
<event>
 7    1  0.2312612E-008  0.4614232E+02  0.7816164E-02  0.1320468E+00
        -11   -1    0    0    0    0  0.00000000000E+00  0.00000000000E+00  0.45593999997E+02  0.45594000000E+02  0.51100000000E-03 0. -1.
         11   -1    0    0    0    0 -0.00000000000E+00 -0.00000000000E+00 -0.45593999997E+02  0.45594000000E+02  0.51100000000E-03 0.  1.
    9900012    2    1    2    0    0  0.45608325204E+01  0.44704337426E+02  0.31360091305E+01  0.46142317285E+02  0.99999956567E+01 0.  0.
         12    1    1    2    0    0 -0.45608325204E+01 -0.44704337426E+02 -0.31360091305E+01  0.45045682715E+02  0.00000000000E+00 0. -1.
         11    1    3    3    0    0  0.50074691537E+00  0.39916617900E+01 -0.14796492659E+01  0.42864289951E+01  0.51100000000E-03 0. -1.
        -11    1    3    3    0    0  0.35454956731E+01  0.94347211484E+01  0.30676795036E+01  0.10535424078E+02  0.51100000000E-03 0.  1.
         12    1    3    3    0    0  0.51458993192E+00  0.31277954488E+02  0.15479788928E+01  0.31320464211E+02  0.00000000000E+00 0. -1.
</event>
<event>
 7    1  0.2312612E-008  0.4614232E+02  0.7816164E-02  0.1320468E+00
        -11   -1    0    0    0    0  0.00000000000E+00  0.00000000000E+00  0.45593999997E+02  0.45594000000E+02  0.51100000000E-03 0.  1.
         11   -1    0    0    0    0 -0.00000000000E+00 -0.00000000000E+00 -0.45593999997E+02  0.45594000000E+02  0.51100000000E-03 0. -1.
    9900012    2    1    2    0    0  0.15292965002E+02  0.25517642049E+02  0.33824378967E+02  0.46142318222E+02  0.10000004204E+02 0.  0.
         12    1    1    2    0    0 -0.15292965002E+02 -0.25517642049E+02 -0.33824378967E+02  0.45045681778E+02  0.00000000000E+00 0. -1.
         11    1    3    3    0    0  0.37098765444E+01  0.62394170251E+00  0.41887792658E+01  0.56301295919E+01  0.51100000000E-03 0. -1.
        -11    1    3    3    0    0  0.42284340322E+01  0.12150052701E+02  0.14960366741E+02  0.19731092425E+02  0.51100000000E-03 0.  1.
        -12    1    3    3    0    0  0.73546544258E+01  0.12743647646E+02  0.14675232960E+02  0.20781096205E+02  0.00000000000E+00 0.  1.
</event>
<event>
 7    1  0.2312612E-008  0.4614232E+02  0.7816164E-02  0.1320468E+00
        -11   -1    0    0    0    0  0.00000000000E+00  0.00000000000E+00  0.45593999997E+02  0.45594000000E+02  0.51100000000E-03 0.  1.
         11   -1    0    0    0    0 -0.00000000000E+00 -0.00000000000E+00 -0.45593999997E+02  0.45594000000E+02  0.51100000000E-03 0. -1.
    9900012    2    1    2    0    0 -0.25333286158E+02  0.27962395220E+01  0.37141878999E+02  0.46142317425E+02  0.99999969348E+01 0.  0.
         12    1    1    2    0    0  0.25333286158E+02 -0.27962395220E+01 -0.37141878999E+02  0.45045682575E+02  0.00000000000E+00 0. -1.
         11    1    3    3    0    0 -0.45706012558E+01  0.87776092855E+00  0.39996236354E+01  0.61365991863E+01  0.51100000000E-03 0. -1.
        -11    1    3    3    0    0 -0.95475420261E+01  0.43345378420E+01  0.11877071105E+02  0.15843250782E+02  0.51100000000E-03 0.  1.
        -12    1    3    3    0    0 -0.11215142876E+02 -0.24160592486E+01  0.21265184259E+02  0.24162467456E+02  0.00000000000E+00 0.  1.
</event>
<event>
 7    1  0.2312612E-008  0.4614232E+02  0.7816164E-02  0.1320468E+00
        -11   -1    0    0    0    0  0.00000000000E+00  0.00000000000E+00  0.45593999997E+02  0.45594000000E+02  0.51100000000E-03 0.  1.
         11   -1    0    0    0    0 -0.00000000000E+00 -0.00000000000E+00 -0.45593999997E+02  0.45594000000E+02  0.51100000000E-03 0. -1.
    9900012    2    1    2    0    0 -0.53100952595E+01 -0.30557967739E+02  0.32666909767E+02  0.46142317658E+02  0.99999990568E+01 0.  0.
         12    1    1    2    0    0  0.53100952595E+01  0.30557967739E+02 -0.32666909767E+02  0.45045682342E+02  0.00000000000E+00 0. -1.
         11    1    3    3    0    0  0.10318566389E+01 -0.51554294194E+01  0.34864733872E+01  0.63086193071E+01  0.51100000000E-03 0. -1.
        -11    1    3    3    0    0 -0.49785444838E+01 -0.70421313945E+01  0.10764014280E+02  0.13792806946E+02  0.51100000000E-03 0.  1.
        -12    1    3    3    0    0 -0.13634074146E+01 -0.18360406925E+02  0.18416422099E+02  0.26040891405E+02  0.00000000000E+00 0.  1.
</event>
<event>
 7    1  0.2312612E-008  0.4614232E+02  0.7816164E-02  0.1320468E+00
        -11   -1    0    0    0    0  0.00000000000E+00  0.00000000000E+00  0.45593999997E+02  0.45594000000E+02  0.51100000000E-03 0.  1.
         11   -1    0    0    0    0 -0.00000000000E+00 -0.00000000000E+00 -0.45593999997E+02  0.45594000000E+02  0.51100000000E-03 0. -1.
    9900012    2    1    2    0    0 -0.99986380462E+01 -0.21768818552E+01  0.43868005910E+02  0.46142317411E+02  0.99999968048E+01 0.  0.
         12    1    1    2    0    0  0.99986380462E+01  0.21768818552E+01 -0.43868005910E+02  0.45045682589E+02  0.00000000000E+00 0. -1.
         11    1    3    3    0    0  0.93803977604E+00 -0.10762475520E+01  0.12974658997E+02  0.13052969155E+02  0.51100000000E-03 0. -1.
        -11    1    3    3    0    0 -0.34813623817E+00 -0.12104116908E+01  0.29996099574E+01  0.32532991653E+01  0.51100000000E-03 0.  1.
        -12    1    3    3    0    0 -0.10588541584E+02  0.10977738763E+00  0.27893736956E+02  0.29836049090E+02  0.00000000000E+00 0.  1.
</event>
<event>
 7    1  0.2312612E-008  0.4614232E+02  0.7816164E-02  0.1320468E+00
        -11   -1    0    0    0    0  0.00000000000E+00  0.00000000000E+00  0.45593999997E+02  0.45594000000E+02  0.51100000000E-03 0.  1.
         11   -1    0    0    0    0 -0.00000000000E+00 -0.00000000000E+00 -0.45593999997E+02  0.45594000000E+02  0.51100000000E-03 0. -1.
    9900012    2    1    2    0    0  0.96403178592E+00  0.96885589408E+01  0.43980859536E+02  0.46142317220E+02  0.99999950628E+01 0.  0.
         12    1    1    2    0    0 -0.96403178592E+00 -0.96885589408E+01 -0.43980859536E+02  0.45045682780E+02  0.00000000000E+00 0. -1.
         11    1    3    3    0    0 -0.40209503140E+01  0.29841531738E+01  0.18487313151E+02  0.19153432053E+02  0.51100000000E-03 0. -1.
        -11    1    3    3    0    0  0.64290772700E+00  0.29162442107E+01  0.10818047614E+02  0.11222654102E+02  0.51100000000E-03 0.  1.
         12    1    3    3    0    0  0.43420743729E+01  0.37881615564E+01  0.14675498770E+02  0.15766231065E+02  0.00000000000E+00 0. -1.
</event>
<event>
 7    1  0.2312612E-008  0.4614232E+02  0.7816164E-02  0.1320468E+00
        -11   -1    0    0    0    0  0.00000000000E+00  0.00000000000E+00  0.45593999997E+02  0.45594000000E+02  0.51100000000E-03 0.  1.
         11   -1    0    0    0    0 -0.00000000000E+00 -0.00000000000E+00 -0.45593999997E+02  0.45594000000E+02  0.51100000000E-03 0. -1.
    9900012    2    1    2    0    0 -0.23639042734E+02 -0.30861578077E+02 -0.22756806750E+02  0.46142316563E+02  0.99999890783E+01 0.  0.
         12    1    1    2    0    0  0.23639042734E+02  0.30861578077E+02  0.22756806750E+02  0.45045683437E+02  0.00000000000E+00 0. -1.
         11    1    3    3    0    0 -0.27702563870E+01 -0.71299985253E+01 -0.59676983373E+01  0.97017845331E+01  0.51100000000E-03 0. -1.
        -11    1    3    3    0    0 -0.19191242282E+00 -0.25166168506E+01 -0.31481844363E+00  0.25434821927E+01  0.51100000000E-03 0.  1.
        -12    1    3    3    0    0 -0.20676873924E+02 -0.21214962701E+02 -0.16474289969E+02  0.33897049838E+02  0.00000000000E+00 0.  1.
</event>
<event>
 7    1  0.2312612E-008  0.4614231E+02  0.7816164E-02  0.1320468E+00
        -11   -1    0    0    0    0  0.00000000000E+00  0.00000000000E+00  0.45593999997E+02  0.45594000000E+02  0.51100000000E-03 0.  1.
         11   -1    0    0    0    0 -0.00000000000E+00 -0.00000000000E+00 -0.45593999997E+02  0.45594000000E+02  0.51100000000E-03 0. -1.
    9900012    2    1    2    0    0 -0.22515565475E+02  0.13906229076E+02  0.36452438134E+02  0.46142310509E+02  0.99999338713E+01 0.  0.
         12    1    1    2    0    0  0.22515565475E+02 -0.13906229076E+02 -0.36452438134E+02  0.45045689491E+02  0.00000000000E+00 0. -1.
         11    1    3    3    0    0 -0.70455065389E+01  0.51164794020E+01  0.10470142986E+02  0.13617687699E+02  0.51100000000E-03 0. -1.
        -11    1    3    3    0    0 -0.14956356008E+02  0.91435214678E+01  0.20355713423E+02  0.26863574578E+02  0.51100000000E-03 0.  1.
         12    1    3    3    0    0 -0.51370292823E+00 -0.35377179412E+00  0.56265817250E+01  0.56610482323E+01  0.00000000000E+00 0. -1.
</event>
<event>
 7    1  0.2312612E-008  0.4614232E+02  0.7816164E-02  0.1320468E+00
        -11   -1    0    0    0    0  0.00000000000E+00  0.00000000000E+00  0.45593999997E+02  0.45594000000E+02  0.51100000000E-03 0. -1.
         11   -1    0    0    0    0 -0.00000000000E+00 -0.00000000000E+00 -0.45593999997E+02  0.45594000000E+02  0.51100000000E-03 0.  1.
    9900012    2    1    2    0    0  0.26731143582E+02 -0.36153122495E+02 -0.27406726737E+01  0.46142316633E+02  0.99999897108E+01 0.  0.
         12    1    1    2    0    0 -0.26731143582E+02  0.36153122495E+02  0.27406726737E+01  0.45045683367E+02  0.00000000000E+00 0. -1.
         11    1    3    3    0    0 -0.14929796079E+00  0.71579189425E-01 -0.40450155287E+00  0.43707577015E+00  0.51100000000E-03 0. -1.
        -11    1    3    3    0    0  0.43923818444E+01 -0.57370634262E+01 -0.29794518668E+01  0.78156284911E+01  0.51100000000E-03 0.  1.
         12    1    3    3    0    0  0.22488059698E+02 -0.30487638258E+02  0.64328074600E+00  0.37889612371E+02  0.00000000000E+00 0. -1.
</event>
<event>
 7    1  0.2312612E-008  0.4614232E+02  0.7816164E-02  0.1320468E+00
        -11   -1    0    0    0    0  0.00000000000E+00  0.00000000000E+00  0.45593999997E+02  0.45594000000E+02  0.51100000000E-03 0.  1.
         11   -1    0    0    0    0 -0.00000000000E+00 -0.00000000000E+00 -0.45593999997E+02  0.45594000000E+02  0.51100000000E-03 0. -1.
    9900012    2    1    2    0    0 -0.94846282590E+01 -0.36964359557E+02  0.23933061223E+02  0.46142317963E+02  0.10000001842E+02 0.  0.
         12    1    1    2    0    0  0.94846282590E+01  0.36964359557E+02 -0.23933061223E+02  0.45045682037E+02  0.00000000000E+00 0. -1.
         11    1    3    3    0    0  0.15290806728E+01 -0.60248774992E+01  0.22471051759E+01  0.66095929161E+01  0.51100000000E-03 0. -1.
        -11    1    3    3    0    0 -0.65928542985E+01 -0.23367001155E+02  0.15595438939E+02  0.28856544955E+02  0.51100000000E-03 0.  1.
         12    1    3    3    0    0 -0.44208546333E+01 -0.75724809026E+01  0.60905171090E+01  0.10676180092E+02  0.00000000000E+00 0. -1.
</event>
<event>
 7    1  0.2312612E-008  0.4614232E+02  0.7816164E-02  0.1320468E+00
        -11   -1    0    0    0    0  0.00000000000E+00  0.00000000000E+00  0.45593999997E+02  0.45594000000E+02  0.51100000000E-03 0.  1.
         11   -1    0    0    0    0 -0.00000000000E+00 -0.00000000000E+00 -0.45593999997E+02  0.45594000000E+02  0.51100000000E-03 0. -1.
    9900012    2    1    2    0    0 -0.15328971525E+02  0.17979875407E+02  0.38351798045E+02  0.46142315401E+02  0.99999784795E+01 0.  0.
         12    1    1    2    0    0  0.15328971525E+02 -0.17979875407E+02 -0.38351798045E+02  0.45045684599E+02  0.00000000000E+00 0. -1.
         11    1    3    3    0    0 -0.15364983208E+01  0.20306989529E+01  0.54726740749E+01  0.60361185474E+01  0.51100000000E-03 0. -1.
        -11    1    3    3    0    0 -0.76684780001E+01  0.10486877683E+02  0.27149511412E+02  0.30097776139E+02  0.51100000000E-03 0.  1.
        -12    1    3    3    0    0 -0.61239952040E+01  0.54622987708E+01  0.57296125590E+01  0.10008420714E+02  0.00000000000E+00 0.  1.
</event>
<event>
 7    1  0.2312612E-008  0.4614232E+02  0.7816164E-02  0.1320468E+00
        -11   -1    0    0    0    0  0.00000000000E+00  0.00000000000E+00  0.45593999997E+02  0.45594000000E+02  0.51100000000E-03 0.  1.
         11   -1    0    0    0    0 -0.00000000000E+00 -0.00000000000E+00 -0.45593999997E+02  0.45594000000E+02  0.51100000000E-03 0. -1.
    9900012    2    1    2    0    0 -0.12254697417E+02 -0.37776502758E+02  0.21257274548E+02  0.46142317736E+02  0.99999997720E+01 0.  0.
         12    1    1    2    0    0  0.12254697417E+02  0.37776502758E+02 -0.21257274548E+02  0.45045682264E+02  0.00000000000E+00 0. -1.
         11    1    3    3    0    0 -0.17138187332E+01 -0.67208319599E+00 -0.14117157837E+00  0.18462936247E+01  0.51100000000E-03 0. -1.
        -11    1    3    3    0    0 -0.98938594745E+01 -0.28910450733E+02  0.17240337043E+02  0.35084638213E+02  0.51100000000E-03 0.  1.
         12    1    3    3    0    0 -0.64701920903E+00 -0.81939688293E+01  0.41581090831E+01  0.92113858989E+01  0.00000000000E+00 0. -1.
</event>
<event>
 7    1  0.2312612E-008  0.4614232E+02  0.7816164E-02  0.1320468E+00
        -11   -1    0    0    0    0  0.00000000000E+00  0.00000000000E+00  0.45593999997E+02  0.45594000000E+02  0.51100000000E-03 0. -1.
         11   -1    0    0    0    0 -0.00000000000E+00 -0.00000000000E+00 -0.45593999997E+02  0.45594000000E+02  0.51100000000E-03 0.  1.
    9900012    2    1    2    0    0  0.95093773230E+01 -0.42793176922E+02 -0.10364810247E+02  0.46142317192E+02  0.99999948100E+01 0.  0.
         12    1    1    2    0    0 -0.95093773230E+01  0.42793176922E+02  0.10364810247E+02  0.45045682808E+02  0.00000000000E+00 0. -1.
         11    1    3    3    0    0  0.32254244824E+01 -0.76742980185E+01 -0.24252307261E+01  0.86706376643E+01  0.51100000000E-03 0. -1.
        -11    1    3    3    0    0  0.36547576400E+00  0.15231812031E+00 -0.95213175829E+00  0.10311782048E+01  0.51100000000E-03 0.  1.
        -12    1    3    3    0    0  0.59184770766E+01 -0.35271197024E+02 -0.69874477628E+01  0.36440501323E+02  0.00000000000E+00 0.  1.
</event>
<event>
 7    1  0.2312612E-008  0.4614232E+02  0.7816164E-02  0.1320468E+00
        -11   -1    0    0    0    0  0.00000000000E+00  0.00000000000E+00  0.45593999997E+02  0.45594000000E+02  0.51100000000E-03 0.  1.
         11   -1    0    0    0    0 -0.00000000000E+00 -0.00000000000E+00 -0.45593999997E+02  0.45594000000E+02  0.51100000000E-03 0. -1.
    9900012    2    1    2    0    0  0.19860858731E+02 -0.38684007233E+02 -0.11756167374E+02  0.46142316562E+02  0.99999890614E+01 0.  0.
         12    1    1    2    0    0 -0.19860858731E+02  0.38684007233E+02  0.11756167374E+02  0.45045683438E+02  0.00000000000E+00 0. -1.
         11    1    3    3    0    0  0.50987061639E+01 -0.57431297393E+01 -0.29039230559E+01  0.82105488930E+01  0.51100000000E-03 0. -1.
        -11    1    3    3    0    0  0.13897769449E+02 -0.32592147990E+02 -0.73842430779E+01  0.36192860516E+02  0.51100000000E-03 0.  1.
         12    1    3    3    0    0  0.86438311876E+00 -0.34872950292E+00 -0.14680012402E+01  0.17389071521E+01  0.00000000000E+00 0. -1.
</event>
<event>
 7    1  0.2312612E-008  0.4614232E+02  0.7816164E-02  0.1320468E+00
        -11   -1    0    0    0    0  0.00000000000E+00  0.00000000000E+00  0.45593999997E+02  0.45594000000E+02  0.51100000000E-03 0.  1.
         11   -1    0    0    0    0 -0.00000000000E+00 -0.00000000000E+00 -0.45593999997E+02  0.45594000000E+02  0.51100000000E-03 0. -1.
    9900012    2    1    2    0    0 -0.36527204396E+02  0.24807954713E+02  0.89130289687E+01  0.46142319148E+02  0.10000012648E+02 0.  0.
         12    1    1    2    0    0  0.36527204396E+02 -0.24807954713E+02 -0.89130289687E+01  0.45045680852E+02  0.00000000000E+00 0. -1.
         11    1    3    3    0    0 -0.13355980196E+01  0.25158808371E+01  0.15962620487E+01  0.32652000315E+01  0.51100000000E-03 0. -1.
        -11    1    3    3    0    0 -0.32597154963E+02  0.19636362619E+02  0.84768635209E+01  0.38987414175E+02  0.51100000000E-03 0.  1.
        -12    1    3    3    0    0 -0.25944514130E+01  0.26557112562E+01 -0.11600966009E+01  0.38897049417E+01  0.00000000000E+00 0.  1.
</event>
<event>
 7    1  0.2312612E-008  0.4614232E+02  0.7816164E-02  0.1320468E+00
        -11   -1    0    0    0    0  0.00000000000E+00  0.00000000000E+00  0.45593999997E+02  0.45594000000E+02  0.51100000000E-03 0. -1.
         11   -1    0    0    0    0 -0.00000000000E+00 -0.00000000000E+00 -0.45593999997E+02  0.45594000000E+02  0.51100000000E-03 0.  1.
    9900012    2    1    2    0    0 -0.36299672486E+02 -0.16656184428E+02 -0.20833122420E+02  0.46142315500E+02  0.99999793841E+01 0.  0.
         12    1    1    2    0    0  0.36299672486E+02  0.16656184428E+02  0.20833122420E+02  0.45045684500E+02  0.00000000000E+00 0. -1.
         11    1    3    3    0    0 -0.25169977039E+01 -0.31707039620E+01 -0.15482341531E+01  0.43342439145E+01  0.51100000000E-03 0. -1.
        -11    1    3    3    0    0 -0.12806725544E+02 -0.35114238472E+01 -0.35243882868E+01  0.13739127689E+02  0.51100000000E-03 0.  1.
        -12    1    3    3    0    0 -0.20975949238E+02 -0.99740566191E+01 -0.15760499980E+02  0.28068943897E+02  0.00000000000E+00 0.  1.
</event>
<event>
 7    1  0.2312612E-008  0.4614232E+02  0.7816164E-02  0.1320468E+00
        -11   -1    0    0    0    0  0.00000000000E+00  0.00000000000E+00  0.45593999997E+02  0.45594000000E+02  0.51100000000E-03 0. -1.
         11   -1    0    0    0    0 -0.00000000000E+00 -0.00000000000E+00 -0.45593999997E+02  0.45594000000E+02  0.51100000000E-03 0.  1.
    9900012    2    1    2    0    0  0.44885090405E+02 -0.35466689980E+01 -0.13650266545E+01  0.46142317638E+02  0.99999988806E+01 0.  0.
         12    1    1    2    0    0 -0.44885090405E+02  0.35466689980E+01  0.13650266545E+01  0.45045682362E+02  0.00000000000E+00 0. -1.
         11    1    3    3    0    0  0.11993546130E+02 -0.83495943527E+00 -0.29955590200E+01  0.12390144476E+02  0.51100000000E-03 0. -1.
        -11    1    3    3    0    0  0.31701025669E+02 -0.37965863199E+01  0.79450010530E+00  0.31937443962E+02  0.51100000000E-03 0.  1.
        -12    1    3    3    0    0  0.11905186054E+01  0.10848767571E+01  0.83603226020E+00  0.18147291996E+01  0.00000000000E+00 0.  1.
</event>
<event>
 7    1  0.2312612E-008  0.4614232E+02  0.7816164E-02  0.1320468E+00
        -11   -1    0    0    0    0  0.00000000000E+00  0.00000000000E+00  0.45593999997E+02  0.45594000000E+02  0.51100000000E-03 0.  1.
         11   -1    0    0    0    0 -0.00000000000E+00 -0.00000000000E+00 -0.45593999997E+02  0.45594000000E+02  0.51100000000E-03 0. -1.
    9900012    2    1    2    0    0 -0.83176565905E+01  0.27227745787E+02  0.34908164494E+02  0.46142317630E+02  0.99999988070E+01 0.  0.
         12    1    1    2    0    0  0.83176565905E+01 -0.27227745787E+02 -0.34908164494E+02  0.45045682370E+02  0.00000000000E+00 0. -1.
         11    1    3    3    0    0 -0.18817061807E+01  0.11994361801E+01  0.77228218848E+00  0.23613312644E+01  0.51100000000E-03 0. -1.
        -11    1    3    3    0    0 -0.42940167114E+01  0.11714739189E+02  0.19845784177E+02  0.23442031559E+02  0.51100000000E-03 0.  1.
        -12    1    3    3    0    0 -0.21419336984E+01  0.14313570418E+02  0.14290098129E+02  0.20338954807E+02  0.00000000000E+00 0.  1.
</event>
<event>
 7    1  0.2312612E-008  0.4614232E+02  0.7816164E-02  0.1320468E+00
        -11   -1    0    0    0    0  0.00000000000E+00  0.00000000000E+00  0.45593999997E+02  0.45594000000E+02  0.51100000000E-03 0. -1.
         11   -1    0    0    0    0 -0.00000000000E+00 -0.00000000000E+00 -0.45593999997E+02  0.45594000000E+02  0.51100000000E-03 0.  1.
    9900012    2    1    2    0    0 -0.21374596414E+02 -0.39259797334E+02 -0.55594816132E+01  0.46142324354E+02  0.10000060119E+02 0.  0.
         12    1    1    2    0    0  0.21374596414E+02  0.39259797334E+02  0.55594816132E+01  0.45045675646E+02  0.00000000000E+00 0. -1.
         11    1    3    3    0    0 -0.61293503417E+01 -0.12763961040E+02 -0.60008385079E+01  0.15378481723E+02  0.51100000000E-03 0. -1.
        -11    1    3    3    0    0 -0.12469659002E+01 -0.26765677623E+01  0.10363820578E+01  0.31293812444E+01  0.51100000000E-03 0.  1.
        -12    1    3    3    0    0 -0.13998280172E+02 -0.23819268532E+02 -0.59502516306E+00  0.27634461387E+02  0.00000000000E+00 0.  1.
</event>
<event>
 7    1  0.2312612E-008  0.4614232E+02  0.7816164E-02  0.1320468E+00
        -11   -1    0    0    0    0  0.00000000000E+00  0.00000000000E+00  0.45593999997E+02  0.45594000000E+02  0.51100000000E-03 0.  1.
         11   -1    0    0    0    0 -0.00000000000E+00 -0.00000000000E+00 -0.45593999997E+02  0.45594000000E+02  0.51100000000E-03 0. -1.
    9900012    2    1    2    0    0 -0.20845058362E+02  0.33069182285E+02  0.22383618146E+02  0.46142316118E+02  0.99999850128E+01 0.  0.
         12    1    1    2    0    0  0.20845058362E+02 -0.33069182285E+02 -0.22383618146E+02  0.45045683882E+02  0.00000000000E+00 0. -1.
         11    1    3    3    0    0 -0.64019054880E+01  0.15471253039E+02  0.12262401965E+02  0.20753567565E+02  0.51100000000E-03 0.  1.
        -11    1    3    3    0    0 -0.22160314981E+01  0.48554798356E+01  0.72970568206E+00  0.53869240460E+01  0.51100000000E-03 0. -1.
        -12    1    3    3    0    0 -0.12227121376E+02  0.12742449411E+02  0.93915104991E+01  0.20001824506E+02  0.00000000000E+00 0.  1.
</event>
<event>
 7    1  0.2312612E-008  0.4614232E+02  0.7816164E-02  0.1320468E+00
        -11   -1    0    0    0    0  0.00000000000E+00  0.00000000000E+00  0.45593999997E+02  0.45594000000E+02  0.51100000000E-03 0.  1.
         11   -1    0    0    0    0 -0.00000000000E+00 -0.00000000000E+00 -0.45593999997E+02  0.45594000000E+02  0.51100000000E-03 0. -1.
    9900012    2    1    2    0    0  0.88952177541E+01 -0.82872675080E+01  0.43374069191E+02  0.46142316746E+02  0.99999907421E+01 0.  0.
         12    1    1    2    0    0 -0.88952177541E+01  0.82872675080E+01 -0.43374069191E+02  0.45045683254E+02  0.00000000000E+00 0. -1.
         11    1    3    3    0    0 -0.44909115505E+00  0.11481966955E+01  0.24886878618E+01  0.27773379433E+01  0.51100000000E-03 0. -1.
        -11    1    3    3    0    0  0.10441240281E+01 -0.35598859653E+01  0.17083627342E+02  0.17481799292E+02  0.51100000000E-03 0.  1.
        -12    1    3    3    0    0  0.83001848810E+01 -0.58755782382E+01  0.23801753988E+02  0.25883179511E+02  0.00000000000E+00 0.  1.
</event>
<event>
 7    1  0.2312612E-008  0.4614232E+02  0.7816164E-02  0.1320468E+00
        -11   -1    0    0    0    0  0.00000000000E+00  0.00000000000E+00  0.45593999997E+02  0.45594000000E+02  0.51100000000E-03 0.  1.
         11   -1    0    0    0    0 -0.00000000000E+00 -0.00000000000E+00 -0.45593999997E+02  0.45594000000E+02  0.51100000000E-03 0. -1.
    9900012    2    1    2    0    0  0.21694422197E+02 -0.11652266006E+02  0.37718565844E+02  0.46142318000E+02  0.10000002178E+02 0.  0.
         12    1    1    2    0    0 -0.21694422197E+02  0.11652266006E+02 -0.37718565844E+02  0.45045682000E+02  0.00000000000E+00 0. -1.
         11    1    3    3    0    0  0.61307508090E-01 -0.16947104545E+01  0.71085006458E+01  0.73079808311E+01  0.51100000000E-03 0. -1.
        -11    1    3    3    0    0  0.32599119213E+01 -0.20902401481E+01  0.41819932583E+01  0.56995787112E+01  0.51100000000E-03 0.  1.
         12    1    3    3    0    0  0.18373202768E+02 -0.78673154039E+01  0.26428071940E+02  0.33134758458E+02  0.00000000000E+00 0. -1.
</event>
<event>
 7    1  0.2312612E-008  0.4614232E+02  0.7816164E-02  0.1320468E+00
        -11   -1    0    0    0    0  0.00000000000E+00  0.00000000000E+00  0.45593999997E+02  0.45594000000E+02  0.51100000000E-03 0. -1.
         11   -1    0    0    0    0 -0.00000000000E+00 -0.00000000000E+00 -0.45593999997E+02  0.45594000000E+02  0.51100000000E-03 0.  1.
    9900012    2    1    2    0    0  0.28998519934E+02  0.30593086006E+02 -0.15882774658E+02  0.46142316515E+02  0.99999886396E+01 0.  0.
         12    1    1    2    0    0 -0.28998519934E+02 -0.30593086006E+02  0.15882774658E+02  0.45045683485E+02  0.00000000000E+00 0. -1.
         11    1    3    3    0    0  0.77658348386E+01  0.49693998916E+01 -0.24330004692E+01  0.95353352101E+01  0.51100000000E-03 0. -1.
        -11    1    3    3    0    0  0.21631484994E+02  0.25700672148E+02 -0.13053164223E+02  0.36039295060E+02  0.51100000000E-03 0.  1.
         12    1    3    3    0    0 -0.39879989835E+00 -0.76986033701E-01 -0.39660996535E+00  0.56768624514E+00  0.00000000000E+00 0. -1.
</event>
<event>
 7    1  0.2312612E-008  0.4614232E+02  0.7816164E-02  0.1320468E+00
        -11   -1    0    0    0    0  0.00000000000E+00  0.00000000000E+00  0.45593999997E+02  0.45594000000E+02  0.51100000000E-03 0. -1.
         11   -1    0    0    0    0 -0.00000000000E+00 -0.00000000000E+00 -0.45593999997E+02  0.45594000000E+02  0.51100000000E-03 0.  1.
    9900012    2    1    2    0    0  0.36010527600E+02  0.26090066852E+02 -0.71877528824E+01  0.46142317878E+02  0.10000001069E+02 0.  0.
         12    1    1    2    0    0 -0.36010527600E+02 -0.26090066852E+02  0.71877528824E+01  0.45045682122E+02  0.00000000000E+00 0. -1.
         11    1    3    3    0    0  0.18547257278E+02  0.15934329766E+02 -0.49675942744E+01  0.24951565297E+02  0.51100000000E-03 0. -1.
        -11    1    3    3    0    0  0.83541588081E+01  0.36201914467E+01 -0.38054721608E+01  0.98680988102E+01  0.51100000000E-03 0.  1.
         12    1    3    3    0    0  0.91091115134E+01  0.65355456391E+01  0.15853135528E+01  0.11322653771E+02  0.00000000000E+00 0. -1.
</event>
<event>
 7    1  0.2312612E-008  0.4614232E+02  0.7816164E-02  0.1320468E+00
        -11   -1    0    0    0    0  0.00000000000E+00  0.00000000000E+00  0.45593999997E+02  0.45594000000E+02  0.51100000000E-03 0.  1.
         11   -1    0    0    0    0 -0.00000000000E+00 -0.00000000000E+00 -0.45593999997E+02  0.45594000000E+02  0.51100000000E-03 0. -1.
    9900012    2    1    2    0    0  0.44122392575E+02 -0.78548148777E+01  0.45420067933E+01  0.46142317976E+02  0.10000001960E+02 0.  0.
         12    1    1    2    0    0 -0.44122392575E+02  0.78548148777E+01 -0.45420067933E+01  0.45045682024E+02  0.00000000000E+00 0. -1.
         11    1    3    3    0    0  0.31854765394E+02 -0.43180500969E+01  0.49784827615E+01  0.32529324091E+02  0.51100000000E-03 0. -1.
        -11    1    3    3    0    0  0.12569881000E+02 -0.37732804470E+01 -0.13458698996E+00  0.13124696858E+02  0.51100000000E-03 0.  1.
         12    1    3    3    0    0 -0.30225381931E+00  0.23651566621E+00 -0.30188897822E+00  0.48829702725E+00  0.00000000000E+00 0. -1.
</event>
<event>
 7    1  0.2312612E-008  0.4614232E+02  0.7816164E-02  0.1320468E+00
        -11   -1    0    0    0    0  0.00000000000E+00  0.00000000000E+00  0.45593999997E+02  0.45594000000E+02  0.51100000000E-03 0. -1.
         11   -1    0    0    0    0 -0.00000000000E+00 -0.00000000000E+00 -0.45593999997E+02  0.45594000000E+02  0.51100000000E-03 0.  1.
    9900012    2    1    2    0    0 -0.35001710685E+02 -0.47206222776E+01 -0.27959064213E+02  0.46142319883E+02  0.10000019346E+02 0.  0.
         12    1    1    2    0    0  0.35001710685E+02  0.47206222776E+01  0.27959064213E+02  0.45045680117E+02  0.00000000000E+00 0. -1.
         11    1    3    3    0    0 -0.23880566058E+01 -0.11812329904E+01  0.86228874830E-01  0.26656258946E+01  0.51100000000E-03 0. -1.
        -11    1    3    3    0    0 -0.17438827537E+02 -0.37695661769E+01 -0.12745477487E+02  0.21926457344E+02  0.51100000000E-03 0.  1.
         12    1    3    3    0    0 -0.15174826542E+02  0.23017688979E+00 -0.15299815601E+02  0.21550236644E+02  0.00000000000E+00 0. -1.
</event>
<event>
 7    1  0.2312612E-008  0.4614232E+02  0.7816164E-02  0.1320468E+00
        -11   -1    0    0    0    0  0.00000000000E+00  0.00000000000E+00  0.45593999997E+02  0.45594000000E+02  0.51100000000E-03 0.  1.
         11   -1    0    0    0    0 -0.00000000000E+00 -0.00000000000E+00 -0.45593999997E+02  0.45594000000E+02  0.51100000000E-03 0. -1.
    9900012    2    1    2    0    0  0.15741838465E+02 -0.21620539742E+02  0.36247209581E+02  0.46142318527E+02  0.10000006980E+02 0.  0.
         12    1    1    2    0    0 -0.15741838465E+02  0.21620539742E+02 -0.36247209581E+02  0.45045681473E+02  0.00000000000E+00 0. -1.
         11    1    3    3    0    0  0.64392000372E+01 -0.46639018130E+01  0.52863448965E+01  0.95478123079E+01  0.51100000000E-03 0. -1.
        -11    1    3    3    0    0  0.74027675452E+01 -0.11362601945E+02  0.20473013825E+02  0.24557157523E+02  0.51100000000E-03 0.  1.
        -12    1    3    3    0    0  0.18998708830E+01 -0.55940359842E+01  0.10487850859E+02  0.12037348695E+02  0.00000000000E+00 0.  1.
</event>
<event>
 7    1  0.2312612E-008  0.4614232E+02  0.7816164E-02  0.1320468E+00
        -11   -1    0    0    0    0  0.00000000000E+00  0.00000000000E+00  0.45593999997E+02  0.45594000000E+02  0.51100000000E-03 0.  1.
         11   -1    0    0    0    0 -0.00000000000E+00 -0.00000000000E+00 -0.45593999997E+02  0.45594000000E+02  0.51100000000E-03 0. -1.
    9900012    2    1    2    0    0  0.35101643235E+02  0.11374723511E+02  0.25838030508E+02  0.46142317484E+02  0.99999974752E+01 0.  0.
         12    1    1    2    0    0 -0.35101643235E+02 -0.11374723511E+02 -0.25838030508E+02  0.45045682516E+02  0.00000000000E+00 0. -1.
         11    1    3    3    0    0  0.11658841024E+01 -0.66061344490E+00 -0.20866721369E+00  0.13561851389E+01  0.51100000000E-03 0.  1.
        -11    1    3    3    0    0  0.22023647643E+02  0.61240082998E+01  0.13762315770E+02  0.26682313782E+02  0.51100000000E-03 0. -1.
        -12    1    3    3    0    0  0.11912111490E+02  0.59113286560E+01  0.12284381952E+02  0.18103818563E+02  0.00000000000E+00 0.  1.
</event>
<event>
 7    1  0.2312612E-008  0.4614232E+02  0.7816164E-02  0.1320468E+00
        -11   -1    0    0    0    0  0.00000000000E+00  0.00000000000E+00  0.45593999997E+02  0.45594000000E+02  0.51100000000E-03 0.  1.
         11   -1    0    0    0    0 -0.00000000000E+00 -0.00000000000E+00 -0.45593999997E+02  0.45594000000E+02  0.51100000000E-03 0. -1.
    9900012    2    1    2    0    0 -0.56752013093E+01 -0.43218575696E+02  0.11360468137E+02  0.46142318394E+02  0.10000005768E+02 0.  0.
         12    1    1    2    0    0  0.56752013093E+01  0.43218575696E+02 -0.11360468137E+02  0.45045681606E+02  0.00000000000E+00 0. -1.
         11    1    3    3    0    0 -0.47534701778E+00 -0.97289478184E+01  0.58338054099E+01  0.11353927350E+02  0.51100000000E-03 0. -1.
        -11    1    3    3    0    0  0.90439033730E-01 -0.75615653522E+00  0.10972525678E+01  0.13356329523E+01  0.51100000000E-03 0.  1.
         12    1    3    3    0    0 -0.52902933253E+01 -0.32733471342E+02  0.44294101595E+01  0.33452758092E+02  0.00000000000E+00 0. -1.
</event>
<event>
 7    1  0.2312612E-008  0.4614232E+02  0.7816164E-02  0.1320468E+00
        -11   -1    0    0    0    0  0.00000000000E+00  0.00000000000E+00  0.45593999997E+02  0.45594000000E+02  0.51100000000E-03 0.  1.
         11   -1    0    0    0    0 -0.00000000000E+00 -0.00000000000E+00 -0.45593999997E+02  0.45594000000E+02  0.51100000000E-03 0. -1.
    9900012    2    1    2    0    0 -0.44484758232E+02 -0.69743483010E+01 -0.12562690284E+01  0.46142318064E+02  0.10000002761E+02 0.  0.
         12    1    1    2    0    0  0.44484758232E+02  0.69743483010E+01  0.12562690284E+01  0.45045681936E+02  0.00000000000E+00 0. -1.
         11    1    3    3    0    0 -0.68724335609E+01 -0.15578380044E+01  0.28397358838E+01  0.75974536818E+01  0.51100000000E-03 0. -1.
        -11    1    3    3    0    0 -0.45198861960E+01 -0.22571951073E+01 -0.13178995785E-01  0.50521752665E+01  0.51100000000E-03 0.  1.
         12    1    3    3    0    0 -0.33092438476E+02 -0.31593151893E+01 -0.40828259164E+01  0.33492689116E+02  0.00000000000E+00 0. -1.
</event>
<event>
 7    1  0.2312612E-008  0.4614232E+02  0.7816164E-02  0.1320468E+00
        -11   -1    0    0    0    0  0.00000000000E+00  0.00000000000E+00  0.45593999997E+02  0.45594000000E+02  0.51100000000E-03 0.  1.
         11   -1    0    0    0    0 -0.00000000000E+00 -0.00000000000E+00 -0.45593999997E+02  0.45594000000E+02  0.51100000000E-03 0. -1.
    9900012    2    1    2    0    0 -0.29907776115E+02 -0.21107786946E+02  0.26250710716E+02  0.46142317021E+02  0.99999932550E+01 0.  0.
         12    1    1    2    0    0  0.29907776115E+02  0.21107786946E+02 -0.26250710716E+02  0.45045682979E+02  0.00000000000E+00 0. -1.
         11    1    3    3    0    0 -0.11114277200E+02 -0.55237078159E+01  0.97451028118E+01  0.15779909214E+02  0.51100000000E-03 0. -1.
        -11    1    3    3    0    0 -0.37556643518E+01 -0.38513646261E+01  0.76031038997E+01  0.93137110422E+01  0.51100000000E-03 0.  1.
        -12    1    3    3    0    0 -0.15037834563E+02 -0.11732714504E+02  0.89025040046E+01  0.21048696765E+02  0.00000000000E+00 0.  1.
</event>
<event>
 7    1  0.2312612E-008  0.4614232E+02  0.7816164E-02  0.1320468E+00
        -11   -1    0    0    0    0  0.00000000000E+00  0.00000000000E+00  0.45593999997E+02  0.45594000000E+02  0.51100000000E-03 0. -1.
         11   -1    0    0    0    0 -0.00000000000E+00 -0.00000000000E+00 -0.45593999997E+02  0.45594000000E+02  0.51100000000E-03 0.  1.
    9900012    2    1    2    0    0  0.29289735279E+02 -0.72918110429E+01 -0.33437320409E+02  0.46142317664E+02  0.99999991128E+01 0.  0.
         12    1    1    2    0    0 -0.29289735279E+02  0.72918110429E+01  0.33437320409E+02  0.45045682336E+02  0.00000000000E+00 0. -1.
         11    1    3    3    0    0  0.14899619718E+02 -0.31771184103E+01 -0.13205281799E+02  0.20161156137E+02  0.51100000000E-03 0.  1.
        -11    1    3    3    0    0  0.13315563428E+02 -0.40335332128E+01 -0.20586205943E+02  0.24846840744E+02  0.51100000000E-03 0. -1.
         12    1    3    3    0    0  0.10745521329E+01 -0.81159419843E-01  0.35416733293E+00  0.11343207824E+01  0.00000000000E+00 0. -1.
</event>
<event>
 7    1  0.2312612E-008  0.4614232E+02  0.7816164E-02  0.1320468E+00
        -11   -1    0    0    0    0  0.00000000000E+00  0.00000000000E+00  0.45593999997E+02  0.45594000000E+02  0.51100000000E-03 0. -1.
         11   -1    0    0    0    0 -0.00000000000E+00 -0.00000000000E+00 -0.45593999997E+02  0.45594000000E+02  0.51100000000E-03 0.  1.
    9900012    2    1    2    0    0 -0.33867007517E+02  0.12292632885E+02 -0.27037575479E+02  0.46142317530E+02  0.99999978920E+01 0.  0.
         12    1    1    2    0    0  0.33867007517E+02 -0.12292632885E+02  0.27037575479E+02  0.45045682470E+02  0.00000000000E+00 0. -1.
         11    1    3    3    0    0 -0.37528473749E+01  0.19615988569E+01 -0.17132469100E+01  0.45680355439E+01  0.51100000000E-03 0. -1.
        -11    1    3    3    0    0 -0.56109453972E+01  0.37879145401E+01 -0.18546416769E+01  0.70193091415E+01  0.51100000000E-03 0.  1.
        -12    1    3    3    0    0 -0.24503214745E+02  0.65431194884E+01 -0.23469686892E+02  0.34554972845E+02  0.00000000000E+00 0.  1.
</event>
<event>
 7    1  0.2312612E-008  0.4614232E+02  0.7816164E-02  0.1320468E+00
        -11   -1    0    0    0    0  0.00000000000E+00  0.00000000000E+00  0.45593999997E+02  0.45594000000E+02  0.51100000000E-03 0.  1.
         11   -1    0    0    0    0 -0.00000000000E+00 -0.00000000000E+00 -0.45593999997E+02  0.45594000000E+02  0.51100000000E-03 0. -1.
    9900012    2    1    2    0    0 -0.35278550139E+02  0.79471569254E+01  0.26858519921E+02  0.46142317682E+02  0.99999992803E+01 0.  0.
         12    1    1    2    0    0  0.35278550139E+02 -0.79471569254E+01 -0.26858519921E+02  0.45045682318E+02  0.00000000000E+00 0. -1.
         11    1    3    3    0    0 -0.13938555941E+02  0.49884376883E+01  0.15810430219E+02  0.21659583473E+02  0.51100000000E-03 0. -1.
        -11    1    3    3    0    0 -0.43613274734E+01 -0.17251636919E+00  0.36886870628E+01  0.57146611217E+01  0.51100000000E-03 0.  1.
         12    1    3    3    0    0 -0.16978666725E+02  0.31312356063E+01  0.73594026395E+01  0.18768073087E+02  0.00000000000E+00 0. -1.
</event>
<event>
 7    1  0.2312612E-008  0.4614232E+02  0.7816164E-02  0.1320468E+00
        -11   -1    0    0    0    0  0.00000000000E+00  0.00000000000E+00  0.45593999997E+02  0.45594000000E+02  0.51100000000E-03 0.  1.
         11   -1    0    0    0    0 -0.00000000000E+00 -0.00000000000E+00 -0.45593999997E+02  0.45594000000E+02  0.51100000000E-03 0. -1.
    9900012    2    1    2    0    0  0.34507564880E+02 -0.20874211701E+02  0.20065112598E+02  0.46142317724E+02  0.99999996655E+01 0.  0.
         12    1    1    2    0    0 -0.34507564880E+02  0.20874211701E+02 -0.20065112598E+02  0.45045682276E+02  0.00000000000E+00 0. -1.
         11    1    3    3    0    0  0.96584771324E+00 -0.19895272498E+00 -0.26149706964E+00  0.10202082976E+01  0.51100000000E-03 0. -1.
        -11    1    3    3    0    0  0.87408856286E+01 -0.99861579395E+01  0.63065800113E+01  0.14693515021E+02  0.51100000000E-03 0.  1.
        -12    1    3    3    0    0  0.24800831538E+02 -0.10689101036E+02  0.14020029657E+02  0.30428594406E+02  0.00000000000E+00 0.  1.
</event>
<event>
 7    1  0.2312612E-008  0.4614232E+02  0.7816164E-02  0.1320468E+00
        -11   -1    0    0    0    0  0.00000000000E+00  0.00000000000E+00  0.45593999997E+02  0.45594000000E+02  0.51100000000E-03 0. -1.
         11   -1    0    0    0    0 -0.00000000000E+00 -0.00000000000E+00 -0.45593999997E+02  0.45594000000E+02  0.51100000000E-03 0.  1.
    9900012    2    1    2    0    0 -0.72736016884E+01  0.12792142534E+02 -0.42574279613E+02  0.46142317891E+02  0.10000001185E+02 0.  0.
         12    1    1    2    0    0  0.72736016884E+01 -0.12792142534E+02  0.42574279613E+02  0.45045682109E+02  0.00000000000E+00 0. -1.
         11    1    3    3    0    0 -0.37524787085E+01  0.31733856810E+01 -0.55125058089E+01  0.73850655848E+01  0.51100000000E-03 0. -1.
        -11    1    3    3    0    0 -0.11051494279E+01 -0.59388919655E-01 -0.69152846792E+01  0.70032881389E+01  0.51100000000E-03 0.  1.
        -12    1    3    3    0    0 -0.24159735521E+01  0.96781457727E+01 -0.30146489124E+02  0.31753964167E+02  0.00000000000E+00 0.  1.
</event>
<event>
 7    1  0.2312612E-008  0.4614232E+02  0.7816164E-02  0.1320468E+00
        -11   -1    0    0    0    0  0.00000000000E+00  0.00000000000E+00  0.45593999997E+02  0.45594000000E+02  0.51100000000E-03 0.  1.
         11   -1    0    0    0    0 -0.00000000000E+00 -0.00000000000E+00 -0.45593999997E+02  0.45594000000E+02  0.51100000000E-03 0. -1.
    9900012    2    1    2    0    0  0.36676827175E+02  0.21173578837E+02  0.15349373853E+02  0.46142319075E+02  0.10000011979E+02 0.  0.
         12    1    1    2    0    0 -0.36676827175E+02 -0.21173578837E+02 -0.15349373853E+02  0.45045680925E+02  0.00000000000E+00 0. -1.
         11    1    3    3    0    0  0.10721394679E+02  0.20893931216E+01  0.53494448190E+01  0.12162665317E+02  0.51100000000E-03 0.  1.
        -11    1    3    3    0    0  0.99790967199E+01  0.63829228348E+01  0.17897797441E+01  0.11980291610E+02  0.51100000000E-03 0. -1.
        -12    1    3    3    0    0  0.15976335776E+02  0.12701262880E+02  0.82101492897E+01  0.21999362148E+02  0.00000000000E+00 0.  1.
</event>
<event>
 7    1  0.2312612E-008  0.4614232E+02  0.7816164E-02  0.1320468E+00
        -11   -1    0    0    0    0  0.00000000000E+00  0.00000000000E+00  0.45593999997E+02  0.45594000000E+02  0.51100000000E-03 0.  1.
         11   -1    0    0    0    0 -0.00000000000E+00 -0.00000000000E+00 -0.45593999997E+02  0.45594000000E+02  0.51100000000E-03 0. -1.
    9900012    2    1    2    0    0  0.14723373371E+02 -0.36813576631E+02 -0.21379814012E+02  0.46142316578E+02  0.99999892129E+01 0.  0.
         12    1    1    2    0    0 -0.14723373371E+02  0.36813576631E+02  0.21379814012E+02  0.45045683422E+02  0.00000000000E+00 0. -1.
         11    1    3    3    0    0  0.44955450387E+01 -0.11946976904E+02 -0.72425727789E+01  0.14676342973E+02  0.51100000000E-03 0. -1.
        -11    1    3    3    0    0  0.15475766901E+01 -0.83636485690E+01 -0.84059406240E+01  0.11958488576E+02  0.51100000000E-03 0.  1.
         12    1    3    3    0    0  0.86802516418E+01 -0.16502951158E+02 -0.57313006092E+01  0.19507485029E+02  0.00000000000E+00 0. -1.
</event>
<event>
 7    1  0.2312612E-008  0.4614232E+02  0.7816164E-02  0.1320468E+00
        -11   -1    0    0    0    0  0.00000000000E+00  0.00000000000E+00  0.45593999997E+02  0.45594000000E+02  0.51100000000E-03 0.  1.
         11   -1    0    0    0    0 -0.00000000000E+00 -0.00000000000E+00 -0.45593999997E+02  0.45594000000E+02  0.51100000000E-03 0. -1.
    9900012    2    1    2    0    0 -0.31340011850E+02 -0.10224930713E+02  0.30698010753E+02  0.46142318575E+02  0.10000007422E+02 0.  0.
         12    1    1    2    0    0  0.31340011850E+02  0.10224930713E+02 -0.30698010753E+02  0.45045681425E+02  0.00000000000E+00 0. -1.
         11    1    3    3    0    0 -0.34243887464E+01 -0.19551792406E+01  0.76021358985E+01  0.85639730633E+01  0.51100000000E-03 0. -1.
        -11    1    3    3    0    0 -0.13438607101E+02 -0.58112815049E+01  0.14274098565E+02  0.20447910496E+02  0.51100000000E-03 0.  1.
         12    1    3    3    0    0 -0.14477016003E+02 -0.24584699679E+01  0.88217762893E+01  0.17130435016E+02  0.00000000000E+00 0. -1.
</event>
<event>
 7    1  0.2312612E-008  0.4614232E+02  0.7816164E-02  0.1320468E+00
        -11   -1    0    0    0    0  0.00000000000E+00  0.00000000000E+00  0.45593999997E+02  0.45594000000E+02  0.51100000000E-03 0.  1.
         11   -1    0    0    0    0 -0.00000000000E+00 -0.00000000000E+00 -0.45593999997E+02  0.45594000000E+02  0.51100000000E-03 0. -1.
    9900012    2    1    2    0    0 -0.22946343223E+02  0.80382630450E+01  0.37920511740E+02  0.46142317069E+02  0.99999936855E+01 0.  0.
         12    1    1    2    0    0  0.22946343223E+02 -0.80382630450E+01 -0.37920511740E+02  0.45045682931E+02  0.00000000000E+00 0. -1.
         11    1    3    3    0    0 -0.14645866449E+01  0.24635155655E+01  0.38106329243E+01  0.47681072268E+01  0.51100000000E-03 0. -1.
        -11    1    3    3    0    0 -0.17827463610E+02  0.72054170936E+01  0.30036521263E+02  0.35664115075E+02  0.51100000000E-03 0.  1.
        -12    1    3    3    0    0 -0.36542929680E+01 -0.16306696140E+01  0.40733575535E+01  0.57100947666E+01  0.00000000000E+00 0.  1.
</event>
<event>
 7    1  0.2312612E-008  0.4614232E+02  0.7816164E-02  0.1320468E+00
        -11   -1    0    0    0    0  0.00000000000E+00  0.00000000000E+00  0.45593999997E+02  0.45594000000E+02  0.51100000000E-03 0. -1.
         11   -1    0    0    0    0 -0.00000000000E+00 -0.00000000000E+00 -0.45593999997E+02  0.45594000000E+02  0.51100000000E-03 0.  1.
    9900012    2    1    2    0    0 -0.30742964418E+02 -0.28485945657E+02 -0.16508619831E+02  0.46142317744E+02  0.99999998477E+01 0.  0.
         12    1    1    2    0    0  0.30742964418E+02  0.28485945657E+02  0.16508619831E+02  0.45045682256E+02  0.00000000000E+00 0. -1.
         11    1    3    3    0    0 -0.63282412573E+00 -0.17250823647E+01 -0.45020559468E+00  0.18918406058E+01  0.51100000000E-03 0. -1.
        -11    1    3    3    0    0 -0.29838124129E+02 -0.24008783323E+02 -0.15939115707E+02  0.41482414804E+02  0.51100000000E-03 0.  1.
        -12    1    3    3    0    0 -0.27201616328E+00 -0.27520799691E+01 -0.11929852865E+00  0.27680623346E+01  0.00000000000E+00 0.  1.
</event>
<event>
 7    1  0.2312612E-008  0.4614232E+02  0.7816164E-02  0.1320468E+00
        -11   -1    0    0    0    0  0.00000000000E+00  0.00000000000E+00  0.45593999997E+02  0.45594000000E+02  0.51100000000E-03 0.  1.
         11   -1    0    0    0    0 -0.00000000000E+00 -0.00000000000E+00 -0.45593999997E+02  0.45594000000E+02  0.51100000000E-03 0. -1.
    9900012    2    1    2    0    0  0.44024113481E+02 -0.84707901401E+01 -0.43859614839E+01  0.46142317504E+02  0.99999976558E+01 0.  0.
         12    1    1    2    0    0 -0.44024113481E+02  0.84707901401E+01  0.43859614839E+01  0.45045682496E+02  0.00000000000E+00 0. -1.
         11    1    3    3    0    0  0.24369158453E+02 -0.32114620310E+01 -0.47803165932E+01  0.25040383365E+02  0.51100000000E-03 0.  1.
        -11    1    3    3    0    0  0.34284804262E+01 -0.32764440762E+01 -0.16501251017E+00  0.47451863195E+01  0.51100000000E-03 0. -1.
         12    1    3    3    0    0  0.16226474602E+02 -0.19828840329E+01  0.55936761950E+00  0.16356747819E+02  0.00000000000E+00 0. -1.
</event>
<event>
 7    1  0.2312612E-008  0.4614232E+02  0.7816164E-02  0.1320468E+00
        -11   -1    0    0    0    0  0.00000000000E+00  0.00000000000E+00  0.45593999997E+02  0.45594000000E+02  0.51100000000E-03 0.  1.
         11   -1    0    0    0    0 -0.00000000000E+00 -0.00000000000E+00 -0.45593999997E+02  0.45594000000E+02  0.51100000000E-03 0. -1.
    9900012    2    1    2    0    0  0.20602457539E+02 -0.37235600433E+02  0.14770318277E+02  0.46142317651E+02  0.99999989984E+01 0.  0.
         12    1    1    2    0    0 -0.20602457539E+02  0.37235600433E+02 -0.14770318277E+02  0.45045682349E+02  0.00000000000E+00 0. -1.
         11    1    3    3    0    0  0.99122314930E+01 -0.10621618430E+02  0.34659784433E+01  0.14936000739E+02  0.51100000000E-03 0. -1.
        -11    1    3    3    0    0  0.89553224349E+01 -0.16039945998E+02  0.72575106350E+01  0.19752193003E+02  0.51100000000E-03 0.  1.
        -12    1    3    3    0    0  0.17349036110E+01 -0.10574036005E+02  0.40468291988E+01  0.11454123909E+02  0.00000000000E+00 0.  1.
</event>
<event>
 7    1  0.2312612E-008  0.4614232E+02  0.7816164E-02  0.1320468E+00
        -11   -1    0    0    0    0  0.00000000000E+00  0.00000000000E+00  0.45593999997E+02  0.45594000000E+02  0.51100000000E-03 0. -1.
         11   -1    0    0    0    0 -0.00000000000E+00 -0.00000000000E+00 -0.45593999997E+02  0.45594000000E+02  0.51100000000E-03 0.  1.
    9900012    2    1    2    0    0 -0.37095186544E+02 -0.66996744186E+01 -0.24661204319E+02  0.46142317626E+02  0.99999987687E+01 0.  0.
         12    1    1    2    0    0  0.37095186544E+02  0.66996744186E+01  0.24661204319E+02  0.45045682374E+02  0.00000000000E+00 0. -1.
         11    1    3    3    0    0 -0.86867309720E+01 -0.40372133695E+01 -0.28902149584E+01  0.10005584917E+02  0.51100000000E-03 0. -1.
        -11    1    3    3    0    0 -0.58965604645E+01 -0.16399959763E+01 -0.30415857102E+01  0.68344901790E+01  0.51100000000E-03 0.  1.
        -12    1    3    3    0    0 -0.22511895107E+02 -0.10224650728E+01 -0.18729403651E+02  0.29302242530E+02  0.00000000000E+00 0.  1.
</event>
<event>
 7    1  0.2312612E-008  0.4614232E+02  0.7816164E-02  0.1320468E+00
        -11   -1    0    0    0    0  0.00000000000E+00  0.00000000000E+00  0.45593999997E+02  0.45594000000E+02  0.51100000000E-03 0. -1.
         11   -1    0    0    0    0 -0.00000000000E+00 -0.00000000000E+00 -0.45593999997E+02  0.45594000000E+02  0.51100000000E-03 0.  1.
    9900012    2    1    2    0    0 -0.38919431395E+02 -0.19314192560E+02 -0.11889208572E+02  0.46142318134E+02  0.10000003397E+02 0.  0.
         12    1    1    2    0    0  0.38919431395E+02  0.19314192560E+02  0.11889208572E+02  0.45045681866E+02  0.00000000000E+00 0. -1.
         11    1    3    3    0    0 -0.92381624676E+01 -0.70319645178E+00 -0.25249830607E+01  0.96027949444E+01  0.51100000000E-03 0. -1.
        -11    1    3    3    0    0 -0.10088133914E+02 -0.40571538419E+01 -0.20996996634E+01  0.11074280207E+02  0.51100000000E-03 0.  1.
         12    1    3    3    0    0 -0.19593135014E+02 -0.14553842266E+02 -0.72645258484E+01  0.25465242983E+02  0.00000000000E+00 0. -1.
</event>
<event>
 7    1  0.2312612E-008  0.4614232E+02  0.7816164E-02  0.1320468E+00
        -11   -1    0    0    0    0  0.00000000000E+00  0.00000000000E+00  0.45593999997E+02  0.45594000000E+02  0.51100000000E-03 0. -1.
         11   -1    0    0    0    0 -0.00000000000E+00 -0.00000000000E+00 -0.45593999997E+02  0.45594000000E+02  0.51100000000E-03 0.  1.
    9900012    2    1    2    0    0  0.85915561742E+01 -0.19410883823E+02 -0.39730546623E+02  0.46142316708E+02  0.99999903970E+01 0.  0.
         12    1    1    2    0    0 -0.85915561742E+01  0.19410883823E+02  0.39730546623E+02  0.45045683292E+02  0.00000000000E+00 0. -1.
         11    1    3    3    0    0  0.21776931048E+01 -0.57907991637E+01 -0.45752259198E+01  0.76946991294E+01  0.51100000000E-03 0. -1.
        -11    1    3    3    0    0  0.21867769910E+00 -0.38348328722E+01 -0.66537380841E+01  0.76828376169E+01  0.51100000000E-03 0.  1.
        -12    1    3    3    0    0  0.61951853703E+01 -0.97852517871E+01 -0.28501582619E+02  0.30764779962E+02  0.00000000000E+00 0.  1.
</event>
<event>
 7    1  0.2312612E-008  0.4614232E+02  0.7816164E-02  0.1320468E+00
        -11   -1    0    0    0    0  0.00000000000E+00  0.00000000000E+00  0.45593999997E+02  0.45594000000E+02  0.51100000000E-03 0.  1.
         11   -1    0    0    0    0 -0.00000000000E+00 -0.00000000000E+00 -0.45593999997E+02  0.45594000000E+02  0.51100000000E-03 0. -1.
    9900012    2    1    2    0    0 -0.35615543745E+02  0.27579531759E+02 -0.12515071189E+00  0.46142321062E+02  0.10000030098E+02 0.  0.
         12    1    1    2    0    0  0.35615543745E+02 -0.27579531759E+02  0.12515071189E+00  0.45045678938E+02  0.00000000000E+00 0. -1.
         11    1    3    3    0    0 -0.53241653063E+01  0.69770457167E+01 -0.76043982216E+00  0.88093230231E+01  0.51100000000E-03 0. -1.
        -11    1    3    3    0    0 -0.23337098354E+02  0.14656022351E+02 -0.24758265884E+01  0.27668553780E+02  0.51100000000E-03 0.  1.
        -12    1    3    3    0    0 -0.69542800848E+01  0.59464636915E+01  0.31111156986E+01  0.96644442584E+01  0.00000000000E+00 0.  1.
</event>
<event>
 7    1  0.2312612E-008  0.4614232E+02  0.7816164E-02  0.1320468E+00
        -11   -1    0    0    0    0  0.00000000000E+00  0.00000000000E+00  0.45593999997E+02  0.45594000000E+02  0.51100000000E-03 0.  1.
         11   -1    0    0    0    0 -0.00000000000E+00 -0.00000000000E+00 -0.45593999997E+02  0.45594000000E+02  0.51100000000E-03 0. -1.
    9900012    2    1    2    0    0  0.75784899263E+01  0.26817687915E+02  0.35390555539E+02  0.46142319674E+02  0.10000017441E+02 0.  0.
         12    1    1    2    0    0 -0.75784899263E+01 -0.26817687915E+02 -0.35390555539E+02  0.45045680326E+02  0.00000000000E+00 0. -1.
         11    1    3    3    0    0  0.34916857025E+01  0.16508360354E+02  0.15370053943E+02  0.22824469087E+02  0.51100000000E-03 0. -1.
        -11    1    3    3    0    0 -0.96678518754E-01 -0.16853737404E+00  0.23159217383E+01  0.23240579471E+01  0.51100000000E-03 0.  1.
        -12    1    3    3    0    0  0.41834827425E+01  0.10477864935E+02  0.17704579858E+02  0.20993792640E+02  0.00000000000E+00 0.  1.
</event>
<event>
 7    1  0.2312612E-008  0.4614232E+02  0.7816164E-02  0.1320468E+00
        -11   -1    0    0    0    0  0.00000000000E+00  0.00000000000E+00  0.45593999997E+02  0.45594000000E+02  0.51100000000E-03 0.  1.
         11   -1    0    0    0    0 -0.00000000000E+00 -0.00000000000E+00 -0.45593999997E+02  0.45594000000E+02  0.51100000000E-03 0. -1.
    9900012    2    1    2    0    0  0.28954656974E+01  0.31488207278E+02  0.32081499538E+02  0.46142317279E+02  0.99999956009E+01 0.  0.
         12    1    1    2    0    0 -0.28954656974E+01 -0.31488207278E+02 -0.32081499538E+02  0.45045682721E+02  0.00000000000E+00 0. -1.
         11    1    3    3    0    0  0.31221378460E+01  0.13878750250E+02  0.16158031515E+02  0.21527875788E+02  0.51100000000E-03 0. -1.
        -11    1    3    3    0    0 -0.18458121310E+01  0.15005845006E+02  0.15252124147E+02  0.21475793303E+02  0.51100000000E-03 0.  1.
        -12    1    3    3    0    0  0.16191399824E+01  0.26036120219E+01  0.67134387681E+00  0.31386481874E+01  0.00000000000E+00 0.  1.
</event>
<event>
 7    1  0.2312612E-008  0.4614232E+02  0.7816164E-02  0.1320468E+00
        -11   -1    0    0    0    0  0.00000000000E+00  0.00000000000E+00  0.45593999997E+02  0.45594000000E+02  0.51100000000E-03 0.  1.
         11   -1    0    0    0    0 -0.00000000000E+00 -0.00000000000E+00 -0.45593999997E+02  0.45594000000E+02  0.51100000000E-03 0. -1.
    9900012    2    1    2    0    0 -0.27323380902E+02 -0.14092663808E+02  0.32923292081E+02  0.46142317870E+02  0.10000000994E+02 0.  0.
         12    1    1    2    0    0  0.27323380902E+02  0.14092663808E+02 -0.32923292081E+02  0.45045682130E+02  0.00000000000E+00 0. -1.
         11    1    3    3    0    0 -0.40786303857E+01 -0.41855279770E+01  0.62973016052E+01  0.85912675454E+01  0.51100000000E-03 0. -1.
        -11    1    3    3    0    0 -0.23711537506E+02 -0.90519035164E+01  0.26230561811E+02  0.36499538920E+02  0.51100000000E-03 0.  1.
        -12    1    3    3    0    0  0.46678698984E+00 -0.85523231474E+00  0.39542866466E+00  0.10515114050E+01  0.00000000000E+00 0.  1.
</event>
<event>
 7    1  0.2312612E-008  0.4614232E+02  0.7816164E-02  0.1320468E+00
        -11   -1    0    0    0    0  0.00000000000E+00  0.00000000000E+00  0.45593999997E+02  0.45594000000E+02  0.51100000000E-03 0. -1.
         11   -1    0    0    0    0 -0.00000000000E+00 -0.00000000000E+00 -0.45593999997E+02  0.45594000000E+02  0.51100000000E-03 0.  1.
    9900012    2    1    2    0    0  0.18039768937E+02  0.24717784048E+02  0.33056184351E+02  0.46142318349E+02  0.10000005361E+02 0.  0.
         12    1    1    2    0    0 -0.18039768937E+02 -0.24717784048E+02 -0.33056184351E+02  0.45045681651E+02  0.00000000000E+00 0. -1.
         11    1    3    3    0    0 -0.40782959111E+00  0.17437570071E+01  0.83656378621E+00  0.19765760053E+01  0.51100000000E-03 0. -1.
        -11    1    3    3    0    0 -0.32724505714E+00 -0.17761582413E+00  0.21352960687E+00  0.42922239286E+00  0.51100000000E-03 0.  1.
        -12    1    3    3    0    0  0.18774843585E+02  0.23151642865E+02  0.32006090958E+02  0.43736519951E+02  0.00000000000E+00 0.  1.
</event>
<event>
 7    1  0.2312612E-008  0.4614232E+02  0.7816164E-02  0.1320468E+00
        -11   -1    0    0    0    0  0.00000000000E+00  0.00000000000E+00  0.45593999997E+02  0.45594000000E+02  0.51100000000E-03 0.  1.
         11   -1    0    0    0    0 -0.00000000000E+00 -0.00000000000E+00 -0.45593999997E+02  0.45594000000E+02  0.51100000000E-03 0. -1.
    9900012    2    1    2    0    0  0.19174668834E+02  0.18318516430E+02  0.36412601262E+02  0.46142317635E+02  0.99999988471E+01 0.  0.
         12    1    1    2    0    0 -0.19174668834E+02 -0.18318516430E+02 -0.36412601262E+02  0.45045682365E+02  0.00000000000E+00 0. -1.
         11    1    3    3    0    0  0.11960969098E+02  0.65129904935E+01  0.12799194856E+02  0.18689655325E+02  0.51100000000E-03 0. -1.
        -11    1    3    3    0    0  0.14513054641E+01  0.13883073302E+01  0.24228984609E+01  0.31470815061E+01  0.51100000000E-03 0.  1.
        -12    1    3    3    0    0  0.57623942714E+01  0.10417218606E+02  0.21190507945E+02  0.24305580804E+02  0.00000000000E+00 0.  1.
</event>
<event>
 7    1  0.2312612E-008  0.4614232E+02  0.7816164E-02  0.1320468E+00
        -11   -1    0    0    0    0  0.00000000000E+00  0.00000000000E+00  0.45593999997E+02  0.45594000000E+02  0.51100000000E-03 0. -1.
         11   -1    0    0    0    0 -0.00000000000E+00 -0.00000000000E+00 -0.45593999997E+02  0.45594000000E+02  0.51100000000E-03 0.  1.
    9900012    2    1    2    0    0  0.40022381176E+02 -0.18150333803E+02  0.98938349515E+01  0.46142316719E+02  0.99999904988E+01 0.  0.
         12    1    1    2    0    0 -0.40022381176E+02  0.18150333803E+02 -0.98938349515E+01  0.45045683281E+02  0.00000000000E+00 0. -1.
         11    1    3    3    0    0  0.13933517411E+01 -0.14859658985E+01  0.18266766211E+01  0.27361051634E+01  0.51100000000E-03 0. -1.
        -11    1    3    3    0    0  0.84230340489E+01 -0.16416958192E+01  0.38589963432E+01  0.94092784415E+01  0.51100000000E-03 0.  1.
        -12    1    3    3    0    0  0.30205995386E+02 -0.15022672086E+02  0.42081619872E+01  0.33996933114E+02  0.00000000000E+00 0.  1.
</event>
<event>
 7    1  0.2312612E-008  0.4614232E+02  0.7816164E-02  0.1320468E+00
        -11   -1    0    0    0    0  0.00000000000E+00  0.00000000000E+00  0.45593999997E+02  0.45594000000E+02  0.51100000000E-03 0.  1.
         11   -1    0    0    0    0 -0.00000000000E+00 -0.00000000000E+00 -0.45593999997E+02  0.45594000000E+02  0.51100000000E-03 0. -1.
    9900012    2    1    2    0    0  0.33534421976E+02 -0.27753386072E+02  0.11589031286E+02  0.46142317167E+02  0.99999945857E+01 0.  0.
         12    1    1    2    0    0 -0.33534421976E+02  0.27753386072E+02 -0.11589031286E+02  0.45045682833E+02  0.00000000000E+00 0. -1.
         11    1    3    3    0    0  0.73550600040E+01 -0.28807744104E+01  0.60555453456E+00  0.79222765302E+01  0.51100000000E-03 0. -1.
        -11    1    3    3    0    0  0.23419707941E+02 -0.19146937987E+02  0.89491908983E+01  0.31546409817E+02  0.51100000000E-03 0.  1.
        -12    1    3    3    0    0  0.27596540309E+01 -0.57256736746E+01  0.20342858528E+01  0.66736308206E+01  0.00000000000E+00 0.  1.
</event>
<event>
 7    1  0.2312612E-008  0.4614232E+02  0.7816164E-02  0.1320468E+00
        -11   -1    0    0    0    0  0.00000000000E+00  0.00000000000E+00  0.45593999997E+02  0.45594000000E+02  0.51100000000E-03 0.  1.
         11   -1    0    0    0    0 -0.00000000000E+00 -0.00000000000E+00 -0.45593999997E+02  0.45594000000E+02  0.51100000000E-03 0. -1.
    9900012    2    1    2    0    0  0.21624708502E+02 -0.39404626115E+02  0.29598877506E+01  0.46142317493E+02  0.99999975522E+01 0.  0.
         12    1    1    2    0    0 -0.21624708502E+02  0.39404626115E+02 -0.29598877506E+01  0.45045682507E+02  0.00000000000E+00 0. -1.
         11    1    3    3    0    0  0.22287929955E+01 -0.80483896188E+01  0.64350726907E+00  0.83760489217E+01  0.51100000000E-03 0. -1.
        -11    1    3    3    0    0  0.42363911028E+01 -0.12985217526E+02  0.28015349198E+01  0.13943151794E+02  0.51100000000E-03 0.  1.
        -12    1    3    3    0    0  0.15159524404E+02 -0.18371018970E+02 -0.48515443820E+00  0.23823116777E+02  0.00000000000E+00 0.  1.
</event>
<event>
 7    1  0.2312612E-008  0.4614232E+02  0.7816164E-02  0.1320468E+00
        -11   -1    0    0    0    0  0.00000000000E+00  0.00000000000E+00  0.45593999997E+02  0.45594000000E+02  0.51100000000E-03 0. -1.
         11   -1    0    0    0    0 -0.00000000000E+00 -0.00000000000E+00 -0.45593999997E+02  0.45594000000E+02  0.51100000000E-03 0.  1.
    9900012    2    1    2    0    0  0.23290149812E+02  0.36773214148E+02 -0.11593667151E+02  0.46142317909E+02  0.10000001344E+02 0.  0.
         12    1    1    2    0    0 -0.23290149812E+02 -0.36773214148E+02  0.11593667151E+02  0.45045682091E+02  0.00000000000E+00 0. -1.
         11    1    3    3    0    0  0.50865001408E+00  0.56167778941E+01 -0.30125712790E+01  0.63939428149E+01  0.51100000000E-03 0. -1.
        -11    1    3    3    0    0  0.76661411425E+01  0.81509723157E+01 -0.37468285251E+01  0.11800287876E+02  0.51100000000E-03 0.  1.
        -12    1    3    3    0    0  0.15115358656E+02  0.23005463939E+02 -0.48342673469E+01  0.27948087217E+02  0.00000000000E+00 0.  1.
</event>
<event>
 7    1  0.2312612E-008  0.4614231E+02  0.7816164E-02  0.1320468E+00
        -11   -1    0    0    0    0  0.00000000000E+00  0.00000000000E+00  0.45593999997E+02  0.45594000000E+02  0.51100000000E-03 0.  1.
         11   -1    0    0    0    0 -0.00000000000E+00 -0.00000000000E+00 -0.45593999997E+02  0.45594000000E+02  0.51100000000E-03 0. -1.
    9900012    2    1    2    0    0 -0.32746609271E+02 -0.39866708568E+01  0.30673765250E+02  0.46142313881E+02  0.99999646216E+01 0.  0.
         12    1    1    2    0    0  0.32746609271E+02  0.39866708568E+01 -0.30673765250E+02  0.45045686119E+02  0.00000000000E+00 0. -1.
         11    1    3    3    0    0 -0.44126209343E+01 -0.90623535093E+00  0.36436569397E+01  0.57938521017E+01  0.51100000000E-03 0. -1.
        -11    1    3    3    0    0 -0.21580078691E+02 -0.60631022422E+01  0.18475425947E+02  0.29048276528E+02  0.51100000000E-03 0.  1.
         12    1    3    3    0    0 -0.67539096456E+01  0.29826667363E+01  0.85546823641E+01  0.11300185251E+02  0.00000000000E+00 0. -1.
</event>
<event>
 7    1  0.2312612E-008  0.4614232E+02  0.7816164E-02  0.1320468E+00
        -11   -1    0    0    0    0  0.00000000000E+00  0.00000000000E+00  0.45593999997E+02  0.45594000000E+02  0.51100000000E-03 0.  1.
         11   -1    0    0    0    0 -0.00000000000E+00 -0.00000000000E+00 -0.45593999997E+02  0.45594000000E+02  0.51100000000E-03 0. -1.
    9900012    2    1    2    0    0  0.38622411594E+02  0.22243614044E+02  0.65302527144E+01  0.46142320478E+02  0.10000024776E+02 0.  0.
         12    1    1    2    0    0 -0.38622411594E+02 -0.22243614044E+02 -0.65302527144E+01  0.45045679522E+02  0.00000000000E+00 0. -1.
         11    1    3    3    0    0  0.70442363821E+01  0.31503395947E+01  0.31941192043E+01  0.83515449781E+01  0.51100000000E-03 0. -1.
        -11    1    3    3    0    0  0.22520653695E+02  0.16738137436E+02  0.70208675901E+00  0.28068452286E+02  0.51100000000E-03 0.  1.
        -12    1    3    3    0    0  0.90575215173E+01  0.23551370130E+01  0.26340467511E+01  0.97223232138E+01  0.00000000000E+00 0.  1.
</event>
<event>
 7    1  0.2312612E-008  0.4614232E+02  0.7816164E-02  0.1320468E+00
        -11   -1    0    0    0    0  0.00000000000E+00  0.00000000000E+00  0.45593999997E+02  0.45594000000E+02  0.51100000000E-03 0.  1.
         11   -1    0    0    0    0 -0.00000000000E+00 -0.00000000000E+00 -0.45593999997E+02  0.45594000000E+02  0.51100000000E-03 0. -1.
    9900012    2    1    2    0    0  0.14381394856E+02 -0.59090177896E+01  0.42277328623E+02  0.46142317357E+02  0.99999963175E+01 0.  0.
         12    1    1    2    0    0 -0.14381394856E+02  0.59090177896E+01 -0.42277328623E+02  0.45045682643E+02  0.00000000000E+00 0. -1.
         11    1    3    3    0    0 -0.20887163226E+00 -0.87871786916E+00  0.19397803955E+00  0.92379661901E+00  0.51100000000E-03 0. -1.
        -11    1    3    3    0    0  0.42169606644E+01  0.64944527640E+00  0.16352197206E+02  0.16899671303E+02  0.51100000000E-03 0.  1.
        -12    1    3    3    0    0  0.10373305824E+02 -0.56797451968E+01  0.25731153377E+02  0.28318849436E+02  0.00000000000E+00 0.  1.
</event>
<event>
 7    1  0.2312612E-008  0.4614232E+02  0.7816164E-02  0.1320468E+00
        -11   -1    0    0    0    0  0.00000000000E+00  0.00000000000E+00  0.45593999997E+02  0.45594000000E+02  0.51100000000E-03 0.  1.
         11   -1    0    0    0    0 -0.00000000000E+00 -0.00000000000E+00 -0.45593999997E+02  0.45594000000E+02  0.51100000000E-03 0. -1.
    9900012    2    1    2    0    0  0.16413468383E+02 -0.20822661302E+02  0.36416043912E+02  0.46142318496E+02  0.10000006697E+02 0.  0.
         12    1    1    2    0    0 -0.16413468383E+02  0.20822661302E+02 -0.36416043912E+02  0.45045681504E+02  0.00000000000E+00 0. -1.
         11    1    3    3    0    0  0.94121353969E+01 -0.60201445935E+01  0.16588906052E+02  0.20000555940E+02  0.51100000000E-03 0. -1.
        -11    1    3    3    0    0  0.42831299926E+01 -0.46681928214E+01  0.55423533268E+01  0.84175357089E+01  0.51100000000E-03 0.  1.
        -12    1    3    3    0    0  0.27182029934E+01 -0.10134323887E+02  0.14284784533E+02  0.17724226847E+02  0.00000000000E+00 0.  1.
</event>
<event>
 7    1  0.2312612E-008  0.4614232E+02  0.7816164E-02  0.1320468E+00
        -11   -1    0    0    0    0  0.00000000000E+00  0.00000000000E+00  0.45593999997E+02  0.45594000000E+02  0.51100000000E-03 0. -1.
         11   -1    0    0    0    0 -0.00000000000E+00 -0.00000000000E+00 -0.45593999997E+02  0.45594000000E+02  0.51100000000E-03 0.  1.
    9900012    2    1    2    0    0  0.19763207554E+02  0.31724568614E+01 -0.40354238474E+02  0.46142318541E+02  0.10000007110E+02 0.  0.
         12    1    1    2    0    0 -0.19763207554E+02 -0.31724568614E+01  0.40354238474E+02  0.45045681459E+02  0.00000000000E+00 0. -1.
         11    1    3    3    0    0  0.47401029561E+01 -0.76885135599E+00 -0.13290880299E+02  0.14131780066E+02  0.51100000000E-03 0. -1.
        -11    1    3    3    0    0  0.38799824051E+00 -0.11763221202E+01 -0.69085355253E+00  0.14182930788E+01  0.51100000000E-03 0.  1.
        -12    1    3    3    0    0  0.14635106357E+02  0.51176303376E+01 -0.26372504622E+02  0.30592245396E+02  0.00000000000E+00 0.  1.
</event>
<event>
 7    1  0.2312612E-008  0.4614232E+02  0.7816164E-02  0.1320468E+00
        -11   -1    0    0    0    0  0.00000000000E+00  0.00000000000E+00  0.45593999997E+02  0.45594000000E+02  0.51100000000E-03 0. -1.
         11   -1    0    0    0    0 -0.00000000000E+00 -0.00000000000E+00 -0.45593999997E+02  0.45594000000E+02  0.51100000000E-03 0.  1.
    9900012    2    1    2    0    0  0.36176074976E+02  0.26406108112E+02 -0.48085871089E+01  0.46142318117E+02  0.10000003246E+02 0.  0.
         12    1    1    2    0    0 -0.36176074976E+02 -0.26406108112E+02  0.48085871089E+01  0.45045681883E+02  0.00000000000E+00 0. -1.
         11    1    3    3    0    0  0.25294173717E+01 -0.28204137042E+00 -0.14327150849E+01  0.29206458790E+01  0.51100000000E-03 0. -1.
        -11    1    3    3    0    0  0.13819607779E+02  0.12384023583E+02 -0.27997697190E+01  0.18766574275E+02  0.51100000000E-03 0.  1.
         12    1    3    3    0    0  0.19827049825E+02  0.14304125900E+02 -0.57610230500E+00  0.24455097964E+02  0.00000000000E+00 0. -1.
</event>
<event>
 7    1  0.2312612E-008  0.4614232E+02  0.7816164E-02  0.1320468E+00
        -11   -1    0    0    0    0  0.00000000000E+00  0.00000000000E+00  0.45593999997E+02  0.45594000000E+02  0.51100000000E-03 0.  1.
         11   -1    0    0    0    0 -0.00000000000E+00 -0.00000000000E+00 -0.45593999997E+02  0.45594000000E+02  0.51100000000E-03 0. -1.
    9900012    2    1    2    0    0  0.34354051676E+02  0.27629720302E+02 -0.92472286164E+01  0.46142317104E+02  0.99999940039E+01 0.  0.
         12    1    1    2    0    0 -0.34354051676E+02 -0.27629720302E+02  0.92472286164E+01  0.45045682896E+02  0.00000000000E+00 0. -1.
         11    1    3    3    0    0  0.13240383166E+02  0.76642391170E+01 -0.42725565076E+01  0.15884050082E+02  0.51100000000E-03 0. -1.
        -11    1    3    3    0    0  0.17749724271E+02  0.14049426217E+02 -0.58915048632E+01  0.23391214559E+02  0.51100000000E-03 0.  1.
         12    1    3    3    0    0  0.33639442384E+01  0.59160549682E+01  0.91683275441E+00  0.68670524627E+01  0.00000000000E+00 0. -1.
</event>
<event>
 7    1  0.2312612E-008  0.4614232E+02  0.7816164E-02  0.1320468E+00
        -11   -1    0    0    0    0  0.00000000000E+00  0.00000000000E+00  0.45593999997E+02  0.45594000000E+02  0.51100000000E-03 0. -1.
         11   -1    0    0    0    0 -0.00000000000E+00 -0.00000000000E+00 -0.45593999997E+02  0.45594000000E+02  0.51100000000E-03 0.  1.
    9900012    2    1    2    0    0 -0.42519129628E+02  0.96142142411E+01  0.11349183218E+02  0.46142318081E+02  0.10000002917E+02 0.  0.
         12    1    1    2    0    0  0.42519129628E+02 -0.96142142411E+01 -0.11349183218E+02  0.45045681919E+02  0.00000000000E+00 0. -1.
         11    1    3    3    0    0 -0.17582206317E+02  0.19389339826E+01  0.85195475878E+01  0.19633546173E+02  0.51100000000E-03 0. -1.
        -11    1    3    3    0    0 -0.13493712842E+02  0.58041624622E+01  0.25599127289E+01  0.14910457458E+02  0.51100000000E-03 0.  1.
         12    1    3    3    0    0 -0.11443210470E+02  0.18711177963E+01  0.26972290161E+00  0.11598314451E+02  0.00000000000E+00 0. -1.
</event>
<event>
 7    1  0.2312612E-008  0.4614232E+02  0.7816164E-02  0.1320468E+00
        -11   -1    0    0    0    0  0.00000000000E+00  0.00000000000E+00  0.45593999997E+02  0.45594000000E+02  0.51100000000E-03 0.  1.
         11   -1    0    0    0    0 -0.00000000000E+00 -0.00000000000E+00 -0.45593999997E+02  0.45594000000E+02  0.51100000000E-03 0. -1.
    9900012    2    1    2    0    0 -0.25625339896E+02  0.29520454451E+02  0.22382990237E+02  0.46142317325E+02  0.99999960200E+01 0.  0.
         12    1    1    2    0    0  0.25625339896E+02 -0.29520454451E+02 -0.22382990237E+02  0.45045682675E+02  0.00000000000E+00 0. -1.
         11    1    3    3    0    0 -0.15677265933E+01  0.11241930422E+01  0.31431593640E+01  0.36879571196E+01  0.51100000000E-03 0. -1.
        -11    1    3    3    0    0 -0.14558955440E+02  0.18336810104E+02  0.15644757494E+02  0.28159549457E+02  0.51100000000E-03 0.  1.
         12    1    3    3    0    0 -0.94986578621E+01  0.10059451304E+02  0.35950733788E+01  0.14294810748E+02  0.00000000000E+00 0. -1.
</event>
<event>
 7    1  0.2312612E-008  0.4614232E+02  0.7816164E-02  0.1320468E+00
        -11   -1    0    0    0    0  0.00000000000E+00  0.00000000000E+00  0.45593999997E+02  0.45594000000E+02  0.51100000000E-03 0.  1.
         11   -1    0    0    0    0 -0.00000000000E+00 -0.00000000000E+00 -0.45593999997E+02  0.45594000000E+02  0.51100000000E-03 0. -1.
    9900012    2    1    2    0    0  0.39179638791E+02 -0.13418196450E+02  0.17720654746E+02  0.46142315452E+02  0.99999789408E+01 0.  0.
         12    1    1    2    0    0 -0.39179638791E+02  0.13418196450E+02 -0.17720654746E+02  0.45045684548E+02  0.00000000000E+00 0. -1.
         11    1    3    3    0    0  0.62790751104E+01 -0.80524280422E+00 -0.21638858837E+00  0.63341948579E+01  0.51100000000E-03 0. -1.
        -11    1    3    3    0    0  0.63966550885E+01 -0.17378076325E+01  0.15618007950E+01  0.68100215619E+01  0.51100000000E-03 0.  1.
        -12    1    3    3    0    0  0.26503908592E+02 -0.10875146014E+02  0.16375242540E+02  0.32998099032E+02  0.00000000000E+00 0.  1.
</event>
<event>
 7    1  0.2312612E-008  0.4614232E+02  0.7816164E-02  0.1320468E+00
        -11   -1    0    0    0    0  0.00000000000E+00  0.00000000000E+00  0.45593999997E+02  0.45594000000E+02  0.51100000000E-03 0. -1.
         11   -1    0    0    0    0 -0.00000000000E+00 -0.00000000000E+00 -0.45593999997E+02  0.45594000000E+02  0.51100000000E-03 0.  1.
    9900012    2    1    2    0    0  0.33924176549E+02 -0.32160626855E+01 -0.29460493307E+02  0.46142317858E+02  0.10000000883E+02 0.  0.
         12    1    1    2    0    0 -0.33924176549E+02  0.32160626855E+01  0.29460493307E+02  0.45045682142E+02  0.00000000000E+00 0. -1.
         11    1    3    3    0    0  0.27247492466E+02 -0.48370351332E+01 -0.25141416678E+02  0.37388682611E+02  0.51100000000E-03 0. -1.
        -11    1    3    3    0    0  0.25201719209E+01 -0.46794330134E+00 -0.25391050005E+00  0.25757927415E+01  0.51100000000E-03 0.  1.
        -12    1    3    3    0    0  0.41565121621E+01  0.20889157490E+01 -0.40651661296E+01  0.61778425054E+01  0.00000000000E+00 0.  1.
</event>
<event>
 7    1  0.2312612E-008  0.4614232E+02  0.7816164E-02  0.1320468E+00
        -11   -1    0    0    0    0  0.00000000000E+00  0.00000000000E+00  0.45593999997E+02  0.45594000000E+02  0.51100000000E-03 0. -1.
         11   -1    0    0    0    0 -0.00000000000E+00 -0.00000000000E+00 -0.45593999997E+02  0.45594000000E+02  0.51100000000E-03 0.  1.
    9900012    2    1    2    0    0 -0.39284455225E+02  0.17754350174E+02  0.13062469871E+02  0.46142317726E+02  0.99999996765E+01 0.  0.
         12    1    1    2    0    0  0.39284455225E+02 -0.17754350174E+02 -0.13062469871E+02  0.45045682274E+02  0.00000000000E+00 0. -1.
         11    1    3    3    0    0 -0.12608464639E+02  0.68982609872E+01  0.43308869004E+01  0.15010528532E+02  0.51100000000E-03 0. -1.
        -11    1    3    3    0    0 -0.23918481370E+02  0.78298584414E+01  0.96182575950E+01  0.26942741392E+02  0.51100000000E-03 0.  1.
         12    1    3    3    0    0 -0.27575092161E+01  0.30262307452E+01 -0.88667462450E+00  0.41890478022E+01  0.00000000000E+00 0. -1.
</event>
<event>
 7    1  0.2312612E-008  0.4614232E+02  0.7816164E-02  0.1320468E+00
        -11   -1    0    0    0    0  0.00000000000E+00  0.00000000000E+00  0.45593999997E+02  0.45594000000E+02  0.51100000000E-03 0. -1.
         11   -1    0    0    0    0 -0.00000000000E+00 -0.00000000000E+00 -0.45593999997E+02  0.45594000000E+02  0.51100000000E-03 0.  1.
    9900012    2    1    2    0    0  0.19663261446E+02 -0.43058935831E+01 -0.40298001741E+02  0.46142317470E+02  0.99999973488E+01 0.  0.
         12    1    1    2    0    0 -0.19663261446E+02  0.43058935831E+01  0.40298001741E+02  0.45045682530E+02  0.00000000000E+00 0. -1.
         11    1    3    3    0    0  0.13882438507E+02 -0.37350450473E+01 -0.22911323076E+02  0.27048130910E+02  0.51100000000E-03 0. -1.
        -11    1    3    3    0    0  0.16160921319E+01 -0.65721945271E+00 -0.67415703855E+00  0.18703419905E+01  0.51100000000E-03 0.  1.
        -12    1    3    3    0    0  0.41647308075E+01  0.86370916911E-01 -0.16712521627E+02  0.17223844570E+02  0.00000000000E+00 0.  1.
</event>
<event>
 7    1  0.2312612E-008  0.4614232E+02  0.7816164E-02  0.1320468E+00
        -11   -1    0    0    0    0  0.00000000000E+00  0.00000000000E+00  0.45593999997E+02  0.45594000000E+02  0.51100000000E-03 0.  1.
         11   -1    0    0    0    0 -0.00000000000E+00 -0.00000000000E+00 -0.45593999997E+02  0.45594000000E+02  0.51100000000E-03 0. -1.
    9900012    2    1    2    0    0 -0.32253319837E+02 -0.20451841000E+02  0.23886378878E+02  0.46142317225E+02  0.99999951069E+01 0.  0.
         12    1    1    2    0    0  0.32253319837E+02  0.20451841000E+02 -0.23886378878E+02  0.45045682775E+02  0.00000000000E+00 0. -1.
         11    1    3    3    0    0 -0.84805318551E+01 -0.30478293064E+01  0.31594296737E+01  0.95493811397E+01  0.51100000000E-03 0. -1.
        -11    1    3    3    0    0 -0.28516112763E+01 -0.32835618007E+01  0.58666614952E+01  0.73028201629E+01  0.51100000000E-03 0.  1.
         12    1    3    3    0    0 -0.20921176705E+02 -0.14120449893E+02  0.14860287709E+02  0.29290115922E+02  0.00000000000E+00 0. -1.
</event>
<event>
 7    1  0.2312612E-008  0.4614232E+02  0.7816164E-02  0.1320468E+00
        -11   -1    0    0    0    0  0.00000000000E+00  0.00000000000E+00  0.45593999997E+02  0.45594000000E+02  0.51100000000E-03 0.  1.
         11   -1    0    0    0    0 -0.00000000000E+00 -0.00000000000E+00 -0.45593999997E+02  0.45594000000E+02  0.51100000000E-03 0. -1.
    9900012    2    1    2    0    0 -0.17441251701E+02 -0.26981407171E+02  0.31574037988E+02  0.46142317979E+02  0.10000001989E+02 0.  0.
         12    1    1    2    0    0  0.17441251701E+02  0.26981407171E+02 -0.31574037988E+02  0.45045682021E+02  0.00000000000E+00 0. -1.
         11    1    3    3    0    0 -0.79165507180E+01 -0.62513050860E+01  0.81688361766E+01  0.12980002900E+02  0.51100000000E-03 0. -1.
        -11    1    3    3    0    0 -0.76701378162E+00 -0.78723377566E+01  0.86452756326E+01  0.11717627871E+02  0.51100000000E-03 0.  1.
        -12    1    3    3    0    0 -0.87576872012E+01 -0.12857764328E+02  0.14759926179E+02  0.21444687208E+02  0.00000000000E+00 0.  1.
</event>
<event>
 7    1  0.2312612E-008  0.4614232E+02  0.7816164E-02  0.1320468E+00
        -11   -1    0    0    0    0  0.00000000000E+00  0.00000000000E+00  0.45593999997E+02  0.45594000000E+02  0.51100000000E-03 0.  1.
         11   -1    0    0    0    0 -0.00000000000E+00 -0.00000000000E+00 -0.45593999997E+02  0.45594000000E+02  0.51100000000E-03 0. -1.
    9900012    2    1    2    0    0  0.20192712920E+02  0.31346393322E+02  0.25273929507E+02  0.46142317165E+02  0.99999945613E+01 0.  0.
         12    1    1    2    0    0 -0.20192712920E+02 -0.31346393322E+02 -0.25273929507E+02  0.45045682835E+02  0.00000000000E+00 0. -1.
         11    1    3    3    0    0 -0.26887671786E+00  0.10082458052E+01 -0.84222077618E-01  0.10468753090E+01  0.51100000000E-03 0. -1.
        -11    1    3    3    0    0  0.33031838106E+01  0.10085565914E+02  0.55572338175E+01  0.11979670741E+02  0.51100000000E-03 0.  1.
        -12    1    3    3    0    0  0.17158405828E+02  0.20252581603E+02  0.19800917767E+02  0.33115771115E+02  0.00000000000E+00 0.  1.
</event>
<event>
 7    1  0.2312612E-008  0.4614232E+02  0.7816164E-02  0.1320468E+00
        -11   -1    0    0    0    0  0.00000000000E+00  0.00000000000E+00  0.45593999997E+02  0.45594000000E+02  0.51100000000E-03 0.  1.
         11   -1    0    0    0    0 -0.00000000000E+00 -0.00000000000E+00 -0.45593999997E+02  0.45594000000E+02  0.51100000000E-03 0. -1.
    9900012    2    1    2    0    0  0.12560963844E+02 -0.33522522956E+02  0.27341836400E+02  0.46142319011E+02  0.10000011400E+02 0.  0.
         12    1    1    2    0    0 -0.12560963844E+02  0.33522522956E+02 -0.27341836400E+02  0.45045680989E+02  0.00000000000E+00 0. -1.
         11    1    3    3    0    0 -0.70523539798E+00 -0.54200091732E+01  0.18488365208E+01  0.57699266153E+01  0.51100000000E-03 0.  1.
        -11    1    3    3    0    0  0.95645453523E+00 -0.13509310025E+01  0.25583723281E+01  0.30471444143E+01  0.51100000000E-03 0. -1.
        -12    1    3    3    0    0  0.12309744706E+02 -0.26751582781E+02  0.22934627551E+02  0.37325247982E+02  0.00000000000E+00 0.  1.
</event>
<event>
 7    1  0.2312612E-008  0.4614232E+02  0.7816164E-02  0.1320468E+00
        -11   -1    0    0    0    0  0.00000000000E+00  0.00000000000E+00  0.45593999997E+02  0.45594000000E+02  0.51100000000E-03 0. -1.
         11   -1    0    0    0    0 -0.00000000000E+00 -0.00000000000E+00 -0.45593999997E+02  0.45594000000E+02  0.51100000000E-03 0.  1.
    9900012    2    1    2    0    0  0.29632213927E+02  0.14630272343E+02  0.30610463673E+02  0.46142318106E+02  0.10000003143E+02 0.  0.
         12    1    1    2    0    0 -0.29632213927E+02 -0.14630272343E+02 -0.30610463673E+02  0.45045681894E+02  0.00000000000E+00 0. -1.
         11    1    3    3    0    0  0.11040607461E+02  0.84729783784E+01  0.16033546297E+02  0.21231132396E+02  0.51100000000E-03 0. -1.
        -11    1    3    3    0    0  0.17458350041E+02  0.43926857956E+01  0.13766485099E+02  0.22662872433E+02  0.51100000000E-03 0.  1.
        -12    1    3    3    0    0  0.11332564249E+01  0.17646081693E+01  0.81043227676E+00  0.22483132769E+01  0.00000000000E+00 0.  1.
</event>
<event>
 7    1  0.2312612E-008  0.4614232E+02  0.7816164E-02  0.1320468E+00
        -11   -1    0    0    0    0  0.00000000000E+00  0.00000000000E+00  0.45593999997E+02  0.45594000000E+02  0.51100000000E-03 0.  1.
         11   -1    0    0    0    0 -0.00000000000E+00 -0.00000000000E+00 -0.45593999997E+02  0.45594000000E+02  0.51100000000E-03 0. -1.
    9900012    2    1    2    0    0  0.13003568505E+02  0.43010794832E+02 -0.31768329826E+01  0.46142317257E+02  0.99999954062E+01 0.  0.
         12    1    1    2    0    0 -0.13003568505E+02 -0.43010794832E+02  0.31768329826E+01  0.45045682743E+02  0.00000000000E+00 0. -1.
         11    1    3    3    0    0  0.23404696582E+01  0.56986842017E+01  0.94760047947E-01  0.61613131375E+01  0.51100000000E-03 0. -1.
        -11    1    3    3    0    0  0.66042707831E+01  0.18066951636E+02 -0.59397226941E+01  0.20132348098E+02  0.51100000000E-03 0.  1.
        -12    1    3    3    0    0  0.40588280636E+01  0.19245158994E+02  0.26681296635E+01  0.19848656022E+02  0.00000000000E+00 0.  1.
</event>
<event>
 7    1  0.2312612E-008  0.4614232E+02  0.7816164E-02  0.1320468E+00
        -11   -1    0    0    0    0  0.00000000000E+00  0.00000000000E+00  0.45593999997E+02  0.45594000000E+02  0.51100000000E-03 0. -1.
         11   -1    0    0    0    0 -0.00000000000E+00 -0.00000000000E+00 -0.45593999997E+02  0.45594000000E+02  0.51100000000E-03 0.  1.
    9900012    2    1    2    0    0  0.16217218025E+02  0.23138425624E+02 -0.35081740316E+02  0.46142318693E+02  0.10000008499E+02 0.  0.
         12    1    1    2    0    0 -0.16217218025E+02 -0.23138425624E+02  0.35081740316E+02  0.45045681307E+02  0.00000000000E+00 0. -1.
         11    1    3    3    0    0  0.39316600379E+01  0.23364250890E+01 -0.54804251806E+01  0.71380594892E+01  0.51100000000E-03 0. -1.
        -11    1    3    3    0    0  0.12471498701E+02  0.14943197859E+02 -0.23953719699E+02  0.30864512466E+02  0.51100000000E-03 0.  1.
         12    1    3    3    0    0 -0.18594071376E+00  0.58588026758E+01 -0.56475954361E+01  0.81397467377E+01  0.00000000000E+00 0. -1.
</event>
<event>
 7    1  0.2312612E-008  0.4614232E+02  0.7816164E-02  0.1320468E+00
        -11   -1    0    0    0    0  0.00000000000E+00  0.00000000000E+00  0.45593999997E+02  0.45594000000E+02  0.51100000000E-03 0. -1.
         11   -1    0    0    0    0 -0.00000000000E+00 -0.00000000000E+00 -0.45593999997E+02  0.45594000000E+02  0.51100000000E-03 0.  1.
    9900012    2    1    2    0    0 -0.22518157425E+02 -0.15034015260E+02 -0.36000339600E+02  0.46142317855E+02  0.10000000854E+02 0.  0.
         12    1    1    2    0    0  0.22518157425E+02  0.15034015260E+02  0.36000339600E+02  0.45045682145E+02  0.00000000000E+00 0. -1.
         11    1    3    3    0    0 -0.13714115678E+02 -0.83163999755E+01 -0.16033430962E+02  0.22678412336E+02  0.51100000000E-03 0. -1.
        -11    1    3    3    0    0 -0.35628350496E+01 -0.51150856700E+01 -0.69260822339E+01  0.93181817097E+01  0.51100000000E-03 0.  1.
        -12    1    3    3    0    0 -0.52412066973E+01 -0.16025296141E+01 -0.13040826404E+02  0.14145723810E+02  0.00000000000E+00 0.  1.
</event>
<event>
 7    1  0.2312612E-008  0.4614232E+02  0.7816164E-02  0.1320468E+00
        -11   -1    0    0    0    0  0.00000000000E+00  0.00000000000E+00  0.45593999997E+02  0.45594000000E+02  0.51100000000E-03 0. -1.
         11   -1    0    0    0    0 -0.00000000000E+00 -0.00000000000E+00 -0.45593999997E+02  0.45594000000E+02  0.51100000000E-03 0.  1.
    9900012    2    1    2    0    0  0.23794224358E+02 -0.30268947599E+02 -0.23382455312E+02  0.46142317433E+02  0.99999970058E+01 0.  0.
         12    1    1    2    0    0 -0.23794224358E+02  0.30268947599E+02  0.23382455312E+02  0.45045682567E+02  0.00000000000E+00 0. -1.
         11    1    3    3    0    0  0.14730021751E+02 -0.21325950666E+02 -0.14131305675E+02  0.29520560851E+02  0.51100000000E-03 0. -1.
        -11    1    3    3    0    0  0.48704445418E+01 -0.80646279587E+01 -0.72754969662E+01  0.11903457922E+02  0.51100000000E-03 0.  1.
         12    1    3    3    0    0  0.41937580650E+01 -0.87836897345E+00 -0.19756526708E+01  0.47182986591E+01  0.00000000000E+00 0. -1.
</event>
<event>
 7    1  0.2312612E-008  0.4614231E+02  0.7816164E-02  0.1320468E+00
        -11   -1    0    0    0    0  0.00000000000E+00  0.00000000000E+00  0.45593999997E+02  0.45594000000E+02  0.51100000000E-03 0.  1.
         11   -1    0    0    0    0 -0.00000000000E+00 -0.00000000000E+00 -0.45593999997E+02  0.45594000000E+02  0.51100000000E-03 0. -1.
    9900012    2    1    2    0    0  0.40157204919E+02  0.11340419494E+02  0.16967841857E+02  0.46142313431E+02  0.99999605139E+01 0.  0.
         12    1    1    2    0    0 -0.40157204919E+02 -0.11340419494E+02 -0.16967841857E+02  0.45045686569E+02  0.00000000000E+00 0. -1.
         11    1    3    3    0    0  0.89569561467E+01  0.28688574051E+01  0.22619594141E+01  0.96733586141E+01  0.51100000000E-03 0. -1.
        -11    1    3    3    0    0  0.68137390358E+01  0.20529252050E+01 -0.30402465207E+00  0.71227784463E+01  0.51100000000E-03 0.  1.
        -12    1    3    3    0    0  0.24386509736E+02  0.64186368837E+01  0.15009907095E+02  0.29346176371E+02  0.00000000000E+00 0.  1.
</event>
<event>
 7    1  0.2312612E-008  0.4614232E+02  0.7816164E-02  0.1320468E+00
        -11   -1    0    0    0    0  0.00000000000E+00  0.00000000000E+00  0.45593999997E+02  0.45594000000E+02  0.51100000000E-03 0.  1.
         11   -1    0    0    0    0 -0.00000000000E+00 -0.00000000000E+00 -0.45593999997E+02  0.45594000000E+02  0.51100000000E-03 0. -1.
    9900012    2    1    2    0    0  0.88084653089E+01  0.49455890841E+01  0.43898356995E+02  0.46142315863E+02  0.99999826960E+01 0.  0.
         12    1    1    2    0    0 -0.88084653089E+01 -0.49455890841E+01 -0.43898356995E+02  0.45045684137E+02  0.00000000000E+00 0. -1.
         11    1    3    3    0    0  0.81945908270E+00  0.67900775489E+00  0.10810428241E+02  0.10862684923E+02  0.51100000000E-03 0. -1.
        -11    1    3    3    0    0  0.53941027960E+01  0.62359398318E+01  0.17368825131E+02  0.19226527957E+02  0.51100000000E-03 0.  1.
         12    1    3    3    0    0  0.25949034302E+01 -0.19693585026E+01  0.15719103623E+02  0.16053102984E+02  0.00000000000E+00 0. -1.
</event>
<event>
 7    1  0.2312612E-008  0.4614232E+02  0.7816164E-02  0.1320468E+00
        -11   -1    0    0    0    0  0.00000000000E+00  0.00000000000E+00  0.45593999997E+02  0.45594000000E+02  0.51100000000E-03 0.  1.
         11   -1    0    0    0    0 -0.00000000000E+00 -0.00000000000E+00 -0.45593999997E+02  0.45594000000E+02  0.51100000000E-03 0. -1.
    9900012    2    1    2    0    0  0.10562980341E+02 -0.24341857736E+02  0.36400699527E+02  0.46142317434E+02  0.99999970187E+01 0.  0.
         12    1    1    2    0    0 -0.10562980341E+02  0.24341857736E+02 -0.36400699527E+02  0.45045682566E+02  0.00000000000E+00 0. -1.
         11    1    3    3    0    0 -0.92825684515E+00 -0.48963680912E+01  0.41721745590E+01  0.64994709067E+01  0.51100000000E-03 0. -1.
        -11    1    3    3    0    0  0.26078857514E+01 -0.89792391169E+01  0.13499703204E+02  0.16421625683E+02  0.51100000000E-03 0.  1.
         12    1    3    3    0    0  0.88833514347E+01 -0.10466250528E+02  0.18728821765E+02  0.23221220845E+02  0.00000000000E+00 0. -1.
</event>
<event>
 7    1  0.2312612E-008  0.4614232E+02  0.7816164E-02  0.1320468E+00
        -11   -1    0    0    0    0  0.00000000000E+00  0.00000000000E+00  0.45593999997E+02  0.45594000000E+02  0.51100000000E-03 0.  1.
         11   -1    0    0    0    0 -0.00000000000E+00 -0.00000000000E+00 -0.45593999997E+02  0.45594000000E+02  0.51100000000E-03 0. -1.
    9900012    2    1    2    0    0  0.34338342826E+02 -0.27454840531E+02  0.98093541623E+01  0.46142317790E+02  0.10000000267E+02 0.  0.
         12    1    1    2    0    0 -0.34338342826E+02  0.27454840531E+02 -0.98093541623E+01  0.45045682210E+02  0.00000000000E+00 0. -1.
         11    1    3    3    0    0  0.16590856725E+01 -0.18108652205E+00  0.33997460844E-01  0.16692853817E+01  0.51100000000E-03 0. -1.
        -11    1    3    3    0    0  0.27885249740E+02 -0.20734739171E+02  0.51228309642E+01  0.35124919344E+02  0.51100000000E-03 0.  1.
        -12    1    3    3    0    0  0.47940074134E+01 -0.65390148378E+01  0.46525257372E+01  0.93481130643E+01  0.00000000000E+00 0.  1.
</event>
<event>
 7    1  0.2312612E-008  0.4614232E+02  0.7816164E-02  0.1320468E+00
        -11   -1    0    0    0    0  0.00000000000E+00  0.00000000000E+00  0.45593999997E+02  0.45594000000E+02  0.51100000000E-03 0.  1.
         11   -1    0    0    0    0 -0.00000000000E+00 -0.00000000000E+00 -0.45593999997E+02  0.45594000000E+02  0.51100000000E-03 0. -1.
    9900012    2    1    2    0    0  0.53614559142E+01  0.26889390113E+02  0.35739741471E+02  0.46142316182E+02  0.99999856037E+01 0.  0.
         12    1    1    2    0    0 -0.53614559142E+01 -0.26889390113E+02 -0.35739741471E+02  0.45045683818E+02  0.00000000000E+00 0. -1.
         11    1    3    3    0    0  0.13167298471E+01  0.46763154523E+01  0.38225862598E+01  0.61817367846E+01  0.51100000000E-03 0. -1.
        -11    1    3    3    0    0  0.26764823169E+01  0.11139666695E+01  0.40240703598E+01  0.49595989612E+01  0.51100000000E-03 0.  1.
        -12    1    3    3    0    0  0.13682437502E+01  0.21099107991E+02  0.27893084852E+02  0.35000980437E+02  0.00000000000E+00 0.  1.
</event>
<event>
 7    1  0.2312612E-008  0.4614232E+02  0.7816164E-02  0.1320468E+00
        -11   -1    0    0    0    0  0.00000000000E+00  0.00000000000E+00  0.45593999997E+02  0.45594000000E+02  0.51100000000E-03 0.  1.
         11   -1    0    0    0    0 -0.00000000000E+00 -0.00000000000E+00 -0.45593999997E+02  0.45594000000E+02  0.51100000000E-03 0. -1.
    9900012    2    1    2    0    0  0.92114255140E+01 -0.30845589486E+02  0.31508932858E+02  0.46142316516E+02  0.99999886423E+01 0.  0.
         12    1    1    2    0    0 -0.92114255140E+01  0.30845589486E+02 -0.31508932858E+02  0.45045683484E+02  0.00000000000E+00 0. -1.
         11    1    3    3    0    0  0.35285730325E+01 -0.12643813962E+02  0.95113074702E+01  0.16210546851E+02  0.51100000000E-03 0. -1.
        -11    1    3    3    0    0  0.29753576740E+00 -0.98848108041E+01  0.76854954680E+01  0.12524569973E+02  0.51100000000E-03 0.  1.
         12    1    3    3    0    0  0.53853167142E+01 -0.83169647202E+01  0.14312129920E+02  0.17407199692E+02  0.00000000000E+00 0. -1.
</event>
<event>
 7    1  0.2312612E-008  0.4614232E+02  0.7816164E-02  0.1320468E+00
        -11   -1    0    0    0    0  0.00000000000E+00  0.00000000000E+00  0.45593999997E+02  0.45594000000E+02  0.51100000000E-03 0.  1.
         11   -1    0    0    0    0 -0.00000000000E+00 -0.00000000000E+00 -0.45593999997E+02  0.45594000000E+02  0.51100000000E-03 0. -1.
    9900012    2    1    2    0    0 -0.30297087022E+02 -0.31072519987E+02  0.12070565757E+02  0.46142317209E+02  0.99999949690E+01 0.  0.
         12    1    1    2    0    0  0.30297087022E+02  0.31072519987E+02 -0.12070565757E+02  0.45045682791E+02  0.00000000000E+00 0. -1.
         11    1    3    3    0    0 -0.10486049319E+02 -0.15901633052E+02  0.32619236091E+01  0.19325095341E+02  0.51100000000E-03 0. -1.
        -11    1    3    3    0    0 -0.11089508581E+02 -0.69851643045E+01  0.26799775475E+01  0.13377294227E+02  0.51100000000E-03 0.  1.
        -12    1    3    3    0    0 -0.87215291215E+01 -0.81857226307E+01  0.61286646006E+01  0.13439927641E+02  0.00000000000E+00 0.  1.
</event>
<event>
 7    1  0.2312612E-008  0.4614232E+02  0.7816164E-02  0.1320468E+00
        -11   -1    0    0    0    0  0.00000000000E+00  0.00000000000E+00  0.45593999997E+02  0.45594000000E+02  0.51100000000E-03 0. -1.
         11   -1    0    0    0    0 -0.00000000000E+00 -0.00000000000E+00 -0.45593999997E+02  0.45594000000E+02  0.51100000000E-03 0.  1.
    9900012    2    1    2    0    0  0.37494995778E+02  0.16544460337E+02 -0.18695443845E+02  0.46142317667E+02  0.99999991434E+01 0.  0.
         12    1    1    2    0    0 -0.37494995778E+02 -0.16544460337E+02  0.18695443845E+02  0.45045682333E+02  0.00000000000E+00 0. -1.
         11    1    3    3    0    0  0.22893210111E+02  0.11705332803E+02 -0.96441868288E+01  0.27461322347E+02  0.51100000000E-03 0. -1.
        -11    1    3    3    0    0  0.25419710536E+01  0.19710086027E+01 -0.43792361671E+01  0.54336177100E+01  0.51100000000E-03 0.  1.
         12    1    3    3    0    0  0.12059814614E+02  0.28681189313E+01 -0.46720208494E+01  0.13247377610E+02  0.00000000000E+00 0. -1.
</event>
<event>
 7    1  0.2312612E-008  0.4614232E+02  0.7816164E-02  0.1320468E+00
        -11   -1    0    0    0    0  0.00000000000E+00  0.00000000000E+00  0.45593999997E+02  0.45594000000E+02  0.51100000000E-03 0.  1.
         11   -1    0    0    0    0 -0.00000000000E+00 -0.00000000000E+00 -0.45593999997E+02  0.45594000000E+02  0.51100000000E-03 0. -1.
    9900012    2    1    2    0    0  0.29572520054E+02  0.20889166086E+02  0.26799670049E+02  0.46142317445E+02  0.99999971182E+01 0.  0.
         12    1    1    2    0    0 -0.29572520054E+02 -0.20889166086E+02 -0.26799670049E+02  0.45045682555E+02  0.00000000000E+00 0. -1.
         11    1    3    3    0    0  0.13119209478E+02  0.10197571585E+02  0.13460446614E+02  0.21384287383E+02  0.51100000000E-03 0. -1.
        -11    1    3    3    0    0  0.16390693882E+02  0.10222213123E+02  0.14062472854E+02  0.23893547876E+02  0.51100000000E-03 0.  1.
         12    1    3    3    0    0  0.62616693846E-01  0.46938137798E+00 -0.72324941910E+00  0.86448218638E+00  0.00000000000E+00 0. -1.
</event>
<event>
 7    1  0.2312612E-008  0.4614232E+02  0.7816164E-02  0.1320468E+00
        -11   -1    0    0    0    0  0.00000000000E+00  0.00000000000E+00  0.45593999997E+02  0.45594000000E+02  0.51100000000E-03 0.  1.
         11   -1    0    0    0    0 -0.00000000000E+00 -0.00000000000E+00 -0.45593999997E+02  0.45594000000E+02  0.51100000000E-03 0. -1.
    9900012    2    1    2    0    0  0.20596875221E+02 -0.40028490637E+02  0.16131472942E+01  0.46142316791E+02  0.99999911535E+01 0.  0.
         12    1    1    2    0    0 -0.20596875221E+02  0.40028490637E+02 -0.16131472942E+01  0.45045683209E+02  0.00000000000E+00 0. -1.
         11    1    3    3    0    0 -0.68393530498E+00 -0.30629925701E+01  0.37120575631E+00  0.31602982392E+01  0.51100000000E-03 0. -1.
        -11    1    3    3    0    0  0.20404520070E+02 -0.35727433242E+02  0.20400191112E+00  0.41144082714E+02  0.51100000000E-03 0.  1.
        -12    1    3    3    0    0  0.87629045602E+00 -0.12380648256E+01  0.10379396267E+01  0.18379358380E+01  0.00000000000E+00 0.  1.
</event>
<event>
 7    1  0.2312612E-008  0.4614232E+02  0.7816164E-02  0.1320468E+00
        -11   -1    0    0    0    0  0.00000000000E+00  0.00000000000E+00  0.45593999997E+02  0.45594000000E+02  0.51100000000E-03 0.  1.
         11   -1    0    0    0    0 -0.00000000000E+00 -0.00000000000E+00 -0.45593999997E+02  0.45594000000E+02  0.51100000000E-03 0. -1.
    9900012    2    1    2    0    0 -0.40605241272E+01  0.41275800386E+02  0.17576516912E+02  0.46142317627E+02  0.99999987759E+01 0.  0.
         12    1    1    2    0    0  0.40605241272E+01 -0.41275800386E+02 -0.17576516912E+02  0.45045682373E+02  0.00000000000E+00 0. -1.
         11    1    3    3    0    0 -0.15406383509E+01  0.70347887602E+01  0.53193694701E+01  0.89530727267E+01  0.51100000000E-03 0.  1.
        -11    1    3    3    0    0 -0.14565305287E+01  0.21428436799E+02  0.11370684711E+02  0.24302095709E+02  0.51100000000E-03 0. -1.
         12    1    3    3    0    0 -0.10633552476E+01  0.12812574827E+02  0.88646273068E+00  0.12887149191E+02  0.00000000000E+00 0. -1.
</event>
<event>
 7    1  0.2312612E-008  0.4614232E+02  0.7816164E-02  0.1320468E+00
        -11   -1    0    0    0    0  0.00000000000E+00  0.00000000000E+00  0.45593999997E+02  0.45594000000E+02  0.51100000000E-03 0.  1.
         11   -1    0    0    0    0 -0.00000000000E+00 -0.00000000000E+00 -0.45593999997E+02  0.45594000000E+02  0.51100000000E-03 0. -1.
    9900012    2    1    2    0    0  0.31749008874E+02 -0.14878539704E+02  0.28279727321E+02  0.46142317792E+02  0.10000000284E+02 0.  0.
         12    1    1    2    0    0 -0.31749008874E+02  0.14878539704E+02 -0.28279727321E+02  0.45045682208E+02  0.00000000000E+00 0. -1.
         11    1    3    3    0    0  0.34843938805E+01 -0.14265958324E+01  0.36721886376E+00  0.37829917180E+01  0.51100000000E-03 0. -1.
        -11    1    3    3    0    0  0.10687624357E+02 -0.27815232990E+01  0.72618150935E+01  0.13217266925E+02  0.51100000000E-03 0.  1.
        -12    1    3    3    0    0  0.17576990636E+02 -0.10670420573E+02  0.20650693364E+02  0.29142059149E+02  0.00000000000E+00 0.  1.
</event>
<event>
 7    1  0.2312612E-008  0.4614232E+02  0.7816164E-02  0.1320468E+00
        -11   -1    0    0    0    0  0.00000000000E+00  0.00000000000E+00  0.45593999997E+02  0.45594000000E+02  0.51100000000E-03 0. -1.
         11   -1    0    0    0    0 -0.00000000000E+00 -0.00000000000E+00 -0.45593999997E+02  0.45594000000E+02  0.51100000000E-03 0.  1.
    9900012    2    1    2    0    0  0.20960869358E+02  0.56240067317E+01 -0.39473104807E+02  0.46142317642E+02  0.99999989169E+01 0.  0.
         12    1    1    2    0    0 -0.20960869358E+02 -0.56240067317E+01  0.39473104807E+02  0.45045682358E+02  0.00000000000E+00 0. -1.
         11    1    3    3    0    0  0.20504559168E+01 -0.84616725916E+00 -0.82746589096E+01  0.85668167266E+01  0.51100000000E-03 0. -1.
        -11    1    3    3    0    0  0.11881200349E+02  0.56246275772E+01 -0.15297419436E+02  0.20169541363E+02  0.51100000000E-03 0.  1.
        -12    1    3    3    0    0  0.70292130917E+01  0.84554641366E+00 -0.15901026462E+02  0.17405959553E+02  0.00000000000E+00 0.  1.
</event>
<event>
 7    1  0.2312612E-008  0.4614232E+02  0.7816164E-02  0.1320468E+00
        -11   -1    0    0    0    0  0.00000000000E+00  0.00000000000E+00  0.45593999997E+02  0.45594000000E+02  0.51100000000E-03 0.  1.
         11   -1    0    0    0    0 -0.00000000000E+00 -0.00000000000E+00 -0.45593999997E+02  0.45594000000E+02  0.51100000000E-03 0. -1.
    9900012    2    1    2    0    0 -0.39006313235E+02  0.22530232029E+02 -0.99185728225E-01  0.46142315797E+02  0.99999820940E+01 0.  0.
         12    1    1    2    0    0  0.39006313235E+02 -0.22530232029E+02  0.99185728225E-01  0.45045684203E+02  0.00000000000E+00 0. -1.
         11    1    3    3    0    0 -0.56789450706E+01  0.13819588977E+01  0.11410129314E+01  0.59550095114E+01  0.51100000000E-03 0.  1.
        -11    1    3    3    0    0 -0.13827547249E+02  0.12759274047E+02  0.10013162310E+01  0.18841517232E+02  0.51100000000E-03 0. -1.
        -12    1    3    3    0    0 -0.19499820915E+02  0.83889990848E+01 -0.22415148907E+01  0.21345789055E+02  0.00000000000E+00 0.  1.
</event>
<event>
 7    1  0.2312612E-008  0.4614232E+02  0.7816164E-02  0.1320468E+00
        -11   -1    0    0    0    0  0.00000000000E+00  0.00000000000E+00  0.45593999997E+02  0.45594000000E+02  0.51100000000E-03 0.  1.
         11   -1    0    0    0    0 -0.00000000000E+00 -0.00000000000E+00 -0.45593999997E+02  0.45594000000E+02  0.51100000000E-03 0. -1.
    9900012    2    1    2    0    0 -0.31943772270E+02  0.38744670468E+01  0.31522967930E+02  0.46142316646E+02  0.99999898297E+01 0.  0.
         12    1    1    2    0    0  0.31943772270E+02 -0.38744670468E+01 -0.31522967930E+02  0.45045683354E+02  0.00000000000E+00 0. -1.
         11    1    3    3    0    0 -0.18162713522E+02  0.34474772538E+01  0.18912545791E+02  0.26447186059E+02  0.51100000000E-03 0. -1.
        -11    1    3    3    0    0 -0.86790004574E+01  0.26600256950E+01  0.10119002407E+02  0.13593932309E+02  0.51100000000E-03 0.  1.
         12    1    3    3    0    0 -0.51020582915E+01 -0.22330359020E+01  0.24914197312E+01  0.61011982779E+01  0.00000000000E+00 0. -1.
</event>
<event>
 7    1  0.2312612E-008  0.4614232E+02  0.7816164E-02  0.1320468E+00
        -11   -1    0    0    0    0  0.00000000000E+00  0.00000000000E+00  0.45593999997E+02  0.45594000000E+02  0.51100000000E-03 0.  1.
         11   -1    0    0    0    0 -0.00000000000E+00 -0.00000000000E+00 -0.45593999997E+02  0.45594000000E+02  0.51100000000E-03 0. -1.
    9900012    2    1    2    0    0  0.33551822704E+02  0.13898367470E+01  0.30024274407E+02  0.46142317559E+02  0.99999981560E+01 0.  0.
         12    1    1    2    0    0 -0.33551822704E+02 -0.13898367470E+01 -0.30024274407E+02  0.45045682441E+02  0.00000000000E+00 0. -1.
         11    1    3    3    0    0  0.84600361922E+01 -0.11834615156E+00  0.45226063747E+01  0.95937577031E+01  0.51100000000E-03 0. -1.
        -11    1    3    3    0    0  0.66098790193E+00  0.15499546463E+01  0.10612221803E+01  0.19913455725E+01  0.51100000000E-03 0.  1.
        -12    1    3    3    0    0  0.24430798610E+02 -0.41771747659E-01  0.24440445852E+02  0.34557214283E+02  0.00000000000E+00 0.  1.
</event>
<event>
 7    1  0.2312612E-008  0.4614232E+02  0.7816164E-02  0.1320468E+00
        -11   -1    0    0    0    0  0.00000000000E+00  0.00000000000E+00  0.45593999997E+02  0.45594000000E+02  0.51100000000E-03 0.  1.
         11   -1    0    0    0    0 -0.00000000000E+00 -0.00000000000E+00 -0.45593999997E+02  0.45594000000E+02  0.51100000000E-03 0. -1.
    9900012    2    1    2    0    0 -0.28839783073E+01 -0.23658677620E+02  0.38223855068E+02  0.46142318144E+02  0.10000003489E+02 0.  0.
         12    1    1    2    0    0  0.28839783073E+01  0.23658677620E+02 -0.38223855068E+02  0.45045681856E+02  0.00000000000E+00 0. -1.
         11    1    3    3    0    0  0.22587913403E+01 -0.13955241750E+01  0.23029488455E+01  0.35147118926E+01  0.51100000000E-03 0.  1.
        -11    1    3    3    0    0 -0.22353779231E+01 -0.89738267797E+01  0.12611302653E+02  0.15638779889E+02  0.51100000000E-03 0. -1.
        -12    1    3    3    0    0 -0.29073917245E+01 -0.13289326665E+02  0.23309603570E+02  0.26988826363E+02  0.00000000000E+00 0.  1.
</event>
<event>
 7    1  0.2312612E-008  0.4614232E+02  0.7816164E-02  0.1320468E+00
        -11   -1    0    0    0    0  0.00000000000E+00  0.00000000000E+00  0.45593999997E+02  0.45594000000E+02  0.51100000000E-03 0. -1.
         11   -1    0    0    0    0 -0.00000000000E+00 -0.00000000000E+00 -0.45593999997E+02  0.45594000000E+02  0.51100000000E-03 0.  1.
    9900012    2    1    2    0    0 -0.19737588055E+02 -0.27389311577E+02 -0.29822252190E+02  0.46142317670E+02  0.99999991699E+01 0.  0.
         12    1    1    2    0    0  0.19737588055E+02  0.27389311577E+02  0.29822252190E+02  0.45045682330E+02  0.00000000000E+00 0. -1.
         11    1    3    3    0    0 -0.46684010610E+01 -0.24426839234E+01 -0.46686972634E+01  0.70397022390E+01  0.51100000000E-03 0. -1.
        -11    1    3    3    0    0 -0.12503558374E+01 -0.26602579273E+01 -0.58295485816E+01  0.65287057589E+01  0.51100000000E-03 0.  1.
        -12    1    3    3    0    0 -0.13818831156E+02 -0.22286369726E+02 -0.19324006345E+02  0.32573909672E+02  0.00000000000E+00 0.  1.
</event>
<event>
 7    1  0.2312612E-008  0.4614232E+02  0.7816164E-02  0.1320468E+00
        -11   -1    0    0    0    0  0.00000000000E+00  0.00000000000E+00  0.45593999997E+02  0.45594000000E+02  0.51100000000E-03 0.  1.
         11   -1    0    0    0    0 -0.00000000000E+00 -0.00000000000E+00 -0.45593999997E+02  0.45594000000E+02  0.51100000000E-03 0. -1.
    9900012    2    1    2    0    0  0.55777455882E+01  0.18167570173E+02  0.40840443706E+02  0.46142315479E+02  0.99999791942E+01 0.  0.
         12    1    1    2    0    0 -0.55777455882E+01 -0.18167570173E+02 -0.40840443706E+02  0.45045684521E+02  0.00000000000E+00 0. -1.
         11    1    3    3    0    0  0.93276392610E+00  0.68007718900E+01  0.68725228812E+01  0.97135018328E+01  0.51100000000E-03 0. -1.
        -11    1    3    3    0    0  0.11603933662E+01  0.86106284180E+01  0.23626803608E+02  0.25173702221E+02  0.51100000000E-03 0.  1.
         12    1    3    3    0    0  0.34845882959E+01  0.27561698646E+01  0.10341117216E+02  0.11255111425E+02  0.00000000000E+00 0. -1.
</event>
<event>
 7    1  0.2312612E-008  0.4614232E+02  0.7816164E-02  0.1320468E+00
        -11   -1    0    0    0    0  0.00000000000E+00  0.00000000000E+00  0.45593999997E+02  0.45594000000E+02  0.51100000000E-03 0. -1.
         11   -1    0    0    0    0 -0.00000000000E+00 -0.00000000000E+00 -0.45593999997E+02  0.45594000000E+02  0.51100000000E-03 0.  1.
    9900012    2    1    2    0    0  0.37775487901E+02 -0.24516839258E+02 -0.10250206002E+01  0.46142316960E+02  0.99999926919E+01 0.  0.
         12    1    1    2    0    0 -0.37775487901E+02  0.24516839258E+02  0.10250206002E+01  0.45045683040E+02  0.00000000000E+00 0. -1.
         11    1    3    3    0    0  0.11809142036E+02 -0.78965843569E+01 -0.89837337688E-01  0.14206334895E+02  0.51100000000E-03 0.  1.
        -11    1    3    3    0    0  0.52261442027E+01 -0.17698833661E+00 -0.15730999974E+01  0.54606365894E+01  0.51100000000E-03 0. -1.
         12    1    3    3    0    0  0.20740201662E+02 -0.16443266564E+02  0.63791673484E+00  0.26475345475E+02  0.00000000000E+00 0. -1.
</event>
<event>
 7    1  0.2312612E-008  0.4614232E+02  0.7816164E-02  0.1320468E+00
        -11   -1    0    0    0    0  0.00000000000E+00  0.00000000000E+00  0.45593999997E+02  0.45594000000E+02  0.51100000000E-03 0.  1.
         11   -1    0    0    0    0 -0.00000000000E+00 -0.00000000000E+00 -0.45593999997E+02  0.45594000000E+02  0.51100000000E-03 0. -1.
    9900012    2    1    2    0    0  0.59199462877E+01  0.26612041888E+02  0.35858986281E+02  0.46142318358E+02  0.10000005443E+02 0.  0.
         12    1    1    2    0    0 -0.59199462877E+01 -0.26612041888E+02 -0.35858986281E+02  0.45045681642E+02  0.00000000000E+00 0. -1.
         11    1    3    3    0    0 -0.28061522680E+00 -0.41130890659E+00  0.62676755288E+00  0.80047345279E+00  0.51100000000E-03 0. -1.
        -11    1    3    3    0    0 -0.98252207969E+00  0.22307710659E+01  0.14828678533E+01  0.28531713087E+01  0.51100000000E-03 0.  1.
         12    1    3    3    0    0  0.71830835942E+01  0.24792579729E+02  0.33749350875E+02  0.42488673596E+02  0.00000000000E+00 0. -1.
</event>
<event>
 7    1  0.2312612E-008  0.4614232E+02  0.7816164E-02  0.1320468E+00
        -11   -1    0    0    0    0  0.00000000000E+00  0.00000000000E+00  0.45593999997E+02  0.45594000000E+02  0.51100000000E-03 0. -1.
         11   -1    0    0    0    0 -0.00000000000E+00 -0.00000000000E+00 -0.45593999997E+02  0.45594000000E+02  0.51100000000E-03 0.  1.
    9900012    2    1    2    0    0  0.68546318506E+01 -0.44404557832E+02 -0.32191297056E+01  0.46142317298E+02  0.99999957733E+01 0.  0.
         12    1    1    2    0    0 -0.68546318506E+01  0.44404557832E+02  0.32191297056E+01  0.45045682702E+02  0.00000000000E+00 0. -1.
         11    1    3    3    0    0  0.56895783102E+01 -0.12177497751E+02 -0.19593393763E+01  0.13583142637E+02  0.51100000000E-03 0. -1.
        -11    1    3    3    0    0  0.21349027529E+01 -0.26366716079E+02 -0.22035071203E+01  0.26544622251E+02  0.51100000000E-03 0.  1.
        -12    1    3    3    0    0 -0.96984921244E+00 -0.58603440018E+01  0.94371679097E+00  0.60145524103E+01  0.00000000000E+00 0.  1.
</event>
<event>
 7    1  0.2312612E-008  0.4614232E+02  0.7816164E-02  0.1320468E+00
        -11   -1    0    0    0    0  0.00000000000E+00  0.00000000000E+00  0.45593999997E+02  0.45594000000E+02  0.51100000000E-03 0.  1.
         11   -1    0    0    0    0 -0.00000000000E+00 -0.00000000000E+00 -0.45593999997E+02  0.45594000000E+02  0.51100000000E-03 0. -1.
    9900012    2    1    2    0    0  0.20938523164E+02 -0.20618699665E+02  0.34140313490E+02  0.46142317261E+02  0.99999954413E+01 0.  0.
         12    1    1    2    0    0 -0.20938523164E+02  0.20618699665E+02 -0.34140313490E+02  0.45045682739E+02  0.00000000000E+00 0. -1.
         11    1    3    3    0    0  0.15301984286E+02 -0.16744916036E+02  0.20053378344E+02  0.30276738917E+02  0.51100000000E-03 0. -1.
        -11    1    3    3    0    0  0.12557372719E+01  0.25218038773E+00  0.24212138998E+01  0.27391144652E+01  0.51100000000E-03 0.  1.
         12    1    3    3    0    0  0.43808016065E+01 -0.41259640172E+01  0.11665721246E+02  0.13126463879E+02  0.00000000000E+00 0. -1.
</event>
<event>
 7    1  0.2312612E-008  0.4614232E+02  0.7816164E-02  0.1320468E+00
        -11   -1    0    0    0    0  0.00000000000E+00  0.00000000000E+00  0.45593999997E+02  0.45594000000E+02  0.51100000000E-03 0.  1.
         11   -1    0    0    0    0 -0.00000000000E+00 -0.00000000000E+00 -0.45593999997E+02  0.45594000000E+02  0.51100000000E-03 0. -1.
    9900012    2    1    2    0    0  0.41114431762E+01  0.22587327695E+01  0.44800755260E+02  0.46142317515E+02  0.99999977516E+01 0.  0.
         12    1    1    2    0    0 -0.41114431762E+01 -0.22587327695E+01 -0.44800755260E+02  0.45045682485E+02  0.00000000000E+00 0. -1.
         11    1    3    3    0    0 -0.15578568917E+01 -0.90132199355E+00  0.24717071964E+02  0.24782512911E+02  0.51100000000E-03 0. -1.
        -11    1    3    3    0    0  0.31744520063E+01  0.33951504150E+00  0.61891587886E+01  0.69640579245E+01  0.51100000000E-03 0.  1.
        -12    1    3    3    0    0  0.24948480616E+01  0.28205397215E+01  0.13894524507E+02  0.14395746679E+02  0.00000000000E+00 0.  1.
</event>
<event>
 7    1  0.2312612E-008  0.4614232E+02  0.7816164E-02  0.1320468E+00
        -11   -1    0    0    0    0  0.00000000000E+00  0.00000000000E+00  0.45593999997E+02  0.45594000000E+02  0.51100000000E-03 0. -1.
         11   -1    0    0    0    0 -0.00000000000E+00 -0.00000000000E+00 -0.45593999997E+02  0.45594000000E+02  0.51100000000E-03 0.  1.
    9900012    2    1    2    0    0 -0.39456583852E+02 -0.20895276779E+02  0.59731619215E+01  0.46142320249E+02  0.10000022683E+02 0.  0.
         12    1    1    2    0    0  0.39456583852E+02  0.20895276779E+02 -0.59731619215E+01  0.45045679751E+02  0.00000000000E+00 0. -1.
         11    1    3    3    0    0 -0.14137746355E+02 -0.11483473928E+02  0.32894380107E+01  0.18508550676E+02  0.51100000000E-03 0. -1.
        -11    1    3    3    0    0 -0.93942535262E+01 -0.94772144309E+00  0.34176022710E+00  0.94481202132E+01  0.51100000000E-03 0.  1.
        -12    1    3    3    0    0 -0.15924583971E+02 -0.84640814081E+01  0.23419636837E+01  0.18185649359E+02  0.00000000000E+00 0.  1.
</event>
<event>
 7    1  0.2312612E-008  0.4614232E+02  0.7816164E-02  0.1320468E+00
        -11   -1    0    0    0    0  0.00000000000E+00  0.00000000000E+00  0.45593999997E+02  0.45594000000E+02  0.51100000000E-03 0.  1.
         11   -1    0    0    0    0 -0.00000000000E+00 -0.00000000000E+00 -0.45593999997E+02  0.45594000000E+02  0.51100000000E-03 0. -1.
    9900012    2    1    2    0    0 -0.14012706847E+02  0.68681885868E+01  0.42256188766E+02  0.46142318113E+02  0.10000003209E+02 0.  0.
         12    1    1    2    0    0  0.14012706847E+02 -0.68681885868E+01 -0.42256188766E+02  0.45045681887E+02  0.00000000000E+00 0. -1.
         11    1    3    3    0    0 -0.89160764102E+00 -0.97831110459E+00  0.53025047202E+01  0.54652185109E+01  0.51100000000E-03 0. -1.
        -11    1    3    3    0    0 -0.36851461373E+01  0.98809628587E+00  0.18167915758E+02  0.18564207485E+02  0.51100000000E-03 0.  1.
         12    1    3    3    0    0 -0.94359530690E+01  0.68584034055E+01  0.18785768288E+02  0.22112892117E+02  0.00000000000E+00 0. -1.
</event>
<event>
 7    1  0.2312612E-008  0.4614232E+02  0.7816164E-02  0.1320468E+00
        -11   -1    0    0    0    0  0.00000000000E+00  0.00000000000E+00  0.45593999997E+02  0.45594000000E+02  0.51100000000E-03 0.  1.
         11   -1    0    0    0    0 -0.00000000000E+00 -0.00000000000E+00 -0.45593999997E+02  0.45594000000E+02  0.51100000000E-03 0. -1.
    9900012    2    1    2    0    0  0.12870727304E+02  0.30619238640E+02  0.30428935145E+02  0.46142317740E+02  0.99999998061E+01 0.  0.
         12    1    1    2    0    0 -0.12870727304E+02 -0.30619238640E+02 -0.30428935145E+02  0.45045682260E+02  0.00000000000E+00 0. -1.
         11    1    3    3    0    0  0.75650239687E-01  0.66626121483E+01  0.48506018171E+01  0.82416298053E+01  0.51100000000E-03 0. -1.
        -11    1    3    3    0    0  0.13230531819E+01  0.60164591892E+01  0.29564811701E+01  0.68329372943E+01  0.51100000000E-03 0.  1.
         12    1    3    3    0    0  0.11472023882E+02  0.17940167302E+02  0.22621852158E+02  0.31067750640E+02  0.00000000000E+00 0. -1.
</event>
<event>
 7    1  0.2312612E-008  0.4614232E+02  0.7816164E-02  0.1320468E+00
        -11   -1    0    0    0    0  0.00000000000E+00  0.00000000000E+00  0.45593999997E+02  0.45594000000E+02  0.51100000000E-03 0.  1.
         11   -1    0    0    0    0 -0.00000000000E+00 -0.00000000000E+00 -0.45593999997E+02  0.45594000000E+02  0.51100000000E-03 0. -1.
    9900012    2    1    2    0    0  0.68389221709E+00  0.29112283793E+02  0.34367436557E+02  0.46142317946E+02  0.10000001686E+02 0.  0.
         12    1    1    2    0    0 -0.68389221709E+00 -0.29112283793E+02 -0.34367436557E+02  0.45045682054E+02  0.00000000000E+00 0. -1.
         11    1    3    3    0    0 -0.29206132370E+01  0.10659257065E+02  0.12370319452E+02  0.16588385891E+02  0.51100000000E-03 0. -1.
        -11    1    3    3    0    0  0.21674002782E+01  0.16362845571E+02  0.15762916134E+02  0.22823449881E+02  0.51100000000E-03 0.  1.
         12    1    3    3    0    0  0.14371051758E+01  0.20901811570E+01  0.62342009707E+01  0.67304821743E+01  0.00000000000E+00 0. -1.
</event>
<event>
 7    1  0.2312612E-008  0.4614232E+02  0.7816164E-02  0.1320468E+00
        -11   -1    0    0    0    0  0.00000000000E+00  0.00000000000E+00  0.45593999997E+02  0.45594000000E+02  0.51100000000E-03 0.  1.
         11   -1    0    0    0    0 -0.00000000000E+00 -0.00000000000E+00 -0.45593999997E+02  0.45594000000E+02  0.51100000000E-03 0. -1.
    9900012    2    1    2    0    0 -0.40767725408E+02 -0.16795037567E+02  0.92213239703E+01  0.46142317215E+02  0.99999950165E+01 0.  0.
         12    1    1    2    0    0  0.40767725408E+02  0.16795037567E+02 -0.92213239703E+01  0.45045682785E+02  0.00000000000E+00 0. -1.
         11    1    3    3    0    0 -0.13070407189E+02 -0.83653033376E+01  0.11070179404E+01  0.15557613345E+02  0.51100000000E-03 0. -1.
        -11    1    3    3    0    0 -0.14179154220E+02 -0.15187656568E+01  0.30760055097E+01  0.14588244366E+02  0.51100000000E-03 0.  1.
         12    1    3    3    0    0 -0.13518163999E+02 -0.69109685731E+01  0.50383005203E+01  0.15996459504E+02  0.00000000000E+00 0. -1.
</event>
<event>
 7    1  0.2312612E-008  0.4614232E+02  0.7816164E-02  0.1320468E+00
        -11   -1    0    0    0    0  0.00000000000E+00  0.00000000000E+00  0.45593999997E+02  0.45594000000E+02  0.51100000000E-03 0. -1.
         11   -1    0    0    0    0 -0.00000000000E+00 -0.00000000000E+00 -0.45593999997E+02  0.45594000000E+02  0.51100000000E-03 0.  1.
    9900012    2    1    2    0    0  0.13640467353E+02  0.41141540895E+02  0.12264777511E+02  0.46142317585E+02  0.99999983967E+01 0.  0.
         12    1    1    2    0    0 -0.13640467353E+02 -0.41141540895E+02 -0.12264777511E+02  0.45045682415E+02  0.00000000000E+00 0. -1.
         11    1    3    3    0    0  0.33995341594E+00  0.22430266789E+01  0.13125163080E+01  0.26209609549E+01  0.51100000000E-03 0. -1.
        -11    1    3    3    0    0  0.10096564812E+00  0.75139763989E+01  0.48161938427E+01  0.89255677006E+01  0.51100000000E-03 0.  1.
        -12    1    3    3    0    0  0.13199548289E+02  0.31384537817E+02  0.61360673601E+01  0.34595788930E+02  0.00000000000E+00 0.  1.
</event>
<event>
 7    1  0.2312612E-008  0.4614232E+02  0.7816164E-02  0.1320468E+00
        -11   -1    0    0    0    0  0.00000000000E+00  0.00000000000E+00  0.45593999997E+02  0.45594000000E+02  0.51100000000E-03 0.  1.
         11   -1    0    0    0    0 -0.00000000000E+00 -0.00000000000E+00 -0.45593999997E+02  0.45594000000E+02  0.51100000000E-03 0. -1.
    9900012    2    1    2    0    0 -0.95812835026E+01  0.35079365128E+02  0.26584776918E+02  0.46142320794E+02  0.10000027658E+02 0.  0.
         12    1    1    2    0    0  0.95812835026E+01 -0.35079365128E+02 -0.26584776918E+02  0.45045679206E+02  0.00000000000E+00 0. -1.
         11    1    3    3    0    0 -0.33377471113E+01  0.83885800013E+01  0.90765957754E+01  0.12802086601E+02  0.51100000000E-03 0. -1.
        -11    1    3    3    0    0 -0.25360051644E+01  0.22247124920E+01  0.36836919255E+01  0.49950229558E+01  0.51100000000E-03 0.  1.
        -12    1    3    3    0    0 -0.37075312269E+01  0.24466072635E+02  0.13824489217E+02  0.28345211237E+02  0.00000000000E+00 0.  1.
</event>
<event>
 7    1  0.2312612E-008  0.4614232E+02  0.7816164E-02  0.1320468E+00
        -11   -1    0    0    0    0  0.00000000000E+00  0.00000000000E+00  0.45593999997E+02  0.45594000000E+02  0.51100000000E-03 0. -1.
         11   -1    0    0    0    0 -0.00000000000E+00 -0.00000000000E+00 -0.45593999997E+02  0.45594000000E+02  0.51100000000E-03 0.  1.
    9900012    2    1    2    0    0  0.39900868104E+02 -0.15969912140E+02 -0.13490590244E+02  0.46142318804E+02  0.10000009514E+02 0.  0.
         12    1    1    2    0    0 -0.39900868104E+02  0.15969912140E+02  0.13490590244E+02  0.45045681196E+02  0.00000000000E+00 0. -1.
         11    1    3    3    0    0  0.74918780659E+01 -0.52696363466E+01 -0.22168438412E+00  0.91622294452E+01  0.51100000000E-03 0. -1.
        -11    1    3    3    0    0  0.11962120671E+02 -0.55676089593E+01 -0.30013758455E+01  0.13531402651E+02  0.51100000000E-03 0.  1.
        -12    1    3    3    0    0  0.20446869368E+02 -0.51326668342E+01 -0.10267530014E+02  0.23448686708E+02  0.00000000000E+00 0.  1.
</event>
<event>
 7    1  0.2312612E-008  0.4614232E+02  0.7816164E-02  0.1320468E+00
        -11   -1    0    0    0    0  0.00000000000E+00  0.00000000000E+00  0.45593999997E+02  0.45594000000E+02  0.51100000000E-03 0. -1.
         11   -1    0    0    0    0 -0.00000000000E+00 -0.00000000000E+00 -0.45593999997E+02  0.45594000000E+02  0.51100000000E-03 0.  1.
    9900012    2    1    2    0    0  0.25937102263E+02  0.54161913655E+01 -0.36428628336E+02  0.46142319128E+02  0.10000012468E+02 0.  0.
         12    1    1    2    0    0 -0.25937102263E+02 -0.54161913655E+01  0.36428628336E+02  0.45045680872E+02  0.00000000000E+00 0. -1.
         11    1    3    3    0    0  0.32278177154E+00  0.60831287283E+00 -0.19861844423E+01  0.21021801834E+01  0.51100000000E-03 0. -1.
        -11    1    3    3    0    0  0.13476603828E+02 -0.18367597933E+01 -0.17562258905E+02  0.22213182468E+02  0.51100000000E-03 0.  1.
        -12    1    3    3    0    0  0.12137716664E+02  0.66446382860E+01 -0.16880184989E+02  0.21826956477E+02  0.00000000000E+00 0.  1.
</event>
<event>
 7    1  0.2312612E-008  0.4614232E+02  0.7816164E-02  0.1320468E+00
        -11   -1    0    0    0    0  0.00000000000E+00  0.00000000000E+00  0.45593999997E+02  0.45594000000E+02  0.51100000000E-03 0.  1.
         11   -1    0    0    0    0 -0.00000000000E+00 -0.00000000000E+00 -0.45593999997E+02  0.45594000000E+02  0.51100000000E-03 0. -1.
    9900012    2    1    2    0    0  0.37615369435E+02 -0.14935701665E+02  0.19776810083E+02  0.46142318531E+02  0.10000007018E+02 0.  0.
         12    1    1    2    0    0 -0.37615369435E+02  0.14935701665E+02 -0.19776810083E+02  0.45045681469E+02  0.00000000000E+00 0. -1.
         11    1    3    3    0    0  0.69268554772E+00 -0.10945924391E+01  0.18242201917E+01  0.22373478596E+01  0.51100000000E-03 0.  1.
        -11    1    3    3    0    0  0.21704318168E+02 -0.75400786494E+01  0.14203666310E+02  0.27012485078E+02  0.51100000000E-03 0. -1.
        -12    1    3    3    0    0  0.15218365719E+02 -0.63010305766E+01  0.37489235813E+01  0.16892485593E+02  0.00000000000E+00 0.  1.
</event>
<event>
 7    1  0.2312612E-008  0.4614232E+02  0.7816164E-02  0.1320468E+00
        -11   -1    0    0    0    0  0.00000000000E+00  0.00000000000E+00  0.45593999997E+02  0.45594000000E+02  0.51100000000E-03 0.  1.
         11   -1    0    0    0    0 -0.00000000000E+00 -0.00000000000E+00 -0.45593999997E+02  0.45594000000E+02  0.51100000000E-03 0. -1.
    9900012    2    1    2    0    0  0.36296177263E+02  0.13316763425E+02  0.23116331237E+02  0.46142318277E+02  0.10000004706E+02 0.  0.
         12    1    1    2    0    0 -0.36296177263E+02 -0.13316763425E+02 -0.23116331237E+02  0.45045681723E+02  0.00000000000E+00 0. -1.
         11    1    3    3    0    0  0.25307003598E+02  0.77526174517E+01  0.15979143762E+02  0.30917317867E+02  0.51100000000E-03 0. -1.
        -11    1    3    3    0    0  0.88775462692E+01  0.21432671550E+01  0.63638471676E+01  0.11131171227E+02  0.51100000000E-03 0.  1.
        -12    1    3    3    0    0  0.21116273954E+01  0.34208788181E+01  0.77334030768E+00  0.40938291826E+01  0.00000000000E+00 0.  1.
</event>
<event>
 7    1  0.2312612E-008  0.4614232E+02  0.7816164E-02  0.1320468E+00
        -11   -1    0    0    0    0  0.00000000000E+00  0.00000000000E+00  0.45593999997E+02  0.45594000000E+02  0.51100000000E-03 0. -1.
         11   -1    0    0    0    0 -0.00000000000E+00 -0.00000000000E+00 -0.45593999997E+02  0.45594000000E+02  0.51100000000E-03 0.  1.
    9900012    2    1    2    0    0 -0.43771099290E+02 -0.87825008132E+01 -0.60060099066E+01  0.46142316427E+02  0.99999878320E+01 0.  0.
         12    1    1    2    0    0  0.43771099290E+02  0.87825008132E+01  0.60060099066E+01  0.45045683573E+02  0.00000000000E+00 0. -1.
         11    1    3    3    0    0 -0.67127657903E+01  0.14680494072E+01 -0.91248998141E+00  0.69317408957E+01  0.51100000000E-03 0. -1.
        -11    1    3    3    0    0 -0.21991081791E+02 -0.47039484037E+01 -0.54936880083E+01  0.23149847021E+02  0.51100000000E-03 0.  1.
        -12    1    3    3    0    0 -0.15067251709E+02 -0.55466018167E+01  0.40016808313E+00  0.16060728510E+02  0.00000000000E+00 0.  1.
</event>
<event>
 7    1  0.2312612E-008  0.4614232E+02  0.7816164E-02  0.1320468E+00
        -11   -1    0    0    0    0  0.00000000000E+00  0.00000000000E+00  0.45593999997E+02  0.45594000000E+02  0.51100000000E-03 0.  1.
         11   -1    0    0    0    0 -0.00000000000E+00 -0.00000000000E+00 -0.45593999997E+02  0.45594000000E+02  0.51100000000E-03 0. -1.
    9900012    2    1    2    0    0 -0.81098218562E+01 -0.94826605519E+01  0.43283061704E+02  0.46142317719E+02  0.99999996154E+01 0.  0.
         12    1    1    2    0    0  0.81098218562E+01  0.94826605519E+01 -0.43283061704E+02  0.45045682281E+02  0.00000000000E+00 0. -1.
         11    1    3    3    0    0 -0.40696647068E+01 -0.77833258747E+01  0.29203757121E+02  0.30495930265E+02  0.51100000000E-03 0. -1.
        -11    1    3    3    0    0 -0.46500988888E+01 -0.27951403440E+01  0.12522188133E+02  0.13647029901E+02  0.51100000000E-03 0.  1.
         12    1    3    3    0    0  0.60994173938E+00  0.10958056668E+01  0.15571164507E+01  0.19993575533E+01  0.00000000000E+00 0. -1.
</event>
<event>
 7    1  0.2312612E-008  0.4614232E+02  0.7816164E-02  0.1320468E+00
        -11   -1    0    0    0    0  0.00000000000E+00  0.00000000000E+00  0.45593999997E+02  0.45594000000E+02  0.51100000000E-03 0.  1.
         11   -1    0    0    0    0 -0.00000000000E+00 -0.00000000000E+00 -0.45593999997E+02  0.45594000000E+02  0.51100000000E-03 0. -1.
    9900012    2    1    2    0    0 -0.14116443628E+02  0.87075145434E+01  0.41881006827E+02  0.46142317376E+02  0.99999964889E+01 0.  0.
         12    1    1    2    0    0  0.14116443628E+02 -0.87075145434E+01 -0.41881006827E+02  0.45045682624E+02  0.00000000000E+00 0. -1.
         11    1    3    3    0    0 -0.23424080461E+01 -0.36855957368E-02  0.74521278591E+01  0.78116002795E+01  0.51100000000E-03 0. -1.
        -11    1    3    3    0    0 -0.80102523141E+01  0.48639785768E+01  0.29776964795E+02  0.31216823387E+02  0.51100000000E-03 0.  1.
        -12    1    3    3    0    0 -0.37637832676E+01  0.38472215623E+01  0.46519141729E+01  0.71138937093E+01  0.00000000000E+00 0.  1.
</event>
<event>
 7    1  0.2312612E-008  0.4614232E+02  0.7816164E-02  0.1320468E+00
        -11   -1    0    0    0    0  0.00000000000E+00  0.00000000000E+00  0.45593999997E+02  0.45594000000E+02  0.51100000000E-03 0. -1.
         11   -1    0    0    0    0 -0.00000000000E+00 -0.00000000000E+00 -0.45593999997E+02  0.45594000000E+02  0.51100000000E-03 0.  1.
    9900012    2    1    2    0    0 -0.29502232371E+02  0.95200134519E+01 -0.32681815091E+02  0.46142318646E+02  0.10000008067E+02 0.  0.
         12    1    1    2    0    0  0.29502232371E+02 -0.95200134519E+01  0.32681815091E+02  0.45045681354E+02  0.00000000000E+00 0. -1.
         11    1    3    3    0    0 -0.86534808507E+01  0.51411202753E+01 -0.53625733338E+01  0.11404869203E+02  0.51100000000E-03 0. -1.
        -11    1    3    3    0    0 -0.93325355852E+01  0.76274029813E+00 -0.11167096313E+02  0.14573332959E+02  0.51100000000E-03 0.  1.
         12    1    3    3    0    0 -0.11516215936E+02  0.36161528785E+01 -0.16152145444E+02  0.20164116484E+02  0.00000000000E+00 0. -1.
</event>
<event>
 7    1  0.2312612E-008  0.4614232E+02  0.7816164E-02  0.1320468E+00
        -11   -1    0    0    0    0  0.00000000000E+00  0.00000000000E+00  0.45593999997E+02  0.45594000000E+02  0.51100000000E-03 0.  1.
         11   -1    0    0    0    0 -0.00000000000E+00 -0.00000000000E+00 -0.45593999997E+02  0.45594000000E+02  0.51100000000E-03 0. -1.
    9900012    2    1    2    0    0 -0.27856026909E+02  0.76870251536E+01  0.34555245705E+02  0.46142316560E+02  0.99999890439E+01 0.  0.
         12    1    1    2    0    0  0.27856026909E+02 -0.76870251536E+01 -0.34555245705E+02  0.45045683440E+02  0.00000000000E+00 0. -1.
         11    1    3    3    0    0 -0.62144518028E+01 -0.68305889034E+00  0.32827042198E+01  0.70613120532E+01  0.51100000000E-03 0. -1.
        -11    1    3    3    0    0 -0.11761142313E+02  0.61934468153E+01  0.16793749814E+02  0.21417592886E+02  0.51100000000E-03 0.  1.
         12    1    3    3    0    0 -0.98804327934E+01  0.21766372287E+01  0.14478791671E+02  0.17663411620E+02  0.00000000000E+00 0. -1.
</event>
<event>
 7    1  0.2312612E-008  0.4614232E+02  0.7816164E-02  0.1320468E+00
        -11   -1    0    0    0    0  0.00000000000E+00  0.00000000000E+00  0.45593999997E+02  0.45594000000E+02  0.51100000000E-03 0.  1.
         11   -1    0    0    0    0 -0.00000000000E+00 -0.00000000000E+00 -0.45593999997E+02  0.45594000000E+02  0.51100000000E-03 0. -1.
    9900012    2    1    2    0    0  0.26021356506E+02 -0.23336748526E+02  0.28414761348E+02  0.46142317758E+02  0.99999999678E+01 0.  0.
         12    1    1    2    0    0 -0.26021356506E+02  0.23336748526E+02 -0.28414761348E+02  0.45045682242E+02  0.00000000000E+00 0. -1.
         11    1    3    3    0    0  0.14771614368E+02 -0.18134663969E+02  0.18640360874E+02  0.29908689074E+02  0.51100000000E-03 0. -1.
        -11    1    3    3    0    0  0.56667841943E+01 -0.44433187085E+01  0.43523663597E+01  0.84141914312E+01  0.51100000000E-03 0.  1.
         12    1    3    3    0    0  0.55829579436E+01 -0.75876584866E+00  0.54220341144E+01  0.78194372528E+01  0.00000000000E+00 0. -1.
</event>
<event>
 7    1  0.2312612E-008  0.4614232E+02  0.7816164E-02  0.1320468E+00
        -11   -1    0    0    0    0  0.00000000000E+00  0.00000000000E+00  0.45593999997E+02  0.45594000000E+02  0.51100000000E-03 0. -1.
         11   -1    0    0    0    0 -0.00000000000E+00 -0.00000000000E+00 -0.45593999997E+02  0.45594000000E+02  0.51100000000E-03 0.  1.
    9900012    2    1    2    0    0  0.57330504898E+01 -0.43311530279E+02  0.10970734611E+02  0.46142317177E+02  0.99999946776E+01 0.  0.
         12    1    1    2    0    0 -0.57330504898E+01  0.43311530279E+02 -0.10970734611E+02  0.45045682823E+02  0.00000000000E+00 0. -1.
         11    1    3    3    0    0 -0.14687725768E+00 -0.24528476156E+01  0.29693908857E+01  0.38542595718E+01  0.51100000000E-03 0.  1.
        -11    1    3    3    0    0  0.39026632354E+00 -0.75590785827E+01  0.31235128917E+01  0.81883032350E+01  0.51100000000E-03 0. -1.
        -12    1    3    3    0    0  0.54896614239E+01 -0.33299604081E+02  0.48778308341E+01  0.34099754371E+02  0.00000000000E+00 0.  1.
</event>
<event>
 7    1  0.2312612E-008  0.4614232E+02  0.7816164E-02  0.1320468E+00
        -11   -1    0    0    0    0  0.00000000000E+00  0.00000000000E+00  0.45593999997E+02  0.45594000000E+02  0.51100000000E-03 0. -1.
         11   -1    0    0    0    0 -0.00000000000E+00 -0.00000000000E+00 -0.45593999997E+02  0.45594000000E+02  0.51100000000E-03 0.  1.
    9900012    2    1    2    0    0 -0.30521261262E+02  0.25515647204E+02  0.21130969322E+02  0.46142317568E+02  0.99999982396E+01 0.  0.
         12    1    1    2    0    0  0.30521261262E+02 -0.25515647204E+02 -0.21130969322E+02  0.45045682432E+02  0.00000000000E+00 0. -1.
         11    1    3    3    0    0 -0.74794548807E+01  0.47811431745E+01  0.51415860073E+01  0.10258532171E+02  0.51100000000E-03 0. -1.
        -11    1    3    3    0    0 -0.23317211774E+02  0.20047921756E+02  0.14050744094E+02  0.33808799765E+02  0.51100000000E-03 0.  1.
        -12    1    3    3    0    0  0.27540539293E+00  0.68658227354E+00  0.19386392202E+01  0.20749856325E+01  0.00000000000E+00 0.  1.
</event>
<event>
 7    1  0.2312612E-008  0.4614232E+02  0.7816164E-02  0.1320468E+00
        -11   -1    0    0    0    0  0.00000000000E+00  0.00000000000E+00  0.45593999997E+02  0.45594000000E+02  0.51100000000E-03 0. -1.
         11   -1    0    0    0    0 -0.00000000000E+00 -0.00000000000E+00 -0.45593999997E+02  0.45594000000E+02  0.51100000000E-03 0.  1.
    9900012    2    1    2    0    0 -0.85353113846E+01 -0.10831863852E+02 -0.42882777681E+02  0.46142318336E+02  0.10000005246E+02 0.  0.
         12    1    1    2    0    0  0.85353113846E+01  0.10831863852E+02  0.42882777681E+02  0.45045681664E+02  0.00000000000E+00 0. -1.
         11    1    3    3    0    0 -0.12777556230E+01 -0.17538926683E+01 -0.19279627908E+02  0.19401362103E+02  0.51100000000E-03 0. -1.
        -11    1    3    3    0    0 -0.45724861733E+01 -0.52138188595E+01 -0.87770491109E+01  0.11186068490E+02  0.51100000000E-03 0.  1.
        -12    1    3    3    0    0 -0.26850695883E+01 -0.38641523241E+01 -0.14826100662E+02  0.15554887744E+02  0.00000000000E+00 0.  1.
</event>
<event>
 7    1  0.2312612E-008  0.4614232E+02  0.7816164E-02  0.1320468E+00
        -11   -1    0    0    0    0  0.00000000000E+00  0.00000000000E+00  0.45593999997E+02  0.45594000000E+02  0.51100000000E-03 0. -1.
         11   -1    0    0    0    0 -0.00000000000E+00 -0.00000000000E+00 -0.45593999997E+02  0.45594000000E+02  0.51100000000E-03 0.  1.
    9900012    2    1    2    0    0  0.74742412894E+01 -0.15042818331E+02 -0.41796683305E+02  0.46142318725E+02  0.10000008793E+02 0.  0.
         12    1    1    2    0    0 -0.74742412894E+01  0.15042818331E+02  0.41796683305E+02  0.45045681275E+02  0.00000000000E+00 0. -1.
         11    1    3    3    0    0  0.36978362446E+01 -0.13726317654E+01 -0.14397916143E+02  0.14928432616E+02  0.51100000000E-03 0. -1.
        -11    1    3    3    0    0  0.26092703945E+01 -0.79066142041E+01 -0.20633750396E+02  0.22250269568E+02  0.51100000000E-03 0.  1.
        -12    1    3    3    0    0  0.11671346503E+01 -0.57635723619E+01 -0.67650167659E+01  0.89636165417E+01  0.00000000000E+00 0.  1.
</event>
<event>
 7    1  0.2312612E-008  0.4614232E+02  0.7816164E-02  0.1320468E+00
        -11   -1    0    0    0    0  0.00000000000E+00  0.00000000000E+00  0.45593999997E+02  0.45594000000E+02  0.51100000000E-03 0. -1.
         11   -1    0    0    0    0 -0.00000000000E+00 -0.00000000000E+00 -0.45593999997E+02  0.45594000000E+02  0.51100000000E-03 0.  1.
    9900012    2    1    2    0    0 -0.42735196092E+02 -0.42918959326E+01 -0.13579254724E+02  0.46142317470E+02  0.99999973452E+01 0.  0.
         12    1    1    2    0    0  0.42735196092E+02  0.42918959326E+01  0.13579254724E+02  0.45045682530E+02  0.00000000000E+00 0. -1.
         11    1    3    3    0    0 -0.10905580821E+02 -0.35261290215E-01 -0.23683965836E+01  0.11159849419E+02  0.51100000000E-03 0. -1.
        -11    1    3    3    0    0 -0.19084011667E+02 -0.33014185083E+01 -0.10842277567E+02  0.22195807004E+02  0.51100000000E-03 0.  1.
        -12    1    3    3    0    0 -0.12745603604E+02 -0.95521613409E+00 -0.36858057312E+00  0.12786661047E+02  0.00000000000E+00 0.  1.
</event>
<event>
 7    1  0.2312612E-008  0.4614233E+02  0.7816164E-02  0.1320468E+00
        -11   -1    0    0    0    0  0.00000000000E+00  0.00000000000E+00  0.45593999997E+02  0.45594000000E+02  0.51100000000E-03 0.  1.
         11   -1    0    0    0    0 -0.00000000000E+00 -0.00000000000E+00 -0.45593999997E+02  0.45594000000E+02  0.51100000000E-03 0. -1.
    9900012    2    1    2    0    0 -0.15590835896E+02  0.95502384477E+01  0.41168323489E+02  0.46142333425E+02  0.10000142831E+02 0.  0.
         12    1    1    2    0    0  0.15590835896E+02 -0.95502384477E+01 -0.41168323489E+02  0.45045666575E+02  0.00000000000E+00 0. -1.
         11    1    3    3    0    0 -0.38647850906E+00  0.15039559769E+01  0.17417934364E+01  0.23334724885E+01  0.51100000000E-03 0. -1.
        -11    1    3    3    0    0 -0.13233645260E+01 -0.56969205172E+00  0.39186408811E+00  0.14931176870E+01  0.51100000000E-03 0.  1.
        -12    1    3    3    0    0 -0.13880992861E+02  0.86159745224E+01  0.39034665964E+02  0.42315743249E+02  0.00000000000E+00 0.  1.
</event>
<event>
 7    1  0.2312612E-008  0.4614232E+02  0.7816164E-02  0.1320468E+00
        -11   -1    0    0    0    0  0.00000000000E+00  0.00000000000E+00  0.45593999997E+02  0.45594000000E+02  0.51100000000E-03 0. -1.
         11   -1    0    0    0    0 -0.00000000000E+00 -0.00000000000E+00 -0.45593999997E+02  0.45594000000E+02  0.51100000000E-03 0.  1.
    9900012    2    1    2    0    0 -0.59090992831E+01 -0.42374980307E+02  0.14091024692E+02  0.46142318884E+02  0.10000010240E+02 0.  0.
         12    1    1    2    0    0  0.59090992831E+01  0.42374980307E+02 -0.14091024692E+02  0.45045681116E+02  0.00000000000E+00 0. -1.
         11    1    3    3    0    0 -0.34455420975E+01 -0.15957135087E+02  0.66234322575E+01  0.17617371418E+02  0.51100000000E-03 0. -1.
        -11    1    3    3    0    0  0.25618240226E+01 -0.65161720018E+01  0.20530418128E+01  0.72964663246E+01  0.51100000000E-03 0.  1.
         12    1    3    3    0    0 -0.50253812082E+01 -0.19901673218E+02  0.54145506215E+01  0.21228481142E+02  0.00000000000E+00 0. -1.
</event>
<event>
 7    1  0.2312612E-008  0.4614232E+02  0.7816164E-02  0.1320468E+00
        -11   -1    0    0    0    0  0.00000000000E+00  0.00000000000E+00  0.45593999997E+02  0.45594000000E+02  0.51100000000E-03 0. -1.
         11   -1    0    0    0    0 -0.00000000000E+00 -0.00000000000E+00 -0.45593999997E+02  0.45594000000E+02  0.51100000000E-03 0.  1.
    9900012    2    1    2    0    0  0.24853071487E+02 -0.33090187196E+02 -0.17789822721E+02  0.46142318260E+02  0.10000004550E+02 0.  0.
         12    1    1    2    0    0 -0.24853071487E+02  0.33090187196E+02  0.17789822721E+02  0.45045681740E+02  0.00000000000E+00 0. -1.
         11    1    3    3    0    0  0.85629996224E+01 -0.13677000976E+02 -0.96659292365E+01  0.18809984223E+02  0.51100000000E-03 0. -1.
        -11    1    3    3    0    0  0.32765995584E+01 -0.84098235571E+01 -0.21956515366E+01  0.92888170861E+01  0.51100000000E-03 0.  1.
        -12    1    3    3    0    0  0.13013472306E+02 -0.11003362663E+02 -0.59282419480E+01  0.18043516950E+02  0.00000000000E+00 0.  1.
</event>
<event>
 7    1  0.2312612E-008  0.4614232E+02  0.7816164E-02  0.1320468E+00
        -11   -1    0    0    0    0  0.00000000000E+00  0.00000000000E+00  0.45593999997E+02  0.45594000000E+02  0.51100000000E-03 0. -1.
         11   -1    0    0    0    0 -0.00000000000E+00 -0.00000000000E+00 -0.45593999997E+02  0.45594000000E+02  0.51100000000E-03 0.  1.
    9900012    2    1    2    0    0 -0.44944578593E+02 -0.37382369424E+00 -0.29930783617E+01  0.46142318663E+02  0.10000008220E+02 0.  0.
         12    1    1    2    0    0  0.44944578593E+02  0.37382369424E+00  0.29930783617E+01  0.45045681337E+02  0.00000000000E+00 0. -1.
         11    1    3    3    0    0 -0.78092178290E+01  0.97385208056E+00  0.65545188612E+00  0.78969543757E+01  0.51100000000E-03 0. -1.
        -11    1    3    3    0    0 -0.22759731020E+02  0.33404345076E+00 -0.61004354716E+01  0.23565488629E+02  0.51100000000E-03 0.  1.
        -12    1    3    3    0    0 -0.14375629745E+02 -0.16817192256E+01  0.24519052237E+01  0.14679875658E+02  0.00000000000E+00 0.  1.
</event>
<event>
 7    1  0.2312612E-008  0.4614232E+02  0.7816164E-02  0.1320468E+00
        -11   -1    0    0    0    0  0.00000000000E+00  0.00000000000E+00  0.45593999997E+02  0.45594000000E+02  0.51100000000E-03 0.  1.
         11   -1    0    0    0    0 -0.00000000000E+00 -0.00000000000E+00 -0.45593999997E+02  0.45594000000E+02  0.51100000000E-03 0. -1.
    9900012    2    1    2    0    0 -0.14907082341E+01  0.22114310723E+02  0.39215411021E+02  0.46142318616E+02  0.10000007792E+02 0.  0.
         12    1    1    2    0    0  0.14907082341E+01 -0.22114310723E+02 -0.39215411021E+02  0.45045681384E+02  0.00000000000E+00 0. -1.
         11    1    3    3    0    0  0.39006007967E+00  0.29226544920E+00  0.20407648152E+00  0.52840650070E+00  0.51100000000E-03 0. -1.
        -11    1    3    3    0    0 -0.33481135983E+00  0.18439140569E+02  0.24689371773E+02  0.30816863603E+02  0.51100000000E-03 0.  1.
         12    1    3    3    0    0 -0.15459569539E+01  0.33829047055E+01  0.14321962767E+02  0.14797048512E+02  0.00000000000E+00 0. -1.
</event>
<event>
 7    1  0.2312612E-008  0.4614232E+02  0.7816164E-02  0.1320468E+00
        -11   -1    0    0    0    0  0.00000000000E+00  0.00000000000E+00  0.45593999997E+02  0.45594000000E+02  0.51100000000E-03 0.  1.
         11   -1    0    0    0    0 -0.00000000000E+00 -0.00000000000E+00 -0.45593999997E+02  0.45594000000E+02  0.51100000000E-03 0. -1.
    9900012    2    1    2    0    0 -0.25142937395E+02  0.16773878835E+01  0.37338085193E+02  0.46142317223E+02  0.99999950974E+01 0.  0.
         12    1    1    2    0    0  0.25142937395E+02 -0.16773878835E+01 -0.37338085193E+02  0.45045682777E+02  0.00000000000E+00 0. -1.
         11    1    3    3    0    0 -0.65887027315E+01  0.38613113508E+01  0.10624197756E+02  0.13084124245E+02  0.51100000000E-03 0. -1.
        -11    1    3    3    0    0 -0.71907087070E+01 -0.17178972529E+01  0.15047110036E+02  0.16765231384E+02  0.51100000000E-03 0.  1.
        -12    1    3    3    0    0 -0.11363525956E+02 -0.46602621441E+00  0.11666777400E+02  0.16292961594E+02  0.00000000000E+00 0.  1.
</event>
<event>
 7    1  0.2312612E-008  0.4614231E+02  0.7816164E-02  0.1320468E+00
        -11   -1    0    0    0    0  0.00000000000E+00  0.00000000000E+00  0.45593999997E+02  0.45594000000E+02  0.51100000000E-03 0.  1.
         11   -1    0    0    0    0 -0.00000000000E+00 -0.00000000000E+00 -0.45593999997E+02  0.45594000000E+02  0.51100000000E-03 0. -1.
    9900012    2    1    2    0    0 -0.20198638699E+02 -0.22322792940E+02  0.33508539975E+02  0.46142308295E+02  0.99999136790E+01 0.  0.
         12    1    1    2    0    0  0.20198638699E+02  0.22322792940E+02 -0.33508539975E+02  0.45045691705E+02  0.00000000000E+00 0. -1.
         11    1    3    3    0    0 -0.15163965500E+01 -0.54378447593E+00  0.14664808896E+01  0.21784688462E+01  0.51100000000E-03 0. -1.
        -11    1    3    3    0    0 -0.17538707438E+02 -0.22375957195E+02  0.31791775014E+02  0.42649814511E+02  0.51100000000E-03 0.  1.
        -12    1    3    3    0    0 -0.11435347106E+01  0.59694873046E+00  0.25028407108E+00  0.13140249379E+01  0.00000000000E+00 0.  1.
</event>
<event>
 7    1  0.2312612E-008  0.4614232E+02  0.7816164E-02  0.1320468E+00
        -11   -1    0    0    0    0  0.00000000000E+00  0.00000000000E+00  0.45593999997E+02  0.45594000000E+02  0.51100000000E-03 0.  1.
         11   -1    0    0    0    0 -0.00000000000E+00 -0.00000000000E+00 -0.45593999997E+02  0.45594000000E+02  0.51100000000E-03 0. -1.
    9900012    2    1    2    0    0 -0.10019482599E+01 -0.24352229471E+02  0.37882429398E+02  0.46142318325E+02  0.10000005138E+02 0.  0.
         12    1    1    2    0    0  0.10019482599E+01  0.24352229471E+02 -0.37882429398E+02  0.45045681675E+02  0.00000000000E+00 0. -1.
         11    1    3    3    0    0 -0.11188678389E+01  0.10626555532E+00  0.57911330286E+00  0.12643298967E+01  0.51100000000E-03 0. -1.
        -11    1    3    3    0    0 -0.11531978461E+01 -0.83495826218E+01  0.93350368196E+01  0.12577293346E+02  0.51100000000E-03 0.  1.
        -12    1    3    3    0    0  0.12701174251E+01 -0.16108912404E+02  0.27968279275E+02  0.32300695082E+02  0.00000000000E+00 0.  1.
</event>
<event>
 7    1  0.2312612E-008  0.4614232E+02  0.7816164E-02  0.1320468E+00
        -11   -1    0    0    0    0  0.00000000000E+00  0.00000000000E+00  0.45593999997E+02  0.45594000000E+02  0.51100000000E-03 0. -1.
         11   -1    0    0    0    0 -0.00000000000E+00 -0.00000000000E+00 -0.45593999997E+02  0.45594000000E+02  0.51100000000E-03 0.  1.
    9900012    2    1    2    0    0  0.87144400696E+01 -0.43067859471E+02 -0.99162275015E+01  0.46142317044E+02  0.99999934608E+01 0.  0.
         12    1    1    2    0    0 -0.87144400696E+01  0.43067859471E+02  0.99162275015E+01  0.45045682956E+02  0.00000000000E+00 0. -1.
         11    1    3    3    0    0  0.11102198661E+01 -0.94093945254E+01 -0.55752192405E+01  0.10993287194E+02  0.51100000000E-03 0. -1.
        -11    1    3    3    0    0  0.15840284619E+01 -0.74623521538E+01  0.11503144430E+01  0.77148602978E+01  0.51100000000E-03 0.  1.
        -12    1    3    3    0    0  0.60201917416E+01 -0.26196112792E+02 -0.54913227040E+01  0.27434169552E+02  0.00000000000E+00 0.  1.
</event>
<event>
 7    1  0.2312612E-008  0.4614232E+02  0.7816164E-02  0.1320468E+00
        -11   -1    0    0    0    0  0.00000000000E+00  0.00000000000E+00  0.45593999997E+02  0.45594000000E+02  0.51100000000E-03 0.  1.
         11   -1    0    0    0    0 -0.00000000000E+00 -0.00000000000E+00 -0.45593999997E+02  0.45594000000E+02  0.51100000000E-03 0. -1.
    9900012    2    1    2    0    0 -0.16777435199E+02  0.39910003615E+02  0.12442783354E+02  0.46142316766E+02  0.99999909295E+01 0.  0.
         12    1    1    2    0    0  0.16777435199E+02 -0.39910003615E+02 -0.12442783354E+02  0.45045683234E+02  0.00000000000E+00 0. -1.
         11    1    3    3    0    0  0.68643678384E-01  0.14622617978E+01 -0.41073474931E+00  0.15204028464E+01  0.51100000000E-03 0. -1.
        -11    1    3    3    0    0 -0.12863267374E+02  0.19594831063E+02  0.77633598239E+01  0.24691917867E+02  0.51100000000E-03 0.  1.
        -12    1    3    3    0    0 -0.39828115029E+01  0.18852910754E+02  0.50901582795E+01  0.19929996053E+02  0.00000000000E+00 0.  1.
</event>
<event>
 7    1  0.2312612E-008  0.4614232E+02  0.7816164E-02  0.1320468E+00
        -11   -1    0    0    0    0  0.00000000000E+00  0.00000000000E+00  0.45593999997E+02  0.45594000000E+02  0.51100000000E-03 0. -1.
         11   -1    0    0    0    0 -0.00000000000E+00 -0.00000000000E+00 -0.45593999997E+02  0.45594000000E+02  0.51100000000E-03 0.  1.
    9900012    2    1    2    0    0  0.40052618138E+02  0.13102228139E+02 -0.15913293442E+02  0.46142317520E+02  0.99999978034E+01 0.  0.
         12    1    1    2    0    0 -0.40052618138E+02 -0.13102228139E+02  0.15913293442E+02  0.45045682480E+02  0.00000000000E+00 0. -1.
         11    1    3    3    0    0  0.59015950950E+01  0.39045098725E+01 -0.63617817942E+00  0.71048395441E+01  0.51100000000E-03 0. -1.
        -11    1    3    3    0    0  0.22978996566E+02  0.55027283493E+01 -0.69760219433E+01  0.24636947556E+02  0.51100000000E-03 0.  1.
         12    1    3    3    0    0  0.11172026477E+02  0.36949899174E+01 -0.83010933191E+01  0.14400530420E+02  0.00000000000E+00 0. -1.
</event>
<event>
 7    1  0.2312612E-008  0.4614232E+02  0.7816164E-02  0.1320468E+00
        -11   -1    0    0    0    0  0.00000000000E+00  0.00000000000E+00  0.45593999997E+02  0.45594000000E+02  0.51100000000E-03 0.  1.
         11   -1    0    0    0    0 -0.00000000000E+00 -0.00000000000E+00 -0.45593999997E+02  0.45594000000E+02  0.51100000000E-03 0. -1.
    9900012    2    1    2    0    0 -0.40179330188E+02  0.10243401773E+02  0.17601354113E+02  0.46142317401E+02  0.99999967120E+01 0.  0.
         12    1    1    2    0    0  0.40179330188E+02 -0.10243401773E+02 -0.17601354113E+02  0.45045682599E+02  0.00000000000E+00 0. -1.
         11    1    3    3    0    0 -0.49703656894E-02 -0.64678191415E-01 -0.34021893322E+00  0.34634831690E+00  0.51100000000E-03 0. -1.
        -11    1    3    3    0    0 -0.49871080990E+01 -0.22402833675E+00  0.43844794185E+01  0.66441775954E+01  0.51100000000E-03 0.  1.
        -12    1    3    3    0    0 -0.35187251723E+02  0.10532108301E+02  0.13557093628E+02  0.39151791488E+02  0.00000000000E+00 0.  1.
</event>
<event>
 7    1  0.2312612E-008  0.4614232E+02  0.7816164E-02  0.1320468E+00
        -11   -1    0    0    0    0  0.00000000000E+00  0.00000000000E+00  0.45593999997E+02  0.45594000000E+02  0.51100000000E-03 0.  1.
         11   -1    0    0    0    0 -0.00000000000E+00 -0.00000000000E+00 -0.45593999997E+02  0.45594000000E+02  0.51100000000E-03 0. -1.
    9900012    2    1    2    0    0  0.20661227388E+02 -0.11910310548E+02  0.38214808997E+02  0.46142318285E+02  0.10000004774E+02 0.  0.
         12    1    1    2    0    0 -0.20661227388E+02  0.11910310548E+02 -0.38214808997E+02  0.45045681715E+02  0.00000000000E+00 0. -1.
         11    1    3    3    0    0  0.27148643382E+01 -0.10776546977E+01  0.11923643504E+01  0.31549264694E+01  0.51100000000E-03 0. -1.
        -11    1    3    3    0    0  0.16073287684E+01 -0.32801013956E+01  0.43103576540E+01  0.56499340086E+01  0.51100000000E-03 0.  1.
        -12    1    3    3    0    0  0.16339034282E+02 -0.75525544544E+01  0.32712086993E+02  0.37337457807E+02  0.00000000000E+00 0.  1.
</event>
<event>
 7    1  0.2312612E-008  0.4614232E+02  0.7816164E-02  0.1320468E+00
        -11   -1    0    0    0    0  0.00000000000E+00  0.00000000000E+00  0.45593999997E+02  0.45594000000E+02  0.51100000000E-03 0.  1.
         11   -1    0    0    0    0 -0.00000000000E+00 -0.00000000000E+00 -0.45593999997E+02  0.45594000000E+02  0.51100000000E-03 0. -1.
    9900012    2    1    2    0    0  0.22895394851E+02 -0.32839491430E+02  0.20651444895E+02  0.46142317864E+02  0.10000000941E+02 0.  0.
         12    1    1    2    0    0 -0.22895394851E+02  0.32839491430E+02 -0.20651444895E+02  0.45045682136E+02  0.00000000000E+00 0. -1.
         11    1    3    3    0    0  0.22929197951E+02 -0.29187412297E+02  0.18538926891E+02  0.41489094540E+02  0.51100000000E-03 0. -1.
        -11    1    3    3    0    0  0.10790572647E+00 -0.27871983487E+00 -0.36034842119E+00  0.46816625031E+00  0.51100000000E-03 0.  1.
        -12    1    3    3    0    0 -0.14170882620E+00 -0.33733592988E+01  0.24728664254E+01  0.41850570735E+01  0.00000000000E+00 0.  1.
</event>
<event>
 7    1  0.2312612E-008  0.4614232E+02  0.7816164E-02  0.1320468E+00
        -11   -1    0    0    0    0  0.00000000000E+00  0.00000000000E+00  0.45593999997E+02  0.45594000000E+02  0.51100000000E-03 0.  1.
         11   -1    0    0    0    0 -0.00000000000E+00 -0.00000000000E+00 -0.45593999997E+02  0.45594000000E+02  0.51100000000E-03 0. -1.
    9900012    2    1    2    0    0  0.24602168060E+02  0.23519637402E+02  0.29507176197E+02  0.46142318033E+02  0.10000002476E+02 0.  0.
         12    1    1    2    0    0 -0.24602168060E+02 -0.23519637402E+02 -0.29507176197E+02  0.45045681967E+02  0.00000000000E+00 0. -1.
         11    1    3    3    0    0  0.17102775485E+02  0.21197606675E+02  0.23637348279E+02  0.36063384366E+02  0.51100000000E-03 0. -1.
        -11    1    3    3    0    0  0.18796755887E+01  0.16959453334E+01  0.16230118938E+01  0.30072543559E+01  0.51100000000E-03 0.  1.
         12    1    3    3    0    0  0.56197169860E+01  0.62608539391E+00  0.42468160244E+01  0.70716793103E+01  0.00000000000E+00 0. -1.
</event>
<event>
 7    1  0.2312612E-008  0.4614232E+02  0.7816164E-02  0.1320468E+00
        -11   -1    0    0    0    0  0.00000000000E+00  0.00000000000E+00  0.45593999997E+02  0.45594000000E+02  0.51100000000E-03 0.  1.
         11   -1    0    0    0    0 -0.00000000000E+00 -0.00000000000E+00 -0.45593999997E+02  0.45594000000E+02  0.51100000000E-03 0. -1.
    9900012    2    1    2    0    0  0.38289701393E+02  0.19738407511E+02  0.13168426678E+02  0.46142318464E+02  0.10000006408E+02 0.  0.
         12    1    1    2    0    0 -0.38289701393E+02 -0.19738407511E+02 -0.13168426678E+02  0.45045681536E+02  0.00000000000E+00 0. -1.
         11    1    3    3    0    0  0.10307809879E+02  0.71821778372E+01  0.64719872635E+01  0.14132276617E+02  0.51100000000E-03 0. -1.
        -11    1    3    3    0    0  0.18443038113E+01  0.17742497170E+01 -0.93419437881E+00  0.27243601094E+01  0.51100000000E-03 0.  1.
        -12    1    3    3    0    0  0.26137587703E+02  0.10781979957E+02  0.76306337938E+01  0.29285681737E+02  0.00000000000E+00 0.  1.
</event>
<event>
 7    1  0.2312612E-008  0.4614232E+02  0.7816164E-02  0.1320468E+00
        -11   -1    0    0    0    0  0.00000000000E+00  0.00000000000E+00  0.45593999997E+02  0.45594000000E+02  0.51100000000E-03 0.  1.
         11   -1    0    0    0    0 -0.00000000000E+00 -0.00000000000E+00 -0.45593999997E+02  0.45594000000E+02  0.51100000000E-03 0. -1.
    9900012    2    1    2    0    0  0.35401097989E+01 -0.19162086794E+01  0.44865456060E+02  0.46142318957E+02  0.10000010908E+02 0.  0.
         12    1    1    2    0    0 -0.35401097989E+01  0.19162086794E+01 -0.44865456060E+02  0.45045681043E+02  0.00000000000E+00 0. -1.
         11    1    3    3    0    0  0.80747822145E-01 -0.12941872406E+01  0.75450732822E+00  0.15002407787E+01  0.51100000000E-03 0. -1.
        -11    1    3    3    0    0  0.33745971795E+01 -0.10483726875E+01  0.11555597701E+02  0.12083825136E+02  0.51100000000E-03 0.  1.
         12    1    3    3    0    0  0.84764797242E-01  0.42635124871E+00  0.32555351031E+02  0.32558253043E+02  0.00000000000E+00 0. -1.
</event>
<event>
 7    1  0.2312612E-008  0.4614232E+02  0.7816164E-02  0.1320468E+00
        -11   -1    0    0    0    0  0.00000000000E+00  0.00000000000E+00  0.45593999997E+02  0.45594000000E+02  0.51100000000E-03 0.  1.
         11   -1    0    0    0    0 -0.00000000000E+00 -0.00000000000E+00 -0.45593999997E+02  0.45594000000E+02  0.51100000000E-03 0. -1.
    9900012    2    1    2    0    0  0.22385546797E+02 -0.39037047239E+02  0.20272351893E+01  0.46142318241E+02  0.10000004380E+02 0.  0.
         12    1    1    2    0    0 -0.22385546797E+02  0.39037047239E+02 -0.20272351893E+01  0.45045681759E+02  0.00000000000E+00 0. -1.
         11    1    3    3    0    0  0.11376661031E+02 -0.12286946104E+02  0.23193236376E+01  0.16904931919E+02  0.51100000000E-03 0. -1.
        -11    1    3    3    0    0  0.83309031773E+01 -0.15461047221E+02  0.82036227871E+00  0.17581835042E+02  0.51100000000E-03 0.  1.
         12    1    3    3    0    0  0.26779825883E+01 -0.11289053915E+02 -0.11124507271E+01  0.11655551281E+02  0.00000000000E+00 0. -1.
</event>
<event>
 7    1  0.2312612E-008  0.4614232E+02  0.7816164E-02  0.1320468E+00
        -11   -1    0    0    0    0  0.00000000000E+00  0.00000000000E+00  0.45593999997E+02  0.45594000000E+02  0.51100000000E-03 0.  1.
         11   -1    0    0    0    0 -0.00000000000E+00 -0.00000000000E+00 -0.45593999997E+02  0.45594000000E+02  0.51100000000E-03 0. -1.
    9900012    2    1    2    0    0 -0.11555059070E+02 -0.29386033555E+02  0.32125614472E+02  0.46142318038E+02  0.10000002525E+02 0.  0.
         12    1    1    2    0    0  0.11555059070E+02  0.29386033555E+02 -0.32125614472E+02  0.45045681962E+02  0.00000000000E+00 0. -1.
         11    1    3    3    0    0 -0.50642089637E+00 -0.19335877386E+01  0.58905753276E+01  0.62204583126E+01  0.51100000000E-03 0. -1.
        -11    1    3    3    0    0 -0.31338758654E+01 -0.39894561931E+01  0.65725908078E+01  0.83027639280E+01  0.51100000000E-03 0.  1.
         12    1    3    3    0    0 -0.79147623081E+01 -0.23462989623E+02  0.19662448337E+02  0.31619095797E+02  0.00000000000E+00 0. -1.
</event>
<event>
 7    1  0.2312612E-008  0.4614232E+02  0.7816164E-02  0.1320468E+00
        -11   -1    0    0    0    0  0.00000000000E+00  0.00000000000E+00  0.45593999997E+02  0.45594000000E+02  0.51100000000E-03 0. -1.
         11   -1    0    0    0    0 -0.00000000000E+00 -0.00000000000E+00 -0.45593999997E+02  0.45594000000E+02  0.51100000000E-03 0.  1.
    9900012    2    1    2    0    0 -0.38885486680E+02 -0.32318196596E+01 -0.22507505118E+02  0.46142317418E+02  0.99999968676E+01 0.  0.
         12    1    1    2    0    0  0.38885486680E+02  0.32318196596E+01  0.22507505118E+02  0.45045682582E+02  0.00000000000E+00 0. -1.
         11    1    3    3    0    0 -0.55236636965E+01  0.77723028770E+00 -0.45090825229E+01  0.71726405885E+01  0.51100000000E-03 0.  1.
        -11    1    3    3    0    0 -0.47779139275E+01 -0.21325854228E+01 -0.58672931591E+01  0.78613937288E+01  0.51100000000E-03 0. -1.
         12    1    3    3    0    0 -0.28583909056E+02 -0.18764645246E+01 -0.12131129436E+02  0.31108283100E+02  0.00000000000E+00 0. -1.
</event>
<event>
 7    1  0.2312612E-008  0.4614232E+02  0.7816164E-02  0.1320468E+00
        -11   -1    0    0    0    0  0.00000000000E+00  0.00000000000E+00  0.45593999997E+02  0.45594000000E+02  0.51100000000E-03 0.  1.
         11   -1    0    0    0    0 -0.00000000000E+00 -0.00000000000E+00 -0.45593999997E+02  0.45594000000E+02  0.51100000000E-03 0. -1.
    9900012    2    1    2    0    0 -0.69645566589E+01 -0.44381898421E+02  0.32947816003E+01  0.46142317158E+02  0.99999944995E+01 0.  0.
         12    1    1    2    0    0  0.69645566589E+01  0.44381898421E+02 -0.32947816003E+01  0.45045682842E+02  0.00000000000E+00 0. -1.
         11    1    3    3    0    0  0.11625023939E+01 -0.14912154719E+01 -0.11673216465E+01  0.22221105929E+01  0.51100000000E-03 0. -1.
        -11    1    3    3    0    0 -0.27179529801E+01 -0.10110110163E+02  0.10882761911E+01  0.10525490071E+02  0.51100000000E-03 0.  1.
        -12    1    3    3    0    0 -0.54091060727E+01 -0.32780572786E+02  0.33738270558E+01  0.33394716494E+02  0.00000000000E+00 0.  1.
</event>
<event>
 7    1  0.2312612E-008  0.4614232E+02  0.7816164E-02  0.1320468E+00
        -11   -1    0    0    0    0  0.00000000000E+00  0.00000000000E+00  0.45593999997E+02  0.45594000000E+02  0.51100000000E-03 0. -1.
         11   -1    0    0    0    0 -0.00000000000E+00 -0.00000000000E+00 -0.45593999997E+02  0.45594000000E+02  0.51100000000E-03 0.  1.
    9900012    2    1    2    0    0 -0.40297260459E+02  0.16385926655E+02  0.11693834069E+02  0.46142317099E+02  0.99999939587E+01 0.  0.
         12    1    1    2    0    0  0.40297260459E+02 -0.16385926655E+02 -0.11693834069E+02  0.45045682901E+02  0.00000000000E+00 0. -1.
         11    1    3    3    0    0 -0.31880136516E+01  0.13712943612E+01  0.14997182029E+01  0.37806129420E+01  0.51100000000E-03 0. -1.
        -11    1    3    3    0    0 -0.16325393772E+02  0.32560032627E+01  0.77338787045E+01  0.18355732596E+02  0.51100000000E-03 0.  1.
        -12    1    3    3    0    0 -0.20783853035E+02  0.11758629032E+02  0.24602371616E+01  0.24005971560E+02  0.00000000000E+00 0.  1.
</event>
<event>
 7    1  0.2312612E-008  0.4614232E+02  0.7816164E-02  0.1320468E+00
        -11   -1    0    0    0    0  0.00000000000E+00  0.00000000000E+00  0.45593999997E+02  0.45594000000E+02  0.51100000000E-03 0.  1.
         11   -1    0    0    0    0 -0.00000000000E+00 -0.00000000000E+00 -0.45593999997E+02  0.45594000000E+02  0.51100000000E-03 0. -1.
    9900012    2    1    2    0    0  0.35901748368E+01 -0.17106254008E+02  0.41516266532E+02  0.46142315764E+02  0.99999817879E+01 0.  0.
         12    1    1    2    0    0 -0.35901748368E+01  0.17106254008E+02 -0.41516266532E+02  0.45045684236E+02  0.00000000000E+00 0. -1.
         11    1    3    3    0    0 -0.88487307038E+00 -0.16505256411E+01  0.18847014136E+01  0.26569408955E+01  0.51100000000E-03 0.  1.
        -11    1    3    3    0    0  0.10311119702E+01 -0.14057034154E+02  0.29521788777E+02  0.32713902457E+02  0.51100000000E-03 0. -1.
         12    1    3    3    0    0  0.34439359370E+01 -0.13986942128E+01  0.10109776341E+02  0.10771472411E+02  0.00000000000E+00 0. -1.
</event>
<event>
 7    1  0.2312612E-008  0.4614232E+02  0.7816164E-02  0.1320468E+00
        -11   -1    0    0    0    0  0.00000000000E+00  0.00000000000E+00  0.45593999997E+02  0.45594000000E+02  0.51100000000E-03 0.  1.
         11   -1    0    0    0    0 -0.00000000000E+00 -0.00000000000E+00 -0.45593999997E+02  0.45594000000E+02  0.51100000000E-03 0. -1.
    9900012    2    1    2    0    0 -0.20304797327E+02  0.22589575676E+02  0.33264693010E+02  0.46142317357E+02  0.99999963171E+01 0.  0.
         12    1    1    2    0    0  0.20304797327E+02 -0.22589575676E+02 -0.33264693010E+02  0.45045682643E+02  0.00000000000E+00 0. -1.
         11    1    3    3    0    0 -0.34960801925E+01  0.48447299029E+01  0.61790474720E+01  0.85950341748E+01  0.51100000000E-03 0. -1.
        -11    1    3    3    0    0 -0.95009618206E+01  0.15075555942E+02  0.21729560715E+02  0.28101858864E+02  0.51100000000E-03 0.  1.
         12    1    3    3    0    0 -0.73077553138E+01  0.26692898313E+01  0.53560848233E+01  0.94454243189E+01  0.00000000000E+00 0. -1.
</event>
<event>
 7    1  0.2312612E-008  0.4614232E+02  0.7816164E-02  0.1320468E+00
        -11   -1    0    0    0    0  0.00000000000E+00  0.00000000000E+00  0.45593999997E+02  0.45594000000E+02  0.51100000000E-03 0.  1.
         11   -1    0    0    0    0 -0.00000000000E+00 -0.00000000000E+00 -0.45593999997E+02  0.45594000000E+02  0.51100000000E-03 0. -1.
    9900012    2    1    2    0    0 -0.16416226051E+02 -0.28846113336E+02  0.30455256868E+02  0.46142318706E+02  0.10000008616E+02 0.  0.
         12    1    1    2    0    0  0.16416226051E+02  0.28846113336E+02 -0.30455256868E+02  0.45045681294E+02  0.00000000000E+00 0. -1.
         11    1    3    3    0    0 -0.15246555313E+00 -0.95776034951E+00  0.20590588277E+01  0.22760215616E+01  0.51100000000E-03 0. -1.
        -11    1    3    3    0    0 -0.93321562199E+01 -0.17183022529E+02  0.11457382276E+02  0.22663120082E+02  0.51100000000E-03 0.  1.
        -12    1    3    3    0    0 -0.69316042780E+01 -0.10705330457E+02  0.16938815764E+02  0.21203177063E+02  0.00000000000E+00 0.  1.
</event>
<event>
 7    1  0.2312612E-008  0.4614231E+02  0.7816164E-02  0.1320468E+00
        -11   -1    0    0    0    0  0.00000000000E+00  0.00000000000E+00  0.45593999997E+02  0.45594000000E+02  0.51100000000E-03 0.  1.
         11   -1    0    0    0    0 -0.00000000000E+00 -0.00000000000E+00 -0.45593999997E+02  0.45594000000E+02  0.51100000000E-03 0. -1.
    9900012    2    1    2    0    0  0.31063717653E+02 -0.19410783838E+02  0.26217955413E+02  0.46142309089E+02  0.99999209184E+01 0.  0.
         12    1    1    2    0    0 -0.31063717653E+02  0.19410783838E+02 -0.26217955413E+02  0.45045690911E+02  0.00000000000E+00 0. -1.
         11    1    3    3    0    0  0.14014150637E+02 -0.13304809289E+02  0.13103701076E+02  0.23347833956E+02  0.51100000000E-03 0. -1.
        -11    1    3    3    0    0  0.95672504910E+01 -0.54868776978E+01  0.89873961108E+01  0.14227135971E+02  0.51100000000E-03 0.  1.
         12    1    3    3    0    0  0.74823165245E+01 -0.61909685111E+00  0.41268582267E+01  0.85673391614E+01  0.00000000000E+00 0. -1.
</event>
<event>
 7    1  0.2312612E-008  0.4614232E+02  0.7816164E-02  0.1320468E+00
        -11   -1    0    0    0    0  0.00000000000E+00  0.00000000000E+00  0.45593999997E+02  0.45594000000E+02  0.51100000000E-03 0.  1.
         11   -1    0    0    0    0 -0.00000000000E+00 -0.00000000000E+00 -0.45593999997E+02  0.45594000000E+02  0.51100000000E-03 0. -1.
    9900012    2    1    2    0    0  0.14428217583E+02 -0.42406680423E+02  0.47553612843E+01  0.46142317987E+02  0.10000002057E+02 0.  0.
         12    1    1    2    0    0 -0.14428217583E+02  0.42406680423E+02 -0.47553612843E+01  0.45045682013E+02  0.00000000000E+00 0. -1.
         11    1    3    3    0    0 -0.30443391940E+00  0.34095459654E+00 -0.25615063822E+00  0.52396894828E+00  0.51100000000E-03 0. -1.
        -11    1    3    3    0    0  0.75041785442E+01 -0.25500969041E+02  0.40943712929E+01  0.26895650098E+02  0.51100000000E-03 0.  1.
        -12    1    3    3    0    0  0.72284729583E+01 -0.17246665978E+02  0.91714062961E+00  0.18722698941E+02  0.00000000000E+00 0.  1.
</event>
<event>
 7    1  0.2312612E-008  0.4614232E+02  0.7816164E-02  0.1320468E+00
        -11   -1    0    0    0    0  0.00000000000E+00  0.00000000000E+00  0.45593999997E+02  0.45594000000E+02  0.51100000000E-03 0.  1.
         11   -1    0    0    0    0 -0.00000000000E+00 -0.00000000000E+00 -0.45593999997E+02  0.45594000000E+02  0.51100000000E-03 0. -1.
    9900012    2    1    2    0    0  0.29340772710E+00  0.27413127400E+02  0.35742801998E+02  0.46142317226E+02  0.99999951185E+01 0.  0.
         12    1    1    2    0    0 -0.29340772710E+00 -0.27413127400E+02 -0.35742801998E+02  0.45045682774E+02  0.00000000000E+00 0. -1.
         11    1    3    3    0    0 -0.25050080945E+01  0.75991269497E+01  0.87517075075E+01  0.11858085027E+02  0.51100000000E-03 0. -1.
        -11    1    3    3    0    0 -0.22169708984E+01  0.80302493806E+01  0.10384559138E+02  0.13313111350E+02  0.51100000000E-03 0.  1.
        -12    1    3    3    0    0  0.50153867201E+01  0.11783751070E+02  0.16606535352E+02  0.20971120848E+02  0.00000000000E+00 0.  1.
</event>
<event>
 7    1  0.2312612E-008  0.4614232E+02  0.7816164E-02  0.1320468E+00
        -11   -1    0    0    0    0  0.00000000000E+00  0.00000000000E+00  0.45593999997E+02  0.45594000000E+02  0.51100000000E-03 0.  1.
         11   -1    0    0    0    0 -0.00000000000E+00 -0.00000000000E+00 -0.45593999997E+02  0.45594000000E+02  0.51100000000E-03 0. -1.
    9900012    2    1    2    0    0  0.39071779416E+02 -0.64415201001E+01 -0.21471292397E+02  0.46142317353E+02  0.99999962796E+01 0.  0.
         12    1    1    2    0    0 -0.39071779416E+02  0.64415201001E+01  0.21471292397E+02  0.45045682647E+02  0.00000000000E+00 0. -1.
         11    1    3    3    0    0  0.80597473156E+01  0.52352925073E+00 -0.77106984667E+01  0.11166399633E+02  0.51100000000E-03 0. -1.
        -11    1    3    3    0    0  0.89778938338E+00 -0.61305368079E+00 -0.14869567337E+01  0.18419829482E+01  0.51100000000E-03 0.  1.
        -12    1    3    3    0    0  0.30114242717E+02 -0.63519956700E+01 -0.12273637197E+02  0.33133934771E+02  0.00000000000E+00 0.  1.
</event>
<event>
 7    1  0.2312612E-008  0.4614232E+02  0.7816164E-02  0.1320468E+00
        -11   -1    0    0    0    0  0.00000000000E+00  0.00000000000E+00  0.45593999997E+02  0.45594000000E+02  0.51100000000E-03 0.  1.
         11   -1    0    0    0    0 -0.00000000000E+00 -0.00000000000E+00 -0.45593999997E+02  0.45594000000E+02  0.51100000000E-03 0. -1.
    9900012    2    1    2    0    0  0.14432224627E+02  0.25743261757E+02  0.34030998083E+02  0.46142318030E+02  0.10000002455E+02 0.  0.
         12    1    1    2    0    0 -0.14432224627E+02 -0.25743261757E+02 -0.34030998083E+02  0.45045681970E+02  0.00000000000E+00 0. -1.
         11    1    3    3    0    0  0.55746421411E+01  0.80754258646E+01  0.99860084522E+01  0.14000339388E+02  0.51100000000E-03 0. -1.
        -11    1    3    3    0    0  0.66209470172E+01  0.89451478651E+01  0.78738191978E+01  0.13632668072E+02  0.51100000000E-03 0.  1.
         12    1    3    3    0    0  0.22366354685E+01  0.87226880273E+01  0.16171170433E+02  0.18509310571E+02  0.00000000000E+00 0. -1.
</event>
<event>
 7    1  0.2312612E-008  0.4614232E+02  0.7816164E-02  0.1320468E+00
        -11   -1    0    0    0    0  0.00000000000E+00  0.00000000000E+00  0.45593999997E+02  0.45594000000E+02  0.51100000000E-03 0.  1.
         11   -1    0    0    0    0 -0.00000000000E+00 -0.00000000000E+00 -0.45593999997E+02  0.45594000000E+02  0.51100000000E-03 0. -1.
    9900012    2    1    2    0    0 -0.33035210065E+02 -0.10555300701E+02  0.28746721577E+02  0.46142317872E+02  0.10000001016E+02 0.  0.
         12    1    1    2    0    0  0.33035210065E+02  0.10555300701E+02 -0.28746721577E+02  0.45045682128E+02  0.00000000000E+00 0. -1.
         11    1    3    3    0    0 -0.79853017987E+01 -0.24550455612E+01  0.28157537424E+01  0.88159380058E+01  0.51100000000E-03 0. -1.
        -11    1    3    3    0    0 -0.68606691558E+01 -0.35563723755E+01  0.48916900827E+01  0.91457748641E+01  0.51100000000E-03 0.  1.
         12    1    3    3    0    0 -0.18189239110E+02 -0.45438827639E+01  0.21039277752E+02  0.28180605003E+02  0.00000000000E+00 0. -1.
</event>
<event>
 7    1  0.2312612E-008  0.4614232E+02  0.7816164E-02  0.1320468E+00
        -11   -1    0    0    0    0  0.00000000000E+00  0.00000000000E+00  0.45593999997E+02  0.45594000000E+02  0.51100000000E-03 0. -1.
         11   -1    0    0    0    0 -0.00000000000E+00 -0.00000000000E+00 -0.45593999997E+02  0.45594000000E+02  0.51100000000E-03 0.  1.
    9900012    2    1    2    0    0 -0.21493858373E+02 -0.37264618956E+02 -0.13359480240E+02  0.46142317788E+02  0.10000000245E+02 0.  0.
         12    1    1    2    0    0  0.21493858373E+02  0.37264618956E+02  0.13359480240E+02  0.45045682212E+02  0.00000000000E+00 0. -1.
         11    1    3    3    0    0 -0.59883377770E+01 -0.76486018744E+01 -0.69516154412E+01  0.11945135306E+02  0.51100000000E-03 0. -1.
        -11    1    3    3    0    0 -0.16313146185E+01 -0.14086882995E+01 -0.48503499900E+00  0.22092644299E+01  0.51100000000E-03 0.  1.
        -12    1    3    3    0    0 -0.13874205977E+02 -0.28207328782E+02 -0.59228298000E+01  0.31987918053E+02  0.00000000000E+00 0.  1.
</event>
<event>
 7    1  0.2312612E-008  0.4614232E+02  0.7816164E-02  0.1320468E+00
        -11   -1    0    0    0    0  0.00000000000E+00  0.00000000000E+00  0.45593999997E+02  0.45594000000E+02  0.51100000000E-03 0.  1.
         11   -1    0    0    0    0 -0.00000000000E+00 -0.00000000000E+00 -0.45593999997E+02  0.45594000000E+02  0.51100000000E-03 0. -1.
    9900012    2    1    2    0    0 -0.87827354837E+01 -0.18860789581E+02  0.39953064573E+02  0.46142321018E+02  0.10000029699E+02 0.  0.
         12    1    1    2    0    0  0.87827354837E+01  0.18860789581E+02 -0.39953064573E+02  0.45045678982E+02  0.00000000000E+00 0. -1.
         11    1    3    3    0    0 -0.29686698394E+01 -0.65989097861E+01  0.18769661331E+02  0.20116132772E+02  0.51100000000E-03 0. -1.
        -11    1    3    3    0    0 -0.49464051694E+01 -0.10078858675E+02  0.20812949146E+02  0.23648026740E+02  0.51100000000E-03 0.  1.
         12    1    3    3    0    0 -0.86766047488E+00 -0.21830211201E+01  0.37045409614E+00  0.23781615058E+01  0.00000000000E+00 0. -1.
</event>
<event>
 7    1  0.2312612E-008  0.4614232E+02  0.7816164E-02  0.1320468E+00
        -11   -1    0    0    0    0  0.00000000000E+00  0.00000000000E+00  0.45593999997E+02  0.45594000000E+02  0.51100000000E-03 0.  1.
         11   -1    0    0    0    0 -0.00000000000E+00 -0.00000000000E+00 -0.45593999997E+02  0.45594000000E+02  0.51100000000E-03 0. -1.
    9900012    2    1    2    0    0  0.35560578906E+02  0.13191011190E+02  0.24301357417E+02  0.46142317403E+02  0.99999967322E+01 0.  0.
         12    1    1    2    0    0 -0.35560578906E+02 -0.13191011190E+02 -0.24301357417E+02  0.45045682597E+02  0.00000000000E+00 0. -1.
         11    1    3    3    0    0  0.59601961547E+01  0.14903486544E+01  0.19591016855E+01  0.64485003675E+01  0.51100000000E-03 0. -1.
        -11    1    3    3    0    0  0.10628339197E+02  0.25798859170E+00  0.65732900760E+01  0.12499451783E+02  0.51100000000E-03 0.  1.
        -12    1    3    3    0    0  0.18972043554E+02  0.11442673944E+02  0.15768965655E+02  0.27194365252E+02  0.00000000000E+00 0.  1.
</event>
<event>
 7    1  0.2312612E-008  0.4614232E+02  0.7816164E-02  0.1320468E+00
        -11   -1    0    0    0    0  0.00000000000E+00  0.00000000000E+00  0.45593999997E+02  0.45594000000E+02  0.51100000000E-03 0. -1.
         11   -1    0    0    0    0 -0.00000000000E+00 -0.00000000000E+00 -0.45593999997E+02  0.45594000000E+02  0.51100000000E-03 0.  1.
    9900012    2    1    2    0    0  0.44600537741E+02  0.67780270497E+00  0.62806157373E+01  0.46142317440E+02  0.99999970685E+01 0.  0.
         12    1    1    2    0    0 -0.44600537741E+02 -0.67780270497E+00 -0.62806157373E+01  0.45045682560E+02  0.00000000000E+00 0. -1.
         11    1    3    3    0    0  0.17475789527E+02  0.79899810955E+00  0.52272668044E+01  0.18258311425E+02  0.51100000000E-03 0. -1.
        -11    1    3    3    0    0  0.14755817867E+02 -0.12147719070E+01  0.35335372552E+01  0.15221554372E+02  0.51100000000E-03 0.  1.
         12    1    3    3    0    0  0.12368930347E+02  0.10935765024E+01 -0.24801883223E+01  0.12662451643E+02  0.00000000000E+00 0. -1.
</event>
<event>
 7    1  0.2312612E-008  0.4614232E+02  0.7816164E-02  0.1320468E+00
        -11   -1    0    0    0    0  0.00000000000E+00  0.00000000000E+00  0.45593999997E+02  0.45594000000E+02  0.51100000000E-03 0.  1.
         11   -1    0    0    0    0 -0.00000000000E+00 -0.00000000000E+00 -0.45593999997E+02  0.45594000000E+02  0.51100000000E-03 0. -1.
    9900012    2    1    2    0    0  0.11054554450E+02  0.39262969713E+02  0.19113593941E+02  0.46142318319E+02  0.10000005083E+02 0.  0.
         12    1    1    2    0    0 -0.11054554450E+02 -0.39262969713E+02 -0.19113593941E+02  0.45045681681E+02  0.00000000000E+00 0. -1.
         11    1    3    3    0    0  0.26106675252E+01  0.21254498310E+01  0.21467967041E+01  0.39927256682E+01  0.51100000000E-03 0. -1.
        -11    1    3    3    0    0  0.28635371154E+01  0.25625305828E+02  0.11679455809E+02  0.28306639359E+02  0.51100000000E-03 0.  1.
         12    1    3    3    0    0  0.55803498097E+01  0.11512214055E+02  0.52873414285E+01  0.13842953291E+02  0.00000000000E+00 0. -1.
</event>
<event>
 7    1  0.2312612E-008  0.4614232E+02  0.7816164E-02  0.1320468E+00
        -11   -1    0    0    0    0  0.00000000000E+00  0.00000000000E+00  0.45593999997E+02  0.45594000000E+02  0.51100000000E-03 0.  1.
         11   -1    0    0    0    0 -0.00000000000E+00 -0.00000000000E+00 -0.45593999997E+02  0.45594000000E+02  0.51100000000E-03 0. -1.
    9900012    2    1    2    0    0 -0.92330633668E+01  0.14003608903E+02  0.41806253312E+02  0.46142319437E+02  0.10000015280E+02 0.  0.
         12    1    1    2    0    0  0.92330633668E+01 -0.14003608903E+02 -0.41806253312E+02  0.45045680563E+02  0.00000000000E+00 0. -1.
         11    1    3    3    0    0 -0.69213634221E+01  0.59543683617E+01  0.15569789302E+02  0.18049324458E+02  0.51100000000E-03 0. -1.
        -11    1    3    3    0    0 -0.33105552899E+01  0.53606933691E+01  0.22598757104E+02  0.23460618761E+02  0.51100000000E-03 0.  1.
         12    1    3    3    0    0  0.99885534516E+00  0.26885471726E+01  0.36377069054E+01  0.46323762184E+01  0.00000000000E+00 0. -1.
</event>
<event>
 7    1  0.2312612E-008  0.4614232E+02  0.7816164E-02  0.1320468E+00
        -11   -1    0    0    0    0  0.00000000000E+00  0.00000000000E+00  0.45593999997E+02  0.45594000000E+02  0.51100000000E-03 0. -1.
         11   -1    0    0    0    0 -0.00000000000E+00 -0.00000000000E+00 -0.45593999997E+02  0.45594000000E+02  0.51100000000E-03 0.  1.
    9900012    2    1    2    0    0 -0.34905298790E+02 -0.26526475102E+02 -0.10347933460E+02  0.46142317722E+02  0.99999996452E+01 0.  0.
         12    1    1    2    0    0  0.34905298790E+02  0.26526475102E+02  0.10347933460E+02  0.45045682278E+02  0.00000000000E+00 0. -1.
         11    1    3    3    0    0 -0.47592514566E+01 -0.72078167019E+01 -0.74313932560E+00  0.86692186703E+01  0.51100000000E-03 0. -1.
        -11    1    3    3    0    0 -0.18868423528E+01 -0.25485222008E+01 -0.19835667315E+01  0.37402776249E+01  0.51100000000E-03 0.  1.
        -12    1    3    3    0    0 -0.28259204981E+02 -0.16770136200E+02 -0.76212274028E+01  0.33732821427E+02  0.00000000000E+00 0.  1.
</event>
<event>
 7    1  0.2312612E-008  0.4614232E+02  0.7816164E-02  0.1320468E+00
        -11   -1    0    0    0    0  0.00000000000E+00  0.00000000000E+00  0.45593999997E+02  0.45594000000E+02  0.51100000000E-03 0. -1.
         11   -1    0    0    0    0 -0.00000000000E+00 -0.00000000000E+00 -0.45593999997E+02  0.45594000000E+02  0.51100000000E-03 0.  1.
    9900012    2    1    2    0    0  0.26846166789E+02  0.22232713861E+02  0.28532494879E+02  0.46142317622E+02  0.99999987334E+01 0.  0.
         12    1    1    2    0    0 -0.26846166789E+02 -0.22232713861E+02 -0.28532494879E+02  0.45045682378E+02  0.00000000000E+00 0. -1.
         11    1    3    3    0    0  0.20380534731E+02  0.17942545687E+02  0.22807159688E+02  0.35460790671E+02  0.51100000000E-03 0. -1.
        -11    1    3    3    0    0  0.24111967060E+01  0.11480275035E+01 -0.39095465407E+00  0.26990150994E+01  0.51100000000E-03 0.  1.
         12    1    3    3    0    0  0.40544353516E+01  0.31421406704E+01  0.61162898442E+01  0.79825118523E+01  0.00000000000E+00 0. -1.
</event>
<event>
 7    1  0.2312612E-008  0.4614232E+02  0.7816164E-02  0.1320468E+00
        -11   -1    0    0    0    0  0.00000000000E+00  0.00000000000E+00  0.45593999997E+02  0.45594000000E+02  0.51100000000E-03 0.  1.
         11   -1    0    0    0    0 -0.00000000000E+00 -0.00000000000E+00 -0.45593999997E+02  0.45594000000E+02  0.51100000000E-03 0. -1.
    9900012    2    1    2    0    0 -0.57403972175E+01 -0.36754254818E+02  0.25402482193E+02  0.46142317532E+02  0.99999979074E+01 0.  0.
         12    1    1    2    0    0  0.57403972175E+01  0.36754254818E+02 -0.25402482193E+02  0.45045682468E+02  0.00000000000E+00 0. -1.
         11    1    3    3    0    0 -0.18402163354E+01 -0.57529356643E+01  0.77895355021E+01  0.98569533081E+01  0.51100000000E-03 0. -1.
        -11    1    3    3    0    0  0.72245651488E-01 -0.11292265989E+00  0.96080499158E+00  0.97011208334E+00  0.51100000000E-03 0.  1.
        -12    1    3    3    0    0 -0.39724265336E+01 -0.30888396494E+02  0.16652141700E+02  0.35315252140E+02  0.00000000000E+00 0.  1.
</event>
<event>
 7    1  0.2312612E-008  0.4614232E+02  0.7816164E-02  0.1320468E+00
        -11   -1    0    0    0    0  0.00000000000E+00  0.00000000000E+00  0.45593999997E+02  0.45594000000E+02  0.51100000000E-03 0.  1.
         11   -1    0    0    0    0 -0.00000000000E+00 -0.00000000000E+00 -0.45593999997E+02  0.45594000000E+02  0.51100000000E-03 0. -1.
    9900012    2    1    2    0    0  0.34223882653E+02  0.21073923198E+02 -0.20340331235E+02  0.46142318103E+02  0.10000003117E+02 0.  0.
         12    1    1    2    0    0 -0.34223882653E+02 -0.21073923198E+02  0.20340331235E+02  0.45045681897E+02  0.00000000000E+00 0. -1.
         11    1    3    3    0    0  0.14981903726E+02  0.10345371744E+02 -0.45816959548E+01  0.18774346696E+02  0.51100000000E-03 0. -1.
        -11    1    3    3    0    0  0.10127393820E+02  0.57989258502E+01 -0.59490867673E+01  0.13098980122E+02  0.51100000000E-03 0.  1.
        -12    1    3    3    0    0  0.91145851075E+01  0.49296256036E+01 -0.98095485128E+01  0.14268991285E+02  0.00000000000E+00 0.  1.
</event>
<event>
 7    1  0.2312612E-008  0.4614232E+02  0.7816164E-02  0.1320468E+00
        -11   -1    0    0    0    0  0.00000000000E+00  0.00000000000E+00  0.45593999997E+02  0.45594000000E+02  0.51100000000E-03 0. -1.
         11   -1    0    0    0    0 -0.00000000000E+00 -0.00000000000E+00 -0.45593999997E+02  0.45594000000E+02  0.51100000000E-03 0.  1.
    9900012    2    1    2    0    0  0.24858594089E+01 -0.27034770330E+02 -0.35945170379E+02  0.46142316773E+02  0.99999909927E+01 0.  0.
         12    1    1    2    0    0 -0.24858594089E+01  0.27034770330E+02  0.35945170379E+02  0.45045683227E+02  0.00000000000E+00 0. -1.
         11    1    3    3    0    0  0.20176485848E+01 -0.10058027325E+02 -0.65565148574E+01  0.12174674814E+02  0.51100000000E-03 0.  1.
        -11    1    3    3    0    0 -0.33923594224E+00 -0.67904559767E+01 -0.12454033968E+02  0.14189021662E+02  0.51100000000E-03 0. -1.
        -12    1    3    3    0    0  0.80744676640E+00 -0.10186287027E+02 -0.16934621554E+02  0.19778620297E+02  0.00000000000E+00 0.  1.
</event>
<event>
 7    1  0.2312612E-008  0.4614230E+02  0.7816164E-02  0.1320468E+00
        -11   -1    0    0    0    0  0.00000000000E+00  0.00000000000E+00  0.45593999997E+02  0.45594000000E+02  0.51100000000E-03 0.  1.
         11   -1    0    0    0    0 -0.00000000000E+00 -0.00000000000E+00 -0.45593999997E+02  0.45594000000E+02  0.51100000000E-03 0. -1.
    9900012    2    1    2    0    0  0.16452807090E+02  0.36561640566E+02  0.20534517296E+02  0.46142302951E+02  0.99998649530E+01 0.  0.
         12    1    1    2    0    0 -0.16452807090E+02 -0.36561640566E+02 -0.20534517296E+02  0.45045697049E+02  0.00000000000E+00 0. -1.
         11    1    3    3    0    0  0.30618719432E+01  0.44248692071E+01  0.14067667745E+01  0.55617911068E+01  0.51100000000E-03 0. -1.
        -11    1    3    3    0    0  0.22892148171E+01  0.57529702369E+01  0.69677794446E-01  0.61920938528E+01  0.51100000000E-03 0.  1.
        -12    1    3    3    0    0  0.11101720330E+02  0.26383801122E+02  0.19058072727E+02  0.34388417992E+02  0.00000000000E+00 0.  1.
</event>
<event>
 7    1  0.2312612E-008  0.4614232E+02  0.7816164E-02  0.1320468E+00
        -11   -1    0    0    0    0  0.00000000000E+00  0.00000000000E+00  0.45593999997E+02  0.45594000000E+02  0.51100000000E-03 0.  1.
         11   -1    0    0    0    0 -0.00000000000E+00 -0.00000000000E+00 -0.45593999997E+02  0.45594000000E+02  0.51100000000E-03 0. -1.
    9900012    2    1    2    0    0 -0.35547617399E+02 -0.19522058380E+02  0.19605346663E+02  0.46142317810E+02  0.10000000447E+02 0.  0.
         12    1    1    2    0    0  0.35547617399E+02  0.19522058380E+02 -0.19605346663E+02  0.45045682190E+02  0.00000000000E+00 0. -1.
         11    1    3    3    0    0 -0.13511563833E+02 -0.76626308165E+01  0.10043178100E+02  0.18497126665E+02  0.51100000000E-03 0. -1.
        -11    1    3    3    0    0 -0.91073683068E+01 -0.66530689033E+01  0.75273816978E+01  0.13559828863E+02  0.51100000000E-03 0.  1.
         12    1    3    3    0    0 -0.12928685259E+02 -0.52063586605E+01  0.20347868656E+01  0.14085362282E+02  0.00000000000E+00 0. -1.
</event>
<event>
 7    1  0.2312612E-008  0.4614232E+02  0.7816164E-02  0.1320468E+00
        -11   -1    0    0    0    0  0.00000000000E+00  0.00000000000E+00  0.45593999997E+02  0.45594000000E+02  0.51100000000E-03 0.  1.
         11   -1    0    0    0    0 -0.00000000000E+00 -0.00000000000E+00 -0.45593999997E+02  0.45594000000E+02  0.51100000000E-03 0. -1.
    9900012    2    1    2    0    0 -0.15367292870E+02 -0.12025977835E+01  0.42326276762E+02  0.46142316122E+02  0.99999850498E+01 0.  0.
         12    1    1    2    0    0  0.15367292870E+02  0.12025977835E+01 -0.42326276762E+02  0.45045683878E+02  0.00000000000E+00 0. -1.
         11    1    3    3    0    0 -0.43160819763E-01 -0.16035640441E+01  0.18469005188E+01  0.24462874499E+01  0.51100000000E-03 0. -1.
        -11    1    3    3    0    0 -0.76978455862E+01 -0.84291042421E+00  0.27700888971E+02  0.28762937518E+02  0.51100000000E-03 0.  1.
         12    1    3    3    0    0 -0.76262864639E+01  0.12438766848E+01  0.12778487272E+02  0.14933091154E+02  0.00000000000E+00 0. -1.
</event>
<event>
 7    1  0.2312612E-008  0.4614232E+02  0.7816164E-02  0.1320468E+00
        -11   -1    0    0    0    0  0.00000000000E+00  0.00000000000E+00  0.45593999997E+02  0.45594000000E+02  0.51100000000E-03 0.  1.
         11   -1    0    0    0    0 -0.00000000000E+00 -0.00000000000E+00 -0.45593999997E+02  0.45594000000E+02  0.51100000000E-03 0. -1.
    9900012    2    1    2    0    0 -0.26133816813E+02  0.30184833679E+02 -0.20856964043E+02  0.46142317470E+02  0.99999973494E+01 0.  0.
         12    1    1    2    0    0  0.26133816813E+02 -0.30184833679E+02  0.20856964043E+02  0.45045682530E+02  0.00000000000E+00 0. -1.
         11    1    3    3    0    0 -0.70879744958E+01  0.77512316294E+01 -0.50530310439E+01  0.11655646581E+02  0.51100000000E-03 0. -1.
        -11    1    3    3    0    0 -0.17992434384E+02  0.16108113691E+02 -0.11382714893E+02  0.26697663200E+02  0.51100000000E-03 0.  1.
         12    1    3    3    0    0 -0.10534079338E+01  0.63254883588E+01 -0.44212181055E+01  0.77890076897E+01  0.00000000000E+00 0. -1.
</event>
<event>
 7    1  0.2312612E-008  0.4614232E+02  0.7816164E-02  0.1320468E+00
        -11   -1    0    0    0    0  0.00000000000E+00  0.00000000000E+00  0.45593999997E+02  0.45594000000E+02  0.51100000000E-03 0.  1.
         11   -1    0    0    0    0 -0.00000000000E+00 -0.00000000000E+00 -0.45593999997E+02  0.45594000000E+02  0.51100000000E-03 0. -1.
    9900012    2    1    2    0    0  0.31881378661E+02  0.27780750084E+01  0.31701317097E+02  0.46142317501E+02  0.99999976317E+01 0.  0.
         12    1    1    2    0    0 -0.31881378661E+02 -0.27780750084E+01 -0.31701317097E+02  0.45045682499E+02  0.00000000000E+00 0. -1.
         11    1    3    3    0    0  0.27850728266E+01  0.47741520774E+00  0.41513786261E+01  0.50218025338E+01  0.51100000000E-03 0. -1.
        -11    1    3    3    0    0  0.27414826715E+02 -0.29889637906E+00  0.24360237020E+02  0.36675376082E+02  0.51100000000E-03 0.  1.
         12    1    3    3    0    0  0.16814791189E+01  0.25995561797E+01  0.31897014516E+01  0.44451388852E+01  0.00000000000E+00 0. -1.
</event>
<event>
 7    1  0.2312612E-008  0.4614232E+02  0.7816164E-02  0.1320468E+00
        -11   -1    0    0    0    0  0.00000000000E+00  0.00000000000E+00  0.45593999997E+02  0.45594000000E+02  0.51100000000E-03 0.  1.
         11   -1    0    0    0    0 -0.00000000000E+00 -0.00000000000E+00 -0.45593999997E+02  0.45594000000E+02  0.51100000000E-03 0. -1.
    9900012    2    1    2    0    0 -0.27891770157E+02 -0.19594582413E+02  0.29448513861E+02  0.46142317954E+02  0.10000001755E+02 0.  0.
         12    1    1    2    0    0  0.27891770157E+02  0.19594582413E+02 -0.29448513861E+02  0.45045682046E+02  0.00000000000E+00 0. -1.
         11    1    3    3    0    0 -0.92518668941E+01 -0.77286810845E+01  0.52613458774E+01  0.13153376488E+02  0.51100000000E-03 0. -1.
        -11    1    3    3    0    0 -0.82993949030E+01 -0.62238015583E+01  0.87530638746E+01  0.13573201135E+02  0.51100000000E-03 0.  1.
        -12    1    3    3    0    0 -0.10340508360E+02 -0.56420997700E+01  0.15434104109E+02  0.19415740331E+02  0.00000000000E+00 0.  1.
</event>
<event>
 7    1  0.2312612E-008  0.4614232E+02  0.7816164E-02  0.1320468E+00
        -11   -1    0    0    0    0  0.00000000000E+00  0.00000000000E+00  0.45593999997E+02  0.45594000000E+02  0.51100000000E-03 0. -1.
         11   -1    0    0    0    0 -0.00000000000E+00 -0.00000000000E+00 -0.45593999997E+02  0.45594000000E+02  0.51100000000E-03 0.  1.
    9900012    2    1    2    0    0  0.33869148764E+02 -0.25732827547E+02 -0.14826187159E+02  0.46142317884E+02  0.10000001124E+02 0.  0.
         12    1    1    2    0    0 -0.33869148764E+02  0.25732827547E+02  0.14826187159E+02  0.45045682116E+02  0.00000000000E+00 0. -1.
         11    1    3    3    0    0  0.65887045226E+01 -0.55803184661E+01 -0.14806708410E+01  0.87603292101E+01  0.51100000000E-03 0. -1.
        -11    1    3    3    0    0  0.30340005730E+01 -0.53914250371E+01 -0.44981412932E+01  0.76489148748E+01  0.51100000000E-03 0.  1.
        -12    1    3    3    0    0  0.24246443669E+02 -0.14761084044E+02 -0.88473750247E+01  0.29733073799E+02  0.00000000000E+00 0.  1.
</event>
<event>
 7    1  0.2312612E-008  0.4614232E+02  0.7816164E-02  0.1320468E+00
        -11   -1    0    0    0    0  0.00000000000E+00  0.00000000000E+00  0.45593999997E+02  0.45594000000E+02  0.51100000000E-03 0.  1.
         11   -1    0    0    0    0 -0.00000000000E+00 -0.00000000000E+00 -0.45593999997E+02  0.45594000000E+02  0.51100000000E-03 0. -1.
    9900012    2    1    2    0    0 -0.17386313277E+01  0.11061711560E+02  0.43631744817E+02  0.46142318106E+02  0.10000003144E+02 0.  0.
         12    1    1    2    0    0  0.17386313277E+01 -0.11061711560E+02 -0.43631744817E+02  0.45045681894E+02  0.00000000000E+00 0. -1.
         11    1    3    3    0    0 -0.29486194183E+01  0.53113764015E+01  0.17232359087E+02  0.18271816432E+02  0.51100000000E-03 0. -1.
        -11    1    3    3    0    0 -0.75564543566E+00  0.34636880118E+01  0.43304211549E+01  0.55964883907E+01  0.51100000000E-03 0.  1.
        -12    1    3    3    0    0  0.19656335263E+01  0.22866471466E+01  0.22068964575E+02  0.22274013283E+02  0.00000000000E+00 0.  1.
</event>
<event>
 7    1  0.2312612E-008  0.4614232E+02  0.7816164E-02  0.1320468E+00
        -11   -1    0    0    0    0  0.00000000000E+00  0.00000000000E+00  0.45593999997E+02  0.45594000000E+02  0.51100000000E-03 0. -1.
         11   -1    0    0    0    0 -0.00000000000E+00 -0.00000000000E+00 -0.45593999997E+02  0.45594000000E+02  0.51100000000E-03 0.  1.
    9900012    2    1    2    0    0  0.14841250333E+01 -0.46896852760E+01 -0.44776307432E+02  0.46142317828E+02  0.10000000612E+02 0.  0.
         12    1    1    2    0    0 -0.14841250333E+01  0.46896852760E+01  0.44776307432E+02  0.45045682172E+02  0.00000000000E+00 0. -1.
         11    1    3    3    0    0 -0.83050571382E+00 -0.33419199938E+01 -0.56840749109E+01  0.66458164915E+01  0.51100000000E-03 0. -1.
        -11    1    3    3    0    0 -0.15157847130E+01 -0.92365239139E+00 -0.11386926486E+02  0.11524444980E+02  0.51100000000E-03 0.  1.
         12    1    3    3    0    0  0.38304154601E+01 -0.42411289080E+00 -0.27705306035E+02  0.27972056357E+02  0.00000000000E+00 0. -1.
</event>
<event>
 7    1  0.2312612E-008  0.4614232E+02  0.7816164E-02  0.1320468E+00
        -11   -1    0    0    0    0  0.00000000000E+00  0.00000000000E+00  0.45593999997E+02  0.45594000000E+02  0.51100000000E-03 0.  1.
         11   -1    0    0    0    0 -0.00000000000E+00 -0.00000000000E+00 -0.45593999997E+02  0.45594000000E+02  0.51100000000E-03 0. -1.
    9900012    2    1    2    0    0  0.31174493773E+02  0.24517951709E+02  0.21357304760E+02  0.46142317802E+02  0.10000000375E+02 0.  0.
         12    1    1    2    0    0 -0.31174493773E+02 -0.24517951709E+02 -0.21357304760E+02  0.45045682198E+02  0.00000000000E+00 0. -1.
         11    1    3    3    0    0  0.92492532861E+01  0.55936389615E+01  0.46263118112E+01  0.11757561159E+02  0.51100000000E-03 0. -1.
        -11    1    3    3    0    0  0.20018302258E+02  0.13131408657E+02  0.13375927429E+02  0.27424108982E+02  0.51100000000E-03 0.  1.
         12    1    3    3    0    0  0.19069382297E+01  0.57929040910E+01  0.33550655197E+01  0.69606476610E+01  0.00000000000E+00 0. -1.
</event>
<event>
 7    1  0.2312612E-008  0.4614232E+02  0.7816164E-02  0.1320468E+00
        -11   -1    0    0    0    0  0.00000000000E+00  0.00000000000E+00  0.45593999997E+02  0.45594000000E+02  0.51100000000E-03 0. -1.
         11   -1    0    0    0    0 -0.00000000000E+00 -0.00000000000E+00 -0.45593999997E+02  0.45594000000E+02  0.51100000000E-03 0.  1.
    9900012    2    1    2    0    0  0.33195149808E+02  0.17741006884E+02 -0.24747768812E+02  0.46142319217E+02  0.10000013276E+02 0.  0.
         12    1    1    2    0    0 -0.33195149808E+02 -0.17741006884E+02  0.24747768812E+02  0.45045680783E+02  0.00000000000E+00 0. -1.
         11    1    3    3    0    0  0.14921000207E+02  0.12691708551E+02 -0.15036971065E+02  0.24694659589E+02  0.51100000000E-03 0. -1.
        -11    1    3    3    0    0  0.39788629146E+01  0.43113247637E+00 -0.11835064988E+01  0.41734773510E+01  0.51100000000E-03 0.  1.
         12    1    3    3    0    0  0.14295286686E+02  0.46181658561E+01 -0.85272912485E+01  0.17274182277E+02  0.00000000000E+00 0. -1.
</event>
<event>
 7    1  0.2312612E-008  0.4614232E+02  0.7816164E-02  0.1320468E+00
        -11   -1    0    0    0    0  0.00000000000E+00  0.00000000000E+00  0.45593999997E+02  0.45594000000E+02  0.51100000000E-03 0. -1.
         11   -1    0    0    0    0 -0.00000000000E+00 -0.00000000000E+00 -0.45593999997E+02  0.45594000000E+02  0.51100000000E-03 0.  1.
    9900012    2    1    2    0    0  0.30820523583E+01  0.14519070251E+02 -0.42530121678E+02  0.46142315438E+02  0.99999788135E+01 0.  0.
         12    1    1    2    0    0 -0.30820523583E+01 -0.14519070251E+02  0.42530121678E+02  0.45045684562E+02  0.00000000000E+00 0. -1.
         11    1    3    3    0    0 -0.74734787751E+00  0.79994491316E+01 -0.19839526322E+02  0.21404591101E+02  0.51100000000E-03 0. -1.
        -11    1    3    3    0    0  0.23851253701E+01  0.38994911510E+01 -0.20566995739E+02  0.21068843543E+02  0.51100000000E-03 0.  1.
         12    1    3    3    0    0  0.14442748657E+01  0.26201299688E+01 -0.21235996177E+01  0.36688807936E+01  0.00000000000E+00 0. -1.
</event>
<event>
 7    1  0.2312612E-008  0.4614232E+02  0.7816164E-02  0.1320468E+00
        -11   -1    0    0    0    0  0.00000000000E+00  0.00000000000E+00  0.45593999997E+02  0.45594000000E+02  0.51100000000E-03 0.  1.
         11   -1    0    0    0    0 -0.00000000000E+00 -0.00000000000E+00 -0.45593999997E+02  0.45594000000E+02  0.51100000000E-03 0. -1.
    9900012    2    1    2    0    0  0.11519745564E+02  0.28938068910E+02  0.32542235846E+02  0.46142317810E+02  0.10000000444E+02 0.  0.
         12    1    1    2    0    0 -0.11519745564E+02 -0.28938068910E+02 -0.32542235846E+02  0.45045682190E+02  0.00000000000E+00 0. -1.
         11    1    3    3    0    0 -0.51081060989E+00  0.54346434871E+01  0.45663628991E+01  0.71167371526E+01  0.51100000000E-03 0. -1.
        -11    1    3    3    0    0 -0.49279375912E+00 -0.16242542089E-01  0.96444337817E+00  0.10831716392E+01  0.51100000000E-03 0.  1.
        -12    1    3    3    0    0  0.12523349933E+02  0.23519667965E+02  0.27011429569E+02  0.37942409018E+02  0.00000000000E+00 0.  1.
</event>
<event>
 7    1  0.2312612E-008  0.4614232E+02  0.7816164E-02  0.1320468E+00
        -11   -1    0    0    0    0  0.00000000000E+00  0.00000000000E+00  0.45593999997E+02  0.45594000000E+02  0.51100000000E-03 0.  1.
         11   -1    0    0    0    0 -0.00000000000E+00 -0.00000000000E+00 -0.45593999997E+02  0.45594000000E+02  0.51100000000E-03 0. -1.
    9900012    2    1    2    0    0  0.41940103903E+02 -0.15918347355E+02  0.40923066576E+01  0.46142322386E+02  0.10000042174E+02 0.  0.
         12    1    1    2    0    0 -0.41940103903E+02  0.15918347355E+02 -0.40923066576E+01  0.45045677614E+02  0.00000000000E+00 0. -1.
         11    1    3    3    0    0  0.61098354207E+01 -0.14451375943E+01  0.30117360600E+01  0.69634090710E+01  0.51100000000E-03 0. -1.
        -11    1    3    3    0    0  0.14478425861E+02 -0.77052586209E+01 -0.21752737450E+01  0.16544716436E+02  0.51100000000E-03 0.  1.
        -12    1    3    3    0    0  0.21351842622E+02 -0.67679511397E+01  0.32558443426E+01  0.22634196879E+02  0.00000000000E+00 0.  1.
</event>
<event>
 7    1  0.2312612E-008  0.4614232E+02  0.7816164E-02  0.1320468E+00
        -11   -1    0    0    0    0  0.00000000000E+00  0.00000000000E+00  0.45593999997E+02  0.45594000000E+02  0.51100000000E-03 0. -1.
         11   -1    0    0    0    0 -0.00000000000E+00 -0.00000000000E+00 -0.45593999997E+02  0.45594000000E+02  0.51100000000E-03 0.  1.
    9900012    2    1    2    0    0 -0.20430351647E+01 -0.41919351614E+02 -0.16361763689E+02  0.46142319370E+02  0.10000014667E+02 0.  0.
         12    1    1    2    0    0  0.20430351647E+01  0.41919351614E+02  0.16361763689E+02  0.45045680630E+02  0.00000000000E+00 0. -1.
         11    1    3    3    0    0 -0.35855240193E+01 -0.70681355269E+01 -0.43671115163E+01  0.90490986057E+01  0.51100000000E-03 0. -1.
        -11    1    3    3    0    0 -0.40422905242E+00 -0.10990957163E+02 -0.54530477951E+01  0.12276003870E+02  0.51100000000E-03 0.  1.
         12    1    3    3    0    0  0.19467179071E+01 -0.23860258924E+02 -0.65416043778E+01  0.24817216894E+02  0.00000000000E+00 0. -1.
</event>
<event>
 7    1  0.2312612E-008  0.4614232E+02  0.7816164E-02  0.1320468E+00
        -11   -1    0    0    0    0  0.00000000000E+00  0.00000000000E+00  0.45593999997E+02  0.45594000000E+02  0.51100000000E-03 0.  1.
         11   -1    0    0    0    0 -0.00000000000E+00 -0.00000000000E+00 -0.45593999997E+02  0.45594000000E+02  0.51100000000E-03 0. -1.
    9900012    2    1    2    0    0 -0.21140270754E+02 -0.38865580468E+02  0.84657611596E+01  0.46142317580E+02  0.99999983482E+01 0.  0.
         12    1    1    2    0    0  0.21140270754E+02  0.38865580468E+02 -0.84657611596E+01  0.45045682420E+02  0.00000000000E+00 0. -1.
         11    1    3    3    0    0 -0.55864995997E+00 -0.25693035948E+01 -0.14867254218E+01  0.30205568164E+01  0.51100000000E-03 0. -1.
        -11    1    3    3    0    0 -0.12822128202E+02 -0.18859206781E+02  0.42060971178E+01  0.23189823312E+02  0.51100000000E-03 0.  1.
        -12    1    3    3    0    0 -0.77594925924E+01 -0.17437070092E+02  0.57463894636E+01  0.19931937451E+02  0.00000000000E+00 0.  1.
</event>
<event>
 7    1  0.2312612E-008  0.4614232E+02  0.7816164E-02  0.1320468E+00
        -11   -1    0    0    0    0  0.00000000000E+00  0.00000000000E+00  0.45593999997E+02  0.45594000000E+02  0.51100000000E-03 0. -1.
         11   -1    0    0    0    0 -0.00000000000E+00 -0.00000000000E+00 -0.45593999997E+02  0.45594000000E+02  0.51100000000E-03 0.  1.
    9900012    2    1    2    0    0  0.21255956928E+02 -0.26977483860E+02 -0.29146411216E+02  0.46142316221E+02  0.99999859598E+01 0.  0.
         12    1    1    2    0    0 -0.21255956928E+02  0.26977483860E+02  0.29146411216E+02  0.45045683779E+02  0.00000000000E+00 0. -1.
         11    1    3    3    0    0  0.55636234334E+01 -0.95771880687E+01 -0.75569994562E+01  0.13408380889E+02  0.51100000000E-03 0. -1.
        -11    1    3    3    0    0  0.41071564141E+01 -0.87229011103E+01 -0.11900006000E+02  0.15315609053E+02  0.51100000000E-03 0.  1.
         12    1    3    3    0    0  0.11585177080E+02 -0.86773946810E+01 -0.96894057591E+01  0.17418326280E+02  0.00000000000E+00 0. -1.
</event>
<event>
 7    1  0.2312612E-008  0.4614232E+02  0.7816164E-02  0.1320468E+00
        -11   -1    0    0    0    0  0.00000000000E+00  0.00000000000E+00  0.45593999997E+02  0.45594000000E+02  0.51100000000E-03 0. -1.
         11   -1    0    0    0    0 -0.00000000000E+00 -0.00000000000E+00 -0.45593999997E+02  0.45594000000E+02  0.51100000000E-03 0.  1.
    9900012    2    1    2    0    0  0.41216339385E+02 -0.51634279369E+01 -0.17426012623E+02  0.46142317229E+02  0.99999951478E+01 0.  0.
         12    1    1    2    0    0 -0.41216339385E+02  0.51634279369E+01  0.17426012623E+02  0.45045682771E+02  0.00000000000E+00 0. -1.
         11    1    3    3    0    0  0.28026762755E+02 -0.48330572547E+01 -0.69280186727E+01  0.29272091075E+02  0.51100000000E-03 0. -1.
        -11    1    3    3    0    0  0.42630983929E+01 -0.80039002715E-01 -0.37336853687E+01  0.56675233429E+01  0.51100000000E-03 0.  1.
         12    1    3    3    0    0  0.89264782375E+01 -0.25033167950E+00 -0.67643085820E+01  0.11202702811E+02  0.00000000000E+00 0. -1.
</event>
<event>
 7    1  0.2312612E-008  0.4614232E+02  0.7816164E-02  0.1320468E+00
        -11   -1    0    0    0    0  0.00000000000E+00  0.00000000000E+00  0.45593999997E+02  0.45594000000E+02  0.51100000000E-03 0.  1.
         11   -1    0    0    0    0 -0.00000000000E+00 -0.00000000000E+00 -0.45593999997E+02  0.45594000000E+02  0.51100000000E-03 0. -1.
    9900012    2    1    2    0    0  0.54635522144E+01  0.59213400859E+01  0.44319304296E+02  0.46142318692E+02  0.10000008491E+02 0.  0.
         12    1    1    2    0    0 -0.54635522144E+01 -0.59213400859E+01 -0.44319304296E+02  0.45045681308E+02  0.00000000000E+00 0. -1.
         11    1    3    3    0    0  0.27195627795E+01  0.25467272590E+00  0.29737931114E+01  0.40378615181E+01  0.51100000000E-03 0. -1.
        -11    1    3    3    0    0  0.36805642496E+01  0.30015688194E+01  0.31699898702E+02  0.32053697861E+02  0.51100000000E-03 0.  1.
         12    1    3    3    0    0 -0.93657481460E+00  0.26650985406E+01  0.96456124823E+01  0.10050759313E+02  0.00000000000E+00 0. -1.
</event>
<event>
 7    1  0.2312612E-008  0.4614232E+02  0.7816164E-02  0.1320468E+00
        -11   -1    0    0    0    0  0.00000000000E+00  0.00000000000E+00  0.45593999997E+02  0.45594000000E+02  0.51100000000E-03 0. -1.
         11   -1    0    0    0    0 -0.00000000000E+00 -0.00000000000E+00 -0.45593999997E+02  0.45594000000E+02  0.51100000000E-03 0.  1.
    9900012    2    1    2    0    0 -0.26462515349E+01  0.10435925968E+02 -0.43740168129E+02  0.46142317566E+02  0.99999982205E+01 0.  0.
         12    1    1    2    0    0  0.26462515349E+01 -0.10435925968E+02  0.43740168129E+02  0.45045682434E+02  0.00000000000E+00 0. -1.
         11    1    3    3    0    0 -0.19990187027E+01  0.74151387674E+00 -0.39675310464E+01  0.45041338200E+01  0.51100000000E-03 0. -1.
        -11    1    3    3    0    0 -0.23366650500E+01  0.66676443339E+01 -0.35189853338E+02  0.35892105855E+02  0.51100000000E-03 0.  1.
         12    1    3    3    0    0  0.16894322178E+01  0.30267677575E+01 -0.45827837448E+01  0.57460778909E+01  0.00000000000E+00 0. -1.
</event>
<event>
 7    1  0.2312612E-008  0.4614232E+02  0.7816164E-02  0.1320468E+00
        -11   -1    0    0    0    0  0.00000000000E+00  0.00000000000E+00  0.45593999997E+02  0.45594000000E+02  0.51100000000E-03 0. -1.
         11   -1    0    0    0    0 -0.00000000000E+00 -0.00000000000E+00 -0.45593999997E+02  0.45594000000E+02  0.51100000000E-03 0.  1.
    9900012    2    1    2    0    0  0.43267917888E+02  0.10041032643E+02  0.74952213881E+01  0.46142318758E+02  0.10000009087E+02 0.  0.
         12    1    1    2    0    0 -0.43267917888E+02 -0.10041032643E+02 -0.74952213881E+01  0.45045681242E+02  0.00000000000E+00 0. -1.
         11    1    3    3    0    0  0.13111154462E+02  0.22117039468E+01 -0.10858447087E+01  0.13340654582E+02  0.51100000000E-03 0. -1.
        -11    1    3    3    0    0  0.19467718576E+02  0.39069519272E+01  0.28653650765E+01  0.20061571653E+02  0.51100000000E-03 0.  1.
        -12    1    3    3    0    0  0.10689044850E+02  0.39223767691E+01  0.57157010203E+01  0.12740092522E+02  0.00000000000E+00 0.  1.
</event>
<event>
 7    1  0.2312612E-008  0.4614232E+02  0.7816164E-02  0.1320468E+00
        -11   -1    0    0    0    0  0.00000000000E+00  0.00000000000E+00  0.45593999997E+02  0.45594000000E+02  0.51100000000E-03 0.  1.
         11   -1    0    0    0    0 -0.00000000000E+00 -0.00000000000E+00 -0.45593999997E+02  0.45594000000E+02  0.51100000000E-03 0. -1.
    9900012    2    1    2    0    0  0.12278570889E+00  0.20020179096E+02  0.40352085952E+02  0.46142317765E+02  0.10000000035E+02 0.  0.
         12    1    1    2    0    0 -0.12278570889E+00 -0.20020179096E+02 -0.40352085952E+02  0.45045682235E+02  0.00000000000E+00 0. -1.
         11    1    3    3    0    0  0.73400945410E+00  0.63323984280E+01  0.69780564490E+01  0.94515243107E+01  0.51100000000E-03 0.  1.
        -11    1    3    3    0    0 -0.29640445024E+01  0.68571203388E+01  0.21826706066E+02  0.23069693477E+02  0.51100000000E-03 0. -1.
         12    1    3    3    0    0  0.23528207571E+01  0.68306603294E+01  0.11547323437E+02  0.13621099978E+02  0.00000000000E+00 0. -1.
</event>
<event>
 7    1  0.2312612E-008  0.4614232E+02  0.7816164E-02  0.1320468E+00
        -11   -1    0    0    0    0  0.00000000000E+00  0.00000000000E+00  0.45593999997E+02  0.45594000000E+02  0.51100000000E-03 0.  1.
         11   -1    0    0    0    0 -0.00000000000E+00 -0.00000000000E+00 -0.45593999997E+02  0.45594000000E+02  0.51100000000E-03 0. -1.
    9900012    2    1    2    0    0  0.17250286393E+02 -0.36629731955E+01  0.41450255559E+02  0.46142318308E+02  0.10000004984E+02 0.  0.
         12    1    1    2    0    0 -0.17250286393E+02  0.36629731955E+01 -0.41450255559E+02  0.45045681692E+02  0.00000000000E+00 0. -1.
         11    1    3    3    0    0  0.11475270796E+02  0.36820970741E+00  0.17682366994E+02  0.21082777829E+02  0.51100000000E-03 0. -1.
        -11    1    3    3    0    0  0.12547876152E+01 -0.16006534083E+01  0.27279157762E+01  0.34026619045E+01  0.51100000000E-03 0.  1.
        -12    1    3    3    0    0  0.45202279810E+01 -0.24305294947E+01  0.21039972788E+02  0.21656878574E+02  0.00000000000E+00 0.  1.
</event>
<event>
 7    1  0.2312612E-008  0.4614232E+02  0.7816164E-02  0.1320468E+00
        -11   -1    0    0    0    0  0.00000000000E+00  0.00000000000E+00  0.45593999997E+02  0.45594000000E+02  0.51100000000E-03 0. -1.
         11   -1    0    0    0    0 -0.00000000000E+00 -0.00000000000E+00 -0.45593999997E+02  0.45594000000E+02  0.51100000000E-03 0.  1.
    9900012    2    1    2    0    0  0.41373819449E+02  0.11668372417E+02 -0.13459922051E+02  0.46142319272E+02  0.10000013775E+02 0.  0.
         12    1    1    2    0    0 -0.41373819449E+02 -0.11668372417E+02  0.13459922051E+02  0.45045680728E+02  0.00000000000E+00 0. -1.
         11    1    3    3    0    0  0.12001616248E+02  0.61316644094E+01 -0.20906029649E+01  0.13638428136E+02  0.51100000000E-03 0.  1.
        -11    1    3    3    0    0  0.28829129633E+01 -0.15140527980E+00  0.49126028208E+00  0.29283865248E+01  0.51100000000E-03 0. -1.
        -12    1    3    3    0    0  0.26489290238E+02  0.56881132870E+01 -0.11860579368E+02  0.29575504611E+02  0.00000000000E+00 0.  1.
</event>
<event>
 7    1  0.2312612E-008  0.4614232E+02  0.7816164E-02  0.1320468E+00
        -11   -1    0    0    0    0  0.00000000000E+00  0.00000000000E+00  0.45593999997E+02  0.45594000000E+02  0.51100000000E-03 0.  1.
         11   -1    0    0    0    0 -0.00000000000E+00 -0.00000000000E+00 -0.45593999997E+02  0.45594000000E+02  0.51100000000E-03 0. -1.
    9900012    2    1    2    0    0  0.14535218820E+02 -0.34483631215E+02  0.25074292170E+02  0.46142317235E+02  0.99999952012E+01 0.  0.
         12    1    1    2    0    0 -0.14535218820E+02  0.34483631215E+02 -0.25074292170E+02  0.45045682765E+02  0.00000000000E+00 0. -1.
         11    1    3    3    0    0  0.28200109811E+01 -0.79293174801E+01  0.77616516425E+01  0.11448570833E+02  0.51100000000E-03 0. -1.
        -11    1    3    3    0    0 -0.81126511240E+00 -0.99686045025E+00  0.19905246356E+01  0.23694029682E+01  0.51100000000E-03 0.  1.
         12    1    3    3    0    0  0.12526472952E+02 -0.25557453285E+02  0.15322115892E+02  0.32324343434E+02  0.00000000000E+00 0. -1.
</event>
<event>
 7    1  0.2312612E-008  0.4614231E+02  0.7816164E-02  0.1320468E+00
        -11   -1    0    0    0    0  0.00000000000E+00  0.00000000000E+00  0.45593999997E+02  0.45594000000E+02  0.51100000000E-03 0.  1.
         11   -1    0    0    0    0 -0.00000000000E+00 -0.00000000000E+00 -0.45593999997E+02  0.45594000000E+02  0.51100000000E-03 0. -1.
    9900012    2    1    2    0    0  0.41863831311E+02 -0.25169404942E+01  0.16437717445E+02  0.46142313011E+02  0.99999566841E+01 0.  0.
         12    1    1    2    0    0 -0.41863831311E+02  0.25169404942E+01 -0.16437717445E+02  0.45045686989E+02  0.00000000000E+00 0. -1.
         11    1    3    3    0    0  0.15274545536E+01 -0.17871127859E+01  0.16182480423E+01  0.28540526467E+01  0.51100000000E-03 0. -1.
        -11    1    3    3    0    0  0.14623580041E+02 -0.13228631517E+01  0.30177131532E+01  0.14990185224E+02  0.51100000000E-03 0.  1.
         12    1    3    3    0    0  0.25712796717E+02  0.59303544343E+00  0.11801756249E+02  0.28298075140E+02  0.00000000000E+00 0. -1.
</event>
<event>
 7    1  0.2312612E-008  0.4614232E+02  0.7816164E-02  0.1320468E+00
        -11   -1    0    0    0    0  0.00000000000E+00  0.00000000000E+00  0.45593999997E+02  0.45594000000E+02  0.51100000000E-03 0. -1.
         11   -1    0    0    0    0 -0.00000000000E+00 -0.00000000000E+00 -0.45593999997E+02  0.45594000000E+02  0.51100000000E-03 0.  1.
    9900012    2    1    2    0    0  0.39895794589E+02  0.19681489214E+02 -0.70765893161E+01  0.46142316967E+02  0.99999927597E+01 0.  0.
         12    1    1    2    0    0 -0.39895794589E+02 -0.19681489214E+02  0.70765893161E+01  0.45045683033E+02  0.00000000000E+00 0. -1.
         11    1    3    3    0    0  0.15203049774E+02  0.11021599979E+02 -0.14379591225E+01  0.18832846710E+02  0.51100000000E-03 0. -1.
        -11    1    3    3    0    0  0.12013094055E+02  0.70485211479E+01 -0.25462702346E+01  0.14159080885E+02  0.51100000000E-03 0.  1.
         12    1    3    3    0    0  0.12679650760E+02  0.16113680875E+01 -0.30923599590E+01  0.13150389372E+02  0.00000000000E+00 0. -1.
</event>
<event>
 7    1  0.2312612E-008  0.4614231E+02  0.7816164E-02  0.1320468E+00
        -11   -1    0    0    0    0  0.00000000000E+00  0.00000000000E+00  0.45593999997E+02  0.45594000000E+02  0.51100000000E-03 0. -1.
         11   -1    0    0    0    0 -0.00000000000E+00 -0.00000000000E+00 -0.45593999997E+02  0.45594000000E+02  0.51100000000E-03 0.  1.
    9900012    2    1    2    0    0 -0.28675434654E+02 -0.22200113249E+01 -0.34668498012E+02  0.46142314776E+02  0.99999727802E+01 0.  0.
         12    1    1    2    0    0  0.28675434654E+02  0.22200113249E+01  0.34668498012E+02  0.45045685224E+02  0.00000000000E+00 0. -1.
         11    1    3    3    0    0 -0.88794752647E+01 -0.28303985259E+01 -0.62322468514E+01  0.11211473492E+02  0.51100000000E-03 0. -1.
        -11    1    3    3    0    0 -0.14683949435E+02 -0.14860986876E+01 -0.20451513045E+02  0.25220849438E+02  0.51100000000E-03 0.  1.
         12    1    3    3    0    0 -0.51120099539E+01  0.20964858886E+01 -0.79847381163E+01  0.97099918453E+01  0.00000000000E+00 0. -1.
</event>
<event>
 7    1  0.2312612E-008  0.4614232E+02  0.7816164E-02  0.1320468E+00
        -11   -1    0    0    0    0  0.00000000000E+00  0.00000000000E+00  0.45593999997E+02  0.45594000000E+02  0.51100000000E-03 0.  1.
         11   -1    0    0    0    0 -0.00000000000E+00 -0.00000000000E+00 -0.45593999997E+02  0.45594000000E+02  0.51100000000E-03 0. -1.
    9900012    2    1    2    0    0 -0.38069582412E+02 -0.20417089584E+02  0.12765690338E+02  0.46142317611E+02  0.99999986304E+01 0.  0.
         12    1    1    2    0    0  0.38069582412E+02  0.20417089584E+02 -0.12765690338E+02  0.45045682389E+02  0.00000000000E+00 0. -1.
         11    1    3    3    0    0 -0.61261572284E+01 -0.40912587467E+01 -0.14764895506E+00  0.73681748754E+01  0.51100000000E-03 0. -1.
        -11    1    3    3    0    0 -0.14688563119E+02 -0.41274882297E+01  0.72777364140E+01  0.16904303984E+02  0.51100000000E-03 0.  1.
        -12    1    3    3    0    0 -0.17254862064E+02 -0.12198342608E+02  0.56356028788E+01  0.21869838752E+02  0.00000000000E+00 0.  1.
</event>
<event>
 7    1  0.2312612E-008  0.4614232E+02  0.7816164E-02  0.1320468E+00
        -11   -1    0    0    0    0  0.00000000000E+00  0.00000000000E+00  0.45593999997E+02  0.45594000000E+02  0.51100000000E-03 0. -1.
         11   -1    0    0    0    0 -0.00000000000E+00 -0.00000000000E+00 -0.45593999997E+02  0.45594000000E+02  0.51100000000E-03 0.  1.
    9900012    2    1    2    0    0 -0.21897336290E+02 -0.14660362180E+02 -0.36533463158E+02  0.46142317785E+02  0.10000000222E+02 0.  0.
         12    1    1    2    0    0  0.21897336290E+02  0.14660362180E+02  0.36533463158E+02  0.45045682215E+02  0.00000000000E+00 0. -1.
         11    1    3    3    0    0 -0.26273114360E+01 -0.25372396114E+01 -0.10986453297E+01  0.38141017355E+01  0.51100000000E-03 0. -1.
        -11    1    3    3    0    0 -0.12839921430E+01  0.25509820557E+00 -0.17323278686E+01  0.21713293217E+01  0.51100000000E-03 0.  1.
        -12    1    3    3    0    0 -0.17986032711E+02 -0.12378220774E+02 -0.33702489960E+02  0.40156886728E+02  0.00000000000E+00 0.  1.
</event>
<event>
 7    1  0.2312612E-008  0.4614232E+02  0.7816164E-02  0.1320468E+00
        -11   -1    0    0    0    0  0.00000000000E+00  0.00000000000E+00  0.45593999997E+02  0.45594000000E+02  0.51100000000E-03 0.  1.
         11   -1    0    0    0    0 -0.00000000000E+00 -0.00000000000E+00 -0.45593999997E+02  0.45594000000E+02  0.51100000000E-03 0. -1.
    9900012    2    1    2    0    0  0.23542754667E+02  0.28903599479E+02  0.25287038840E+02  0.46142315485E+02  0.99999792429E+01 0.  0.
         12    1    1    2    0    0 -0.23542754667E+02 -0.28903599479E+02 -0.25287038840E+02  0.45045684515E+02  0.00000000000E+00 0. -1.
         11    1    3    3    0    0  0.60401086801E+01  0.26369656389E+01  0.71789658087E+01  0.97454630979E+01  0.51100000000E-03 0. -1.
        -11    1    3    3    0    0  0.34168901475E+01  0.55853970044E+01  0.35705906497E+01  0.74579431364E+01  0.51100000000E-03 0.  1.
         12    1    3    3    0    0  0.14085755840E+02  0.20681236836E+02  0.14537482381E+02  0.28938909251E+02  0.00000000000E+00 0. -1.
</event>
<event>
 7    1  0.2312612E-008  0.4614232E+02  0.7816164E-02  0.1320468E+00
        -11   -1    0    0    0    0  0.00000000000E+00  0.00000000000E+00  0.45593999997E+02  0.45594000000E+02  0.51100000000E-03 0.  1.
         11   -1    0    0    0    0 -0.00000000000E+00 -0.00000000000E+00 -0.45593999997E+02  0.45594000000E+02  0.51100000000E-03 0. -1.
    9900012    2    1    2    0    0 -0.39540844645E+02  0.16818523705E+02  0.13519332713E+02  0.46142317723E+02  0.99999996490E+01 0.  0.
         12    1    1    2    0    0  0.39540844645E+02 -0.16818523705E+02 -0.13519332713E+02  0.45045682277E+02  0.00000000000E+00 0. -1.
         11    1    3    3    0    0 -0.19752749727E+02  0.11290422982E+02  0.96627360661E+01  0.24718682033E+02  0.51100000000E-03 0. -1.
        -11    1    3    3    0    0 -0.19947064346E+02  0.57564897743E+01  0.36558322835E+01  0.21080504275E+02  0.51100000000E-03 0.  1.
         12    1    3    3    0    0  0.15896942814E+00 -0.22838905202E+00  0.20076436335E+00  0.34313141470E+00  0.00000000000E+00 0. -1.
</event>
<event>
 7    1  0.2312612E-008  0.4614232E+02  0.7816164E-02  0.1320468E+00
        -11   -1    0    0    0    0  0.00000000000E+00  0.00000000000E+00  0.45593999997E+02  0.45594000000E+02  0.51100000000E-03 0. -1.
         11   -1    0    0    0    0 -0.00000000000E+00 -0.00000000000E+00 -0.45593999997E+02  0.45594000000E+02  0.51100000000E-03 0.  1.
    9900012    2    1    2    0    0 -0.30162842165E+02 -0.24154664761E+02 -0.23148835367E+02  0.46142318120E+02  0.10000003275E+02 0.  0.
         12    1    1    2    0    0  0.30162842165E+02  0.24154664761E+02  0.23148835367E+02  0.45045681880E+02  0.00000000000E+00 0. -1.
         11    1    3    3    0    0 -0.26040068318E+01 -0.24650623288E+01  0.34658090350E-02  0.35857211462E+01  0.51100000000E-03 0. -1.
        -11    1    3    3    0    0 -0.15409728767E+02 -0.96521113484E+01 -0.15182052320E+02  0.23687923233E+02  0.51100000000E-03 0.  1.
        -12    1    3    3    0    0 -0.12149106566E+02 -0.12037491084E+02 -0.79702488554E+01  0.18868673741E+02  0.00000000000E+00 0.  1.
</event>
<event>
 7    1  0.2312612E-008  0.4614232E+02  0.7816164E-02  0.1320468E+00
        -11   -1    0    0    0    0  0.00000000000E+00  0.00000000000E+00  0.45593999997E+02  0.45594000000E+02  0.51100000000E-03 0.  1.
         11   -1    0    0    0    0 -0.00000000000E+00 -0.00000000000E+00 -0.45593999997E+02  0.45594000000E+02  0.51100000000E-03 0. -1.
    9900012    2    1    2    0    0  0.30629809887E+01 -0.28278804214E+02  0.34929084187E+02  0.46142317160E+02  0.99999945221E+01 0.  0.
         12    1    1    2    0    0 -0.30629809887E+01  0.28278804214E+02 -0.34929084187E+02  0.45045682840E+02  0.00000000000E+00 0. -1.
         11    1    3    3    0    0  0.20051660647E+01 -0.67949476155E+01  0.11017059180E+02  0.13098381476E+02  0.51100000000E-03 0.  1.
        -11    1    3    3    0    0 -0.23695569855E+01 -0.72786181351E+01  0.11793594617E+02  0.14059941554E+02  0.51100000000E-03 0. -1.
         12    1    3    3    0    0  0.34273719095E+01 -0.14205238464E+02  0.12118430390E+02  0.18983994130E+02  0.00000000000E+00 0. -1.
</event>
<event>
 7    1  0.2312612E-008  0.4614232E+02  0.7816164E-02  0.1320468E+00
        -11   -1    0    0    0    0  0.00000000000E+00  0.00000000000E+00  0.45593999997E+02  0.45594000000E+02  0.51100000000E-03 0.  1.
         11   -1    0    0    0    0 -0.00000000000E+00 -0.00000000000E+00 -0.45593999997E+02  0.45594000000E+02  0.51100000000E-03 0. -1.
    9900012    2    1    2    0    0  0.30701092062E+00 -0.15078976124E+02  0.42445773988E+02  0.46142317564E+02  0.99999982016E+01 0.  0.
         12    1    1    2    0    0 -0.30701092062E+00  0.15078976124E+02 -0.42445773988E+02  0.45045682436E+02  0.00000000000E+00 0. -1.
         11    1    3    3    0    0  0.53460007639E+00 -0.75792933224E+01  0.12295755066E+02  0.14453964073E+02  0.51100000000E-03 0. -1.
        -11    1    3    3    0    0 -0.77268712325E-01 -0.43458749339E+01  0.64433276701E+01  0.77723272654E+01  0.51100000000E-03 0.  1.
         12    1    3    3    0    0 -0.15032044345E+00 -0.31538078677E+01  0.23706691252E+02  0.23916026226E+02  0.00000000000E+00 0. -1.
</event>
<event>
 7    1  0.2312612E-008  0.4614232E+02  0.7816164E-02  0.1320468E+00
        -11   -1    0    0    0    0  0.00000000000E+00  0.00000000000E+00  0.45593999997E+02  0.45594000000E+02  0.51100000000E-03 0.  1.
         11   -1    0    0    0    0 -0.00000000000E+00 -0.00000000000E+00 -0.45593999997E+02  0.45594000000E+02  0.51100000000E-03 0. -1.
    9900012    2    1    2    0    0 -0.20933559588E+02  0.26766855352E+02  0.29570847590E+02  0.46142317747E+02  0.99999998691E+01 0.  0.
         12    1    1    2    0    0  0.20933559588E+02 -0.26766855352E+02 -0.29570847590E+02  0.45045682253E+02  0.00000000000E+00 0. -1.
         11    1    3    3    0    0 -0.41279678711E+01  0.53386824402E+01  0.95156816556E+01  0.11665755294E+02  0.51100000000E-03 0. -1.
        -11    1    3    3    0    0 -0.10813316554E+01  0.56872963746E+01  0.44024709123E+01  0.72729889726E+01  0.51100000000E-03 0.  1.
         12    1    3    3    0    0 -0.15724260061E+02  0.15740876537E+02  0.15652695022E+02  0.27203573480E+02  0.00000000000E+00 0. -1.
</event>
<event>
 7    1  0.2312612E-008  0.4614232E+02  0.7816164E-02  0.1320468E+00
        -11   -1    0    0    0    0  0.00000000000E+00  0.00000000000E+00  0.45593999997E+02  0.45594000000E+02  0.51100000000E-03 0.  1.
         11   -1    0    0    0    0 -0.00000000000E+00 -0.00000000000E+00 -0.45593999997E+02  0.45594000000E+02  0.51100000000E-03 0. -1.
    9900012    2    1    2    0    0 -0.29378150712E+02  0.25279910872E+02  0.22955694371E+02  0.46142317221E+02  0.99999950737E+01 0.  0.
         12    1    1    2    0    0  0.29378150712E+02 -0.25279910872E+02 -0.22955694371E+02  0.45045682779E+02  0.00000000000E+00 0. -1.
         11    1    3    3    0    0 -0.12640239879E+02  0.10032571956E+02  0.51946097197E+01  0.16953233752E+02  0.51100000000E-03 0.  1.
        -11    1    3    3    0    0 -0.65626233850E+00  0.14338863018E+01  0.71828045707E-01  0.15785657138E+01  0.51100000000E-03 0. -1.
        -12    1    3    3    0    0 -0.16081648495E+02  0.13813452614E+02  0.17689256606E+02  0.27610517755E+02  0.00000000000E+00 0.  1.
</event>
<event>
 7    1  0.2312612E-008  0.4614232E+02  0.7816164E-02  0.1320468E+00
        -11   -1    0    0    0    0  0.00000000000E+00  0.00000000000E+00  0.45593999997E+02  0.45594000000E+02  0.51100000000E-03 0.  1.
         11   -1    0    0    0    0 -0.00000000000E+00 -0.00000000000E+00 -0.45593999997E+02  0.45594000000E+02  0.51100000000E-03 0. -1.
    9900012    2    1    2    0    0 -0.26394224130E+02 -0.10029803197E+01  0.36489071493E+02  0.46142319015E+02  0.10000011434E+02 0.  0.
         12    1    1    2    0    0  0.26394224130E+02  0.10029803197E+01 -0.36489071493E+02  0.45045680985E+02  0.00000000000E+00 0. -1.
         11    1    3    3    0    0 -0.48479087411E+01 -0.99247123580E+00  0.14397336249E+02  0.15224010958E+02  0.51100000000E-03 0. -1.
        -11    1    3    3    0    0 -0.10699452895E+02  0.93724562617E+00  0.11196491816E+02  0.15515094291E+02  0.51100000000E-03 0.  1.
         12    1    3    3    0    0 -0.10846862494E+02 -0.94775471005E+00  0.10895243428E+02  0.15403213766E+02  0.00000000000E+00 0. -1.
</event>
<event>
 7    1  0.2312612E-008  0.4614232E+02  0.7816164E-02  0.1320468E+00
        -11   -1    0    0    0    0  0.00000000000E+00  0.00000000000E+00  0.45593999997E+02  0.45594000000E+02  0.51100000000E-03 0. -1.
         11   -1    0    0    0    0 -0.00000000000E+00 -0.00000000000E+00 -0.45593999997E+02  0.45594000000E+02  0.51100000000E-03 0.  1.
    9900012    2    1    2    0    0 -0.43729834159E+02  0.34511845460E+01 -0.10242290267E+02  0.46142316741E+02  0.99999906996E+01 0.  0.
         12    1    1    2    0    0  0.43729834159E+02 -0.34511845460E+01  0.10242290267E+02  0.45045683259E+02  0.00000000000E+00 0. -1.
         11    1    3    3    0    0 -0.34152539556E+01  0.16300711142E-01 -0.30389672180E+01  0.45716022691E+01  0.51100000000E-03 0. -1.
        -11    1    3    3    0    0 -0.35039612113E+02  0.41933398513E+01 -0.79924476201E+01  0.36183390324E+02  0.51100000000E-03 0.  1.
         12    1    3    3    0    0 -0.52749680908E+01 -0.75845601639E+00  0.78912457137E+00  0.53873241481E+01  0.00000000000E+00 0. -1.
</event>
<event>
 7    1  0.2312612E-008  0.4614232E+02  0.7816164E-02  0.1320468E+00
        -11   -1    0    0    0    0  0.00000000000E+00  0.00000000000E+00  0.45593999997E+02  0.45594000000E+02  0.51100000000E-03 0.  1.
         11   -1    0    0    0    0 -0.00000000000E+00 -0.00000000000E+00 -0.45593999997E+02  0.45594000000E+02  0.51100000000E-03 0. -1.
    9900012    2    1    2    0    0 -0.11870350287E+02 -0.56696020641E+00  0.43449820613E+02  0.46142316842E+02  0.99999916212E+01 0.  0.
         12    1    1    2    0    0  0.11870350287E+02  0.56696020641E+00 -0.43449820613E+02  0.45045683158E+02  0.00000000000E+00 0. -1.
         11    1    3    3    0    0 -0.45213681593E+01 -0.36191531841E+01  0.11210794415E+02  0.12618357717E+02  0.51100000000E-03 0. -1.
        -11    1    3    3    0    0 -0.40334596500E+01  0.56858811118E-01  0.21781238578E+02  0.22151622602E+02  0.51100000000E-03 0.  1.
        -12    1    3    3    0    0 -0.33155224779E+01  0.29953341665E+01  0.10457787621E+02  0.11372336523E+02  0.00000000000E+00 0.  1.
</event>
<event>
 7    1  0.2312612E-008  0.4614232E+02  0.7816164E-02  0.1320468E+00
        -11   -1    0    0    0    0  0.00000000000E+00  0.00000000000E+00  0.45593999997E+02  0.45594000000E+02  0.51100000000E-03 0.  1.
         11   -1    0    0    0    0 -0.00000000000E+00 -0.00000000000E+00 -0.45593999997E+02  0.45594000000E+02  0.51100000000E-03 0. -1.
    9900012    2    1    2    0    0  0.23281126815E+02 -0.11978346179E+02  0.36655448708E+02  0.46142316933E+02  0.99999924508E+01 0.  0.
         12    1    1    2    0    0 -0.23281126815E+02  0.11978346179E+02 -0.36655448708E+02  0.45045683067E+02  0.00000000000E+00 0. -1.
         11    1    3    3    0    0  0.13912641091E+02 -0.93474255257E+01  0.28062802422E+02  0.32687257856E+02  0.51100000000E-03 0.  1.
        -11    1    3    3    0    0  0.25568299402E+01 -0.15544043907E+01  0.90184332010E+00  0.31251998317E+01  0.51100000000E-03 0. -1.
         12    1    3    3    0    0  0.68116557833E+01 -0.10765162626E+01  0.76908029663E+01  0.10329859246E+02  0.00000000000E+00 0. -1.
</event>
<event>
 7    1  0.2312612E-008  0.4614231E+02  0.7816164E-02  0.1320468E+00
        -11   -1    0    0    0    0  0.00000000000E+00  0.00000000000E+00  0.45593999997E+02  0.45594000000E+02  0.51100000000E-03 0.  1.
         11   -1    0    0    0    0 -0.00000000000E+00 -0.00000000000E+00 -0.45593999997E+02  0.45594000000E+02  0.51100000000E-03 0. -1.
    9900012    2    1    2    0    0  0.11142906078E+02 -0.17173537216E+02  0.40125043598E+02  0.46142313634E+02  0.99999623699E+01 0.  0.
         12    1    1    2    0    0 -0.11142906078E+02  0.17173537216E+02 -0.40125043598E+02  0.45045686366E+02  0.00000000000E+00 0. -1.
         11    1    3    3    0    0  0.78826751426E+01 -0.91893464005E+01  0.23319742871E+02  0.26275293767E+02  0.51100000000E-03 0. -1.
        -11    1    3    3    0    0  0.40288153042E+01 -0.86128403051E+01  0.15883836532E+02  0.18512391367E+02  0.51100000000E-03 0.  1.
         12    1    3    3    0    0 -0.76858436915E+00  0.62864948962E+00  0.92146419476E+00  0.13546285009E+01  0.00000000000E+00 0. -1.
</event>
<event>
 7    1  0.2312612E-008  0.4614232E+02  0.7816164E-02  0.1320468E+00
        -11   -1    0    0    0    0  0.00000000000E+00  0.00000000000E+00  0.45593999997E+02  0.45594000000E+02  0.51100000000E-03 0.  1.
         11   -1    0    0    0    0 -0.00000000000E+00 -0.00000000000E+00 -0.45593999997E+02  0.45594000000E+02  0.51100000000E-03 0. -1.
    9900012    2    1    2    0    0 -0.94634821482E+01  0.42344669789E+02 -0.12103092516E+02  0.46142318716E+02  0.10000008707E+02 0.  0.
         12    1    1    2    0    0  0.94634821482E+01 -0.42344669789E+02  0.12103092516E+02  0.45045681284E+02  0.00000000000E+00 0. -1.
         11    1    3    3    0    0 -0.62607474156E+01  0.14690362018E+02 -0.41282804760E+01  0.16493828978E+02  0.51100000000E-03 0.  1.
        -11    1    3    3    0    0 -0.31508336076E+00  0.11123908063E+02 -0.14096630211E+00  0.11129262324E+02  0.51100000000E-03 0. -1.
        -12    1    3    3    0    0 -0.28876513718E+01  0.16530399708E+02 -0.78338457379E+01  0.18519227414E+02  0.00000000000E+00 0.  1.
</event>
<event>
 7    1  0.2312612E-008  0.4614232E+02  0.7816164E-02  0.1320468E+00
        -11   -1    0    0    0    0  0.00000000000E+00  0.00000000000E+00  0.45593999997E+02  0.45594000000E+02  0.51100000000E-03 0.  1.
         11   -1    0    0    0    0 -0.00000000000E+00 -0.00000000000E+00 -0.45593999997E+02  0.45594000000E+02  0.51100000000E-03 0. -1.
    9900012    2    1    2    0    0 -0.43026983069E+02 -0.41510382872E+01 -0.12671273471E+02  0.46142316941E+02  0.99999925188E+01 0.  0.
         12    1    1    2    0    0  0.43026983069E+02  0.41510382872E+01  0.12671273471E+02  0.45045683059E+02  0.00000000000E+00 0. -1.
         11    1    3    3    0    0 -0.27435463309E+01  0.90564036965E+00  0.22542956684E+00  0.28979388710E+01  0.51100000000E-03 0. -1.
        -11    1    3    3    0    0 -0.42661561064E+01 -0.16646529491E+01  0.62794529253E+00  0.46222800560E+01  0.51100000000E-03 0.  1.
        -12    1    3    3    0    0 -0.36017280632E+02 -0.33920257077E+01 -0.13524648330E+02  0.38622098014E+02  0.00000000000E+00 0.  1.
</event>
<event>
 7    1  0.2312612E-008  0.4614232E+02  0.7816164E-02  0.1320468E+00
        -11   -1    0    0    0    0  0.00000000000E+00  0.00000000000E+00  0.45593999997E+02  0.45594000000E+02  0.51100000000E-03 0. -1.
         11   -1    0    0    0    0 -0.00000000000E+00 -0.00000000000E+00 -0.45593999997E+02  0.45594000000E+02  0.51100000000E-03 0.  1.
    9900012    2    1    2    0    0 -0.14583860059E+02 -0.19499181361E+02 -0.37897313576E+02  0.46142318473E+02  0.10000006489E+02 0.  0.
         12    1    1    2    0    0  0.14583860059E+02  0.19499181361E+02  0.37897313576E+02  0.45045681527E+02  0.00000000000E+00 0. -1.
         11    1    3    3    0    0 -0.26321502383E+01 -0.11829781223E+00 -0.20861536751E+01  0.33606913971E+01  0.51100000000E-03 0. -1.
        -11    1    3    3    0    0 -0.64595942891E+01 -0.88582586820E+01 -0.21928713324E+02  0.24516597920E+02  0.51100000000E-03 0.  1.
        -12    1    3    3    0    0 -0.54921155321E+01 -0.10522624867E+02 -0.13882446577E+02  0.18265029156E+02  0.00000000000E+00 0.  1.
</event>
<event>
 7    1  0.2312612E-008  0.4614232E+02  0.7816164E-02  0.1320468E+00
        -11   -1    0    0    0    0  0.00000000000E+00  0.00000000000E+00  0.45593999997E+02  0.45594000000E+02  0.51100000000E-03 0.  1.
         11   -1    0    0    0    0 -0.00000000000E+00 -0.00000000000E+00 -0.45593999997E+02  0.45594000000E+02  0.51100000000E-03 0. -1.
    9900012    2    1    2    0    0  0.36143160583E+02 -0.21292329306E+02  0.16414086369E+02  0.46142316794E+02  0.99999911784E+01 0.  0.
         12    1    1    2    0    0 -0.36143160583E+02  0.21292329306E+02 -0.16414086369E+02  0.45045683206E+02  0.00000000000E+00 0. -1.
         11    1    3    3    0    0  0.12466814790E+02 -0.61784551936E+01  0.19510735703E+01  0.14049963272E+02  0.51100000000E-03 0. -1.
        -11    1    3    3    0    0  0.19538189799E+02 -0.10547260251E+02  0.93776294651E+01  0.24102396023E+02  0.51100000000E-03 0.  1.
        -12    1    3    3    0    0  0.41381559940E+01 -0.45666138609E+01  0.50853833331E+01  0.79899574986E+01  0.00000000000E+00 0.  1.
</event>
<event>
 7    1  0.2312612E-008  0.4614232E+02  0.7816164E-02  0.1320468E+00
        -11   -1    0    0    0    0  0.00000000000E+00  0.00000000000E+00  0.45593999997E+02  0.45594000000E+02  0.51100000000E-03 0.  1.
         11   -1    0    0    0    0 -0.00000000000E+00 -0.00000000000E+00 -0.45593999997E+02  0.45594000000E+02  0.51100000000E-03 0. -1.
    9900012    2    1    2    0    0  0.25131411751E+02  0.26485396586E+02  0.26382748074E+02  0.46142317800E+02  0.10000000355E+02 0.  0.
         12    1    1    2    0    0 -0.25131411751E+02 -0.26485396586E+02 -0.26382748074E+02  0.45045682200E+02  0.00000000000E+00 0. -1.
         11    1    3    3    0    0 -0.42109970450E+00  0.99133915687E-01  0.25837033683E+00  0.50389283230E+00  0.51100000000E-03 0. -1.
        -11    1    3    3    0    0  0.11040847845E+02  0.15487436306E+02  0.10715814240E+02  0.21830934005E+02  0.51100000000E-03 0.  1.
        -12    1    3    3    0    0  0.14511663611E+02  0.10898826364E+02  0.15408563498E+02  0.23807490963E+02  0.00000000000E+00 0.  1.
</event>
<event>
 7    1  0.2312612E-008  0.4614232E+02  0.7816164E-02  0.1320468E+00
        -11   -1    0    0    0    0  0.00000000000E+00  0.00000000000E+00  0.45593999997E+02  0.45594000000E+02  0.51100000000E-03 0.  1.
         11   -1    0    0    0    0 -0.00000000000E+00 -0.00000000000E+00 -0.45593999997E+02  0.45594000000E+02  0.51100000000E-03 0. -1.
    9900012    2    1    2    0    0  0.31221530147E+02 -0.31602764177E+02  0.74561955872E+01  0.46142317621E+02  0.99999987247E+01 0.  0.
         12    1    1    2    0    0 -0.31221530147E+02  0.31602764177E+02 -0.74561955872E+01  0.45045682379E+02  0.00000000000E+00 0. -1.
         11    1    3    3    0    0  0.22482178985E+01 -0.55547689072E+01  0.22281659035E+01  0.63933297183E+01  0.51100000000E-03 0. -1.
        -11    1    3    3    0    0  0.10320140699E+02 -0.70032704728E+01  0.38614550095E+01  0.13056107246E+02  0.51100000000E-03 0.  1.
         12    1    3    3    0    0  0.18653171549E+02 -0.19044724796E+02  0.13665746743E+01  0.26692880657E+02  0.00000000000E+00 0. -1.
</event>
<event>
 7    1  0.2312612E-008  0.4614232E+02  0.7816164E-02  0.1320468E+00
        -11   -1    0    0    0    0  0.00000000000E+00  0.00000000000E+00  0.45593999997E+02  0.45594000000E+02  0.51100000000E-03 0.  1.
         11   -1    0    0    0    0 -0.00000000000E+00 -0.00000000000E+00 -0.45593999997E+02  0.45594000000E+02  0.51100000000E-03 0. -1.
    9900012    2    1    2    0    0 -0.11286371932E+02 -0.41713052750E+02  0.12718195416E+02  0.46142318123E+02  0.10000003303E+02 0.  0.
         12    1    1    2    0    0  0.11286371932E+02  0.41713052750E+02 -0.12718195416E+02  0.45045681877E+02  0.00000000000E+00 0. -1.
         11    1    3    3    0    0 -0.51976462507E+01 -0.24100969753E+02  0.42363107183E+01  0.25016366610E+02  0.51100000000E-03 0. -1.
        -11    1    3    3    0    0 -0.51554785966E+01 -0.15193119831E+02  0.50404255429E+01  0.16817126380E+02  0.51100000000E-03 0.  1.
         12    1    3    3    0    0 -0.93324708457E+00 -0.24189631654E+01  0.34414591551E+01  0.43088251337E+01  0.00000000000E+00 0. -1.
</event>
<event>
 7    1  0.2312612E-008  0.4614231E+02  0.7816164E-02  0.1320468E+00
        -11   -1    0    0    0    0  0.00000000000E+00  0.00000000000E+00  0.45593999997E+02  0.45594000000E+02  0.51100000000E-03 0. -1.
         11   -1    0    0    0    0 -0.00000000000E+00 -0.00000000000E+00 -0.45593999997E+02  0.45594000000E+02  0.51100000000E-03 0.  1.
    9900012    2    1    2    0    0 -0.23203635018E+02  0.19858444187E+02 -0.33111138133E+02  0.46142312615E+02  0.99999530705E+01 0.  0.
         12    1    1    2    0    0  0.23203635018E+02 -0.19858444187E+02  0.33111138133E+02  0.45045687385E+02  0.00000000000E+00 0. -1.
         11    1    3    3    0    0 -0.16803311641E+01  0.54986433853E-01  0.12569850337E+00  0.16859231014E+01  0.51100000000E-03 0. -1.
        -11    1    3    3    0    0 -0.77729453564E+01  0.83785243710E+01 -0.15646880593E+02  0.19376357313E+02  0.51100000000E-03 0.  1.
        -12    1    3    3    0    0 -0.13750358497E+02  0.11424933382E+02 -0.17589956043E+02  0.25080032201E+02  0.00000000000E+00 0.  1.
</event>
<event>
 7    1  0.2312612E-008  0.4614232E+02  0.7816164E-02  0.1320468E+00
        -11   -1    0    0    0    0  0.00000000000E+00  0.00000000000E+00  0.45593999997E+02  0.45594000000E+02  0.51100000000E-03 0.  1.
         11   -1    0    0    0    0 -0.00000000000E+00 -0.00000000000E+00 -0.45593999997E+02  0.45594000000E+02  0.51100000000E-03 0. -1.
    9900012    2    1    2    0    0  0.27266619433E+02 -0.34303966061E+02  0.10434694336E+02  0.46142317980E+02  0.10000001992E+02 0.  0.
         12    1    1    2    0    0 -0.27266619433E+02  0.34303966061E+02 -0.10434694336E+02  0.45045682020E+02  0.00000000000E+00 0. -1.
         11    1    3    3    0    0  0.75757878124E+01 -0.14127339417E+02  0.38727799521E+00  0.16035094776E+02  0.51100000000E-03 0. -1.
        -11    1    3    3    0    0  0.10366279757E+01 -0.96085889593E+00  0.13360503726E+01  0.19449622714E+01  0.51100000000E-03 0.  1.
         12    1    3    3    0    0  0.18654203644E+02 -0.19215767748E+02  0.87113659683E+01  0.28162260932E+02  0.00000000000E+00 0. -1.
</event>
<event>
 7    1  0.2312612E-008  0.4614232E+02  0.7816164E-02  0.1320468E+00
        -11   -1    0    0    0    0  0.00000000000E+00  0.00000000000E+00  0.45593999997E+02  0.45594000000E+02  0.51100000000E-03 0. -1.
         11   -1    0    0    0    0 -0.00000000000E+00 -0.00000000000E+00 -0.45593999997E+02  0.45594000000E+02  0.51100000000E-03 0.  1.
    9900012    2    1    2    0    0  0.23624940395E+02 -0.49270373764E+01 -0.38035510602E+02  0.46142316824E+02  0.99999914557E+01 0.  0.
         12    1    1    2    0    0 -0.23624940395E+02  0.49270373764E+01  0.38035510602E+02  0.45045683176E+02  0.00000000000E+00 0. -1.
         11    1    3    3    0    0  0.23873581494E+01 -0.23497253431E+01 -0.11215502111E+02  0.11705049166E+02  0.51100000000E-03 0. -1.
        -11    1    3    3    0    0  0.19267208619E+02 -0.26268124693E+01 -0.25486447205E+02  0.32057518043E+02  0.51100000000E-03 0.  1.
         12    1    3    3    0    0  0.19703736270E+01  0.49500435947E-01 -0.13335612870E+01  0.23797496149E+01  0.00000000000E+00 0. -1.
</event>
<event>
 7    1  0.2312612E-008  0.4614232E+02  0.7816164E-02  0.1320468E+00
        -11   -1    0    0    0    0  0.00000000000E+00  0.00000000000E+00  0.45593999997E+02  0.45594000000E+02  0.51100000000E-03 0. -1.
         11   -1    0    0    0    0 -0.00000000000E+00 -0.00000000000E+00 -0.45593999997E+02  0.45594000000E+02  0.51100000000E-03 0.  1.
    9900012    2    1    2    0    0 -0.34767455895E+02  0.25436422633E+02 -0.13165332562E+02  0.46142316886E+02  0.99999920164E+01 0.  0.
         12    1    1    2    0    0  0.34767455895E+02 -0.25436422633E+02  0.13165332562E+02  0.45045683114E+02  0.00000000000E+00 0. -1.
         11    1    3    3    0    0 -0.77526819706E+01  0.97606514005E+01 -0.55420286115E+01  0.13641424958E+02  0.51100000000E-03 0. -1.
        -11    1    3    3    0    0 -0.86790101933E+01  0.34392162503E+01 -0.40204015702E+01  0.10164499761E+02  0.51100000000E-03 0.  1.
         12    1    3    3    0    0 -0.18335763731E+02  0.12236554983E+02 -0.36029023806E+01  0.22336392166E+02  0.00000000000E+00 0. -1.
</event>
<event>
 7    1  0.2312612E-008  0.4614232E+02  0.7816164E-02  0.1320468E+00
        -11   -1    0    0    0    0  0.00000000000E+00  0.00000000000E+00  0.45593999997E+02  0.45594000000E+02  0.51100000000E-03 0.  1.
         11   -1    0    0    0    0 -0.00000000000E+00 -0.00000000000E+00 -0.45593999997E+02  0.45594000000E+02  0.51100000000E-03 0. -1.
    9900012    2    1    2    0    0 -0.43846446302E+02 -0.31589194259E+01  0.98297426635E+01  0.46142318008E+02  0.10000002254E+02 0.  0.
         12    1    1    2    0    0  0.43846446302E+02  0.31589194259E+01 -0.98297426635E+01  0.45045681992E+02  0.00000000000E+00 0. -1.
         11    1    3    3    0    0 -0.18105969073E+02 -0.13260865007E+00  0.16967907354E+01  0.18185785663E+02  0.51100000000E-03 0. -1.
        -11    1    3    3    0    0 -0.12053717043E+02  0.18026525153E+01  0.45294876584E+01  0.13002227092E+02  0.51100000000E-03 0.  1.
         12    1    3    3    0    0 -0.13686760186E+02 -0.48289632911E+01  0.36034642696E+01  0.14954305253E+02  0.00000000000E+00 0. -1.
</event>
<event>
 7    1  0.2312612E-008  0.4614232E+02  0.7816164E-02  0.1320468E+00
        -11   -1    0    0    0    0  0.00000000000E+00  0.00000000000E+00  0.45593999997E+02  0.45594000000E+02  0.51100000000E-03 0.  1.
         11   -1    0    0    0    0 -0.00000000000E+00 -0.00000000000E+00 -0.45593999997E+02  0.45594000000E+02  0.51100000000E-03 0. -1.
    9900012    2    1    2    0    0  0.31446347672E+02  0.32677009296E+01  0.32086800561E+02  0.46142318503E+02  0.10000006769E+02 0.  0.
         12    1    1    2    0    0 -0.31446347672E+02 -0.32677009296E+01 -0.32086800561E+02  0.45045681497E+02  0.00000000000E+00 0. -1.
         11    1    3    3    0    0  0.46812301216E+00 -0.54683881269E+00  0.84757458228E-02  0.71989161751E+00  0.51100000000E-03 0. -1.
        -11    1    3    3    0    0  0.50606620618E+01 -0.10891327649E+01  0.89601771246E+01  0.10348008748E+02  0.51100000000E-03 0.  1.
        -12    1    3    3    0    0  0.25917562598E+02  0.49036725072E+01  0.23118147690E+02  0.35074418138E+02  0.00000000000E+00 0.  1.
</event>
<event>
 7    1  0.2312612E-008  0.4614232E+02  0.7816164E-02  0.1320468E+00
        -11   -1    0    0    0    0  0.00000000000E+00  0.00000000000E+00  0.45593999997E+02  0.45594000000E+02  0.51100000000E-03 0.  1.
         11   -1    0    0    0    0 -0.00000000000E+00 -0.00000000000E+00 -0.45593999997E+02  0.45594000000E+02  0.51100000000E-03 0. -1.
    9900012    2    1    2    0    0 -0.30906861519E+02  0.68687634941E+01  0.32042152086E+02  0.46142317508E+02  0.99999976885E+01 0.  0.
         12    1    1    2    0    0  0.30906861519E+02 -0.68687634941E+01 -0.32042152086E+02  0.45045682492E+02  0.00000000000E+00 0. -1.
         11    1    3    3    0    0 -0.90946482539E+01 -0.24891969609E+00  0.42701961414E+01  0.10050331498E+02  0.51100000000E-03 0. -1.
        -11    1    3    3    0    0 -0.14017901527E+02  0.45376613624E+01  0.19461634708E+02  0.24409980738E+02  0.51100000000E-03 0.  1.
        -12    1    3    3    0    0 -0.77943117384E+01  0.25800218278E+01  0.83103212361E+01  0.11682005271E+02  0.00000000000E+00 0.  1.
</event>
<event>
 7    1  0.2312612E-008  0.4614232E+02  0.7816164E-02  0.1320468E+00
        -11   -1    0    0    0    0  0.00000000000E+00  0.00000000000E+00  0.45593999997E+02  0.45594000000E+02  0.51100000000E-03 0. -1.
         11   -1    0    0    0    0 -0.00000000000E+00 -0.00000000000E+00 -0.45593999997E+02  0.45594000000E+02  0.51100000000E-03 0.  1.
    9900012    2    1    2    0    0  0.11811248002E+02 -0.35345830549E+02 -0.25303758036E+02  0.46142317773E+02  0.10000000106E+02 0.  0.
         12    1    1    2    0    0 -0.11811248002E+02  0.35345830549E+02  0.25303758036E+02  0.45045682227E+02  0.00000000000E+00 0. -1.
         11    1    3    3    0    0 -0.13191512645E+01 -0.39751396274E+01 -0.17766601346E+01  0.45495512538E+01  0.51100000000E-03 0. -1.
        -11    1    3    3    0    0  0.12209228978E+02 -0.25056033363E+02 -0.19957253282E+02  0.34280636502E+02  0.51100000000E-03 0.  1.
        -12    1    3    3    0    0  0.92117028865E+00 -0.63146575586E+01 -0.35698446194E+01  0.73121300173E+01  0.00000000000E+00 0.  1.
</event>
<event>
 7    1  0.2312612E-008  0.4614232E+02  0.7816164E-02  0.1320468E+00
        -11   -1    0    0    0    0  0.00000000000E+00  0.00000000000E+00  0.45593999997E+02  0.45594000000E+02  0.51100000000E-03 0. -1.
         11   -1    0    0    0    0 -0.00000000000E+00 -0.00000000000E+00 -0.45593999997E+02  0.45594000000E+02  0.51100000000E-03 0.  1.
    9900012    2    1    2    0    0  0.31406692774E+02 -0.23483615784E+02  0.22164224212E+02  0.46142318784E+02  0.10000009328E+02 0.  0.
         12    1    1    2    0    0 -0.31406692774E+02  0.23483615784E+02 -0.22164224212E+02  0.45045681216E+02  0.00000000000E+00 0. -1.
         11    1    3    3    0    0  0.13626641319E+02 -0.98257387020E+01  0.10889653116E+02  0.20020365629E+02  0.51100000000E-03 0. -1.
        -11    1    3    3    0    0  0.12392612956E+02 -0.81457681170E+01  0.36335354747E+01  0.15268692623E+02  0.51100000000E-03 0.  1.
         12    1    3    3    0    0  0.53874384987E+01 -0.55121089654E+01  0.76410356206E+01  0.10853260532E+02  0.00000000000E+00 0. -1.
</event>
<event>
 7    1  0.2312612E-008  0.4614232E+02  0.7816164E-02  0.1320468E+00
        -11   -1    0    0    0    0  0.00000000000E+00  0.00000000000E+00  0.45593999997E+02  0.45594000000E+02  0.51100000000E-03 0.  1.
         11   -1    0    0    0    0 -0.00000000000E+00 -0.00000000000E+00 -0.45593999997E+02  0.45594000000E+02  0.51100000000E-03 0. -1.
    9900012    2    1    2    0    0 -0.37967152190E+02 -0.80848115298E+01  0.22852670993E+02  0.46142318804E+02  0.10000009511E+02 0.  0.
         12    1    1    2    0    0  0.37967152190E+02  0.80848115298E+01 -0.22852670993E+02  0.45045681196E+02  0.00000000000E+00 0. -1.
         11    1    3    3    0    0 -0.10732004902E+02 -0.25197319244E+01  0.11062044964E+02  0.15617100154E+02  0.51100000000E-03 0. -1.
        -11    1    3    3    0    0 -0.12338817428E+02 -0.63142840348E+00  0.65322813469E+01  0.13975543539E+02  0.51100000000E-03 0.  1.
         12    1    3    3    0    0 -0.14896329860E+02 -0.49336512019E+01  0.52583446824E+01  0.16549675111E+02  0.00000000000E+00 0. -1.
</event>
<event>
 7    1  0.2312612E-008  0.4614232E+02  0.7816164E-02  0.1320468E+00
        -11   -1    0    0    0    0  0.00000000000E+00  0.00000000000E+00  0.45593999997E+02  0.45594000000E+02  0.51100000000E-03 0.  1.
         11   -1    0    0    0    0 -0.00000000000E+00 -0.00000000000E+00 -0.45593999997E+02  0.45594000000E+02  0.51100000000E-03 0. -1.
    9900012    2    1    2    0    0  0.43004847843E+02  0.12616345622E+02  0.45303815940E+01  0.46142317940E+02  0.10000001634E+02 0.  0.
         12    1    1    2    0    0 -0.43004847843E+02 -0.12616345622E+02 -0.45303815940E+01  0.45045682060E+02  0.00000000000E+00 0. -1.
         11    1    3    3    0    0  0.88775157535E+01  0.10291806788E+01  0.16439649678E+00  0.89384856263E+01  0.51100000000E-03 0. -1.
        -11    1    3    3    0    0  0.31682486922E+02  0.86966286561E+01  0.53622544953E+01  0.33289113853E+02  0.51100000000E-03 0.  1.
        -12    1    3    3    0    0  0.24448451671E+01  0.28905362871E+01 -0.99626939805E+00  0.39147184614E+01  0.00000000000E+00 0.  1.
</event>
<event>
 7    1  0.2312612E-008  0.4614232E+02  0.7816164E-02  0.1320468E+00
        -11   -1    0    0    0    0  0.00000000000E+00  0.00000000000E+00  0.45593999997E+02  0.45594000000E+02  0.51100000000E-03 0.  1.
         11   -1    0    0    0    0 -0.00000000000E+00 -0.00000000000E+00 -0.45593999997E+02  0.45594000000E+02  0.51100000000E-03 0. -1.
    9900012    2    1    2    0    0 -0.10965985476E+02  0.43347050803E+02  0.54675287299E+01  0.46142317397E+02  0.99999966788E+01 0.  0.
         12    1    1    2    0    0  0.10965985476E+02 -0.43347050803E+02 -0.54675287299E+01  0.45045682603E+02  0.00000000000E+00 0. -1.
         11    1    3    3    0    0 -0.48236811263E+01  0.21379343688E+02  0.43983568173E+00  0.21921169947E+02  0.51100000000E-03 0. -1.
        -11    1    3    3    0    0 -0.62833581183E+01  0.22385476503E+02  0.49768888026E+01  0.23777291055E+02  0.51100000000E-03 0.  1.
         12    1    3    3    0    0  0.14105376852E+00 -0.41776938864E+00  0.50804245621E-01  0.44385639465E+00  0.00000000000E+00 0. -1.
</event>
<event>
 7    1  0.2312612E-008  0.4614232E+02  0.7816164E-02  0.1320468E+00
        -11   -1    0    0    0    0  0.00000000000E+00  0.00000000000E+00  0.45593999997E+02  0.45594000000E+02  0.51100000000E-03 0.  1.
         11   -1    0    0    0    0 -0.00000000000E+00 -0.00000000000E+00 -0.45593999997E+02  0.45594000000E+02  0.51100000000E-03 0. -1.
    9900012    2    1    2    0    0 -0.44969264672E+02 -0.25422312821E+01  0.64483532030E+00  0.46142317436E+02  0.99999970347E+01 0.  0.
         12    1    1    2    0    0  0.44969264672E+02  0.25422312821E+01 -0.64483532030E+00  0.45045682564E+02  0.00000000000E+00 0. -1.
         11    1    3    3    0    0 -0.24640759895E+01 -0.98548579381E-01  0.41641746278E+00  0.25009570306E+01  0.51100000000E-03 0. -1.
        -11    1    3    3    0    0 -0.35978482894E+02 -0.54302176129E+01  0.11547044510E+01  0.36404283227E+02  0.51100000000E-03 0.  1.
         12    1    3    3    0    0 -0.65267057891E+01  0.29865349101E+01 -0.92628659346E+00  0.72370771780E+01  0.00000000000E+00 0. -1.
</event>
<event>
 7    1  0.2312612E-008  0.4614232E+02  0.7816164E-02  0.1320468E+00
        -11   -1    0    0    0    0  0.00000000000E+00  0.00000000000E+00  0.45593999997E+02  0.45594000000E+02  0.51100000000E-03 0. -1.
         11   -1    0    0    0    0 -0.00000000000E+00 -0.00000000000E+00 -0.45593999997E+02  0.45594000000E+02  0.51100000000E-03 0.  1.
    9900012    2    1    2    0    0 -0.26065153431E+02  0.30189148088E+02 -0.20936485088E+02  0.46142319924E+02  0.10000019727E+02 0.  0.
         12    1    1    2    0    0  0.26065153431E+02 -0.30189148088E+02  0.20936485088E+02  0.45045680076E+02  0.00000000000E+00 0. -1.
         11    1    3    3    0    0 -0.59182399193E+01  0.13297704674E+02 -0.95882949618E+01  0.17429570100E+02  0.51100000000E-03 0. -1.
        -11    1    3    3    0    0 -0.64865612015E+01  0.55408718519E+01 -0.26259861654E+01  0.89259476081E+01  0.51100000000E-03 0.  1.
         12    1    3    3    0    0 -0.13660352310E+02  0.11350571562E+02 -0.87222039606E+01  0.19786802216E+02  0.00000000000E+00 0. -1.
</event>
<event>
 7    1  0.2312612E-008  0.4614232E+02  0.7816164E-02  0.1320468E+00
        -11   -1    0    0    0    0  0.00000000000E+00  0.00000000000E+00  0.45593999997E+02  0.45594000000E+02  0.51100000000E-03 0.  1.
         11   -1    0    0    0    0 -0.00000000000E+00 -0.00000000000E+00 -0.45593999997E+02  0.45594000000E+02  0.51100000000E-03 0. -1.
    9900012    2    1    2    0    0 -0.26716413577E+01 -0.34692258479E+02  0.28608093247E+02  0.46142318019E+02  0.10000002349E+02 0.  0.
         12    1    1    2    0    0  0.26716413577E+01  0.34692258479E+02 -0.28608093247E+02  0.45045681981E+02  0.00000000000E+00 0. -1.
         11    1    3    3    0    0  0.17476649519E-01 -0.39755029524E+00 -0.19258696334E+00  0.44208785336E+00  0.51100000000E-03 0. -1.
        -11    1    3    3    0    0  0.31860047841E+01 -0.11861544103E+02  0.10519463654E+02  0.16171146243E+02  0.51100000000E-03 0.  1.
         12    1    3    3    0    0 -0.58751227913E+01 -0.22433164081E+02  0.18281216556E+02  0.29529083922E+02  0.00000000000E+00 0. -1.
</event>
<event>
 7    1  0.2312612E-008  0.4614232E+02  0.7816164E-02  0.1320468E+00
        -11   -1    0    0    0    0  0.00000000000E+00  0.00000000000E+00  0.45593999997E+02  0.45594000000E+02  0.51100000000E-03 0.  1.
         11   -1    0    0    0    0 -0.00000000000E+00 -0.00000000000E+00 -0.45593999997E+02  0.45594000000E+02  0.51100000000E-03 0. -1.
    9900012    2    1    2    0    0  0.20273126832E+02  0.39701072216E+02  0.64760077787E+01  0.46142317816E+02  0.10000000500E+02 0.  0.
         12    1    1    2    0    0 -0.20273126832E+02 -0.39701072216E+02 -0.64760077787E+01  0.45045682184E+02  0.00000000000E+00 0. -1.
         11    1    3    3    0    0  0.11688524530E+02  0.14225453562E+02  0.18234071485E+01  0.18501620162E+02  0.51100000000E-03 0. -1.
        -11    1    3    3    0    0  0.15973077739E+01  0.10646599728E+02  0.29321907134E+01  0.11157921873E+02  0.51100000000E-03 0.  1.
         12    1    3    3    0    0  0.69872945285E+01  0.14829018927E+02  0.17204099169E+01  0.16482775781E+02  0.00000000000E+00 0. -1.
</event>
<event>
 7    1  0.2312612E-008  0.4614232E+02  0.7816164E-02  0.1320468E+00
        -11   -1    0    0    0    0  0.00000000000E+00  0.00000000000E+00  0.45593999997E+02  0.45594000000E+02  0.51100000000E-03 0. -1.
         11   -1    0    0    0    0 -0.00000000000E+00 -0.00000000000E+00 -0.45593999997E+02  0.45594000000E+02  0.51100000000E-03 0.  1.
    9900012    2    1    2    0    0 -0.17999999444E+02  0.34944981917E+02 -0.21999131322E+02  0.46142317409E+02  0.99999967868E+01 0.  0.
         12    1    1    2    0    0  0.17999999444E+02 -0.34944981917E+02  0.21999131322E+02  0.45045682591E+02  0.00000000000E+00 0. -1.
         11    1    3    3    0    0 -0.60081443315E+01  0.56281136523E+01 -0.33537842523E+01  0.88893942799E+01  0.51100000000E-03 0. -1.
        -11    1    3    3    0    0 -0.10002450095E+02  0.19623652080E+02 -0.10330772570E+02  0.24328205668E+02  0.51100000000E-03 0.  1.
         12    1    3    3    0    0 -0.19894050171E+01  0.96932161851E+01 -0.83145744998E+01  0.12924717461E+02  0.00000000000E+00 0. -1.
</event>
<event>
 7    1  0.2312612E-008  0.4614232E+02  0.7816164E-02  0.1320468E+00
        -11   -1    0    0    0    0  0.00000000000E+00  0.00000000000E+00  0.45593999997E+02  0.45594000000E+02  0.51100000000E-03 0.  1.
         11   -1    0    0    0    0 -0.00000000000E+00 -0.00000000000E+00 -0.45593999997E+02  0.45594000000E+02  0.51100000000E-03 0. -1.
    9900012    2    1    2    0    0  0.35378549514E+02  0.57448943651E+01  0.27284936849E+02  0.46142319232E+02  0.10000013414E+02 0.  0.
         12    1    1    2    0    0 -0.35378549514E+02 -0.57448943651E+01 -0.27284936849E+02  0.45045680768E+02  0.00000000000E+00 0. -1.
         11    1    3    3    0    0  0.11210516866E+02  0.49531268024E+01  0.97370153386E+01  0.15653070673E+02  0.51100000000E-03 0. -1.
        -11    1    3    3    0    0  0.64889373115E-01  0.57674661926E+00  0.12905079097E+01  0.14150117384E+01  0.51100000000E-03 0.  1.
        -12    1    3    3    0    0  0.24103143275E+02  0.21502094345E+00  0.16257413601E+02  0.29074236821E+02  0.00000000000E+00 0.  1.
</event>
<event>
 7    1  0.2312612E-008  0.4614232E+02  0.7816164E-02  0.1320468E+00
        -11   -1    0    0    0    0  0.00000000000E+00  0.00000000000E+00  0.45593999997E+02  0.45594000000E+02  0.51100000000E-03 0.  1.
         11   -1    0    0    0    0 -0.00000000000E+00 -0.00000000000E+00 -0.45593999997E+02  0.45594000000E+02  0.51100000000E-03 0. -1.
    9900012    2    1    2    0    0 -0.25733022216E+02  0.35973614444E+02 -0.85337108826E+01  0.46142316634E+02  0.99999897189E+01 0.  0.
         12    1    1    2    0    0  0.25733022216E+02 -0.35973614444E+02  0.85337108826E+01  0.45045683366E+02  0.00000000000E+00 0. -1.
         11    1    3    3    0    0 -0.86050181685E+00  0.20414224728E-01  0.44590700715E+00  0.96938817690E+00  0.51100000000E-03 0. -1.
        -11    1    3    3    0    0 -0.38178402072E+00  0.37773999032E+01 -0.24734333786E+00  0.38046928989E+01  0.51100000000E-03 0.  1.
        -12    1    3    3    0    0 -0.24490736378E+02  0.32175800316E+02 -0.87322745519E+01  0.41368235558E+02  0.00000000000E+00 0.  1.
</event>
<event>
 7    1  0.2312612E-008  0.4614232E+02  0.7816164E-02  0.1320468E+00
        -11   -1    0    0    0    0  0.00000000000E+00  0.00000000000E+00  0.45593999997E+02  0.45594000000E+02  0.51100000000E-03 0.  1.
         11   -1    0    0    0    0 -0.00000000000E+00 -0.00000000000E+00 -0.45593999997E+02  0.45594000000E+02  0.51100000000E-03 0. -1.
    9900012    2    1    2    0    0 -0.40728957297E+02 -0.16443376778E+02  0.99940400335E+01  0.46142318314E+02  0.10000005040E+02 0.  0.
         12    1    1    2    0    0  0.40728957297E+02  0.16443376778E+02 -0.99940400335E+01  0.45045681686E+02  0.00000000000E+00 0. -1.
         11    1    3    3    0    0 -0.15963389585E+02 -0.90222862790E+01  0.21236906727E+01  0.18459185222E+02  0.51100000000E-03 0.  1.
        -11    1    3    3    0    0 -0.92398104594E+01  0.97778616853E-01  0.19410789744E+01  0.94420043332E+01  0.51100000000E-03 0. -1.
         12    1    3    3    0    0 -0.15525757253E+02 -0.75188691157E+01  0.59292703864E+01  0.18241128758E+02  0.00000000000E+00 0. -1.
</event>
<event>
 7    1  0.2312612E-008  0.4614232E+02  0.7816164E-02  0.1320468E+00
        -11   -1    0    0    0    0  0.00000000000E+00  0.00000000000E+00  0.45593999997E+02  0.45594000000E+02  0.51100000000E-03 0.  1.
         11   -1    0    0    0    0 -0.00000000000E+00 -0.00000000000E+00 -0.45593999997E+02  0.45594000000E+02  0.51100000000E-03 0. -1.
    9900012    2    1    2    0    0 -0.36600307542E+01  0.31227979195E+02  0.32257263382E+02  0.46142317070E+02  0.99999937009E+01 0.  0.
         12    1    1    2    0    0  0.36600307542E+01 -0.31227979195E+02 -0.32257263382E+02  0.45045682930E+02  0.00000000000E+00 0. -1.
         11    1    3    3    0    0 -0.24042622328E+01  0.10803359348E+02  0.65850956603E+01  0.12878530009E+02  0.51100000000E-03 0. -1.
        -11    1    3    3    0    0 -0.33051282956E+01  0.10358420694E+02  0.13617335999E+02  0.17425630327E+02  0.51100000000E-03 0.  1.
        -12    1    3    3    0    0  0.20493597742E+01  0.10066199153E+02  0.12054831722E+02  0.15838156734E+02  0.00000000000E+00 0.  1.
</event>
<event>
 7    1  0.2312612E-008  0.4614232E+02  0.7816164E-02  0.1320468E+00
        -11   -1    0    0    0    0  0.00000000000E+00  0.00000000000E+00  0.45593999997E+02  0.45594000000E+02  0.51100000000E-03 0. -1.
         11   -1    0    0    0    0 -0.00000000000E+00 -0.00000000000E+00 -0.45593999997E+02  0.45594000000E+02  0.51100000000E-03 0.  1.
    9900012    2    1    2    0    0 -0.39490242094E+02  0.21021802834E+02 -0.52647943853E+01  0.46142317909E+02  0.10000001352E+02 0.  0.
         12    1    1    2    0    0  0.39490242094E+02 -0.21021802834E+02  0.52647943853E+01  0.45045682091E+02  0.00000000000E+00 0. -1.
         11    1    3    3    0    0 -0.53080437782E+01  0.20788588345E+01 -0.37887131132E+00  0.57131888238E+01  0.51100000000E-03 0.  1.
        -11    1    3    3    0    0 -0.25858700873E+02  0.95122344572E+01 -0.31906492678E+01  0.27736893449E+02  0.51100000000E-03 0. -1.
        -12    1    3    3    0    0 -0.83234974434E+01  0.94307095428E+01 -0.16952738063E+01  0.12692235636E+02  0.00000000000E+00 0.  1.
</event>
<event>
 7    1  0.2312612E-008  0.4614232E+02  0.7816164E-02  0.1320468E+00
        -11   -1    0    0    0    0  0.00000000000E+00  0.00000000000E+00  0.45593999997E+02  0.45594000000E+02  0.51100000000E-03 0.  1.
         11   -1    0    0    0    0 -0.00000000000E+00 -0.00000000000E+00 -0.45593999997E+02  0.45594000000E+02  0.51100000000E-03 0. -1.
    9900012    2    1    2    0    0  0.35480780712E+02  0.10788131664E+02  0.25570367551E+02  0.46142320058E+02  0.10000020948E+02 0.  0.
         12    1    1    2    0    0 -0.35480780712E+02 -0.10788131664E+02 -0.25570367551E+02  0.45045679942E+02  0.00000000000E+00 0. -1.
         11    1    3    3    0    0  0.15176554261E+01 -0.10309331781E+01  0.75608959809E+00  0.19843822594E+01  0.51100000000E-03 0. -1.
        -11    1    3    3    0    0  0.86439224853E+01  0.17625473557E+01  0.92493068779E+01  0.12781770108E+02  0.51100000000E-03 0.  1.
        -12    1    3    3    0    0  0.25319202801E+02  0.10056517486E+02  0.15564971075E+02  0.31376167691E+02  0.00000000000E+00 0.  1.
</event>
<event>
 7    1  0.2312612E-008  0.4614232E+02  0.7816164E-02  0.1320468E+00
        -11   -1    0    0    0    0  0.00000000000E+00  0.00000000000E+00  0.45593999997E+02  0.45594000000E+02  0.51100000000E-03 0. -1.
         11   -1    0    0    0    0 -0.00000000000E+00 -0.00000000000E+00 -0.45593999997E+02  0.45594000000E+02  0.51100000000E-03 0.  1.
    9900012    2    1    2    0    0  0.32709842864E+02  0.77238268967E+01 -0.29992034060E+02  0.46142318418E+02  0.10000005991E+02 0.  0.
         12    1    1    2    0    0 -0.32709842864E+02 -0.77238268967E+01  0.29992034060E+02  0.45045681582E+02  0.00000000000E+00 0. -1.
         11    1    3    3    0    0  0.19910712342E+01  0.19010390673E+01 -0.99302858557E+00  0.29265030716E+01  0.51100000000E-03 0. -1.
        -11    1    3    3    0    0  0.12791113486E+02  0.33905164068E+01 -0.16842415084E+02  0.21419036669E+02  0.51100000000E-03 0.  1.
         12    1    3    3    0    0  0.17927658143E+02  0.24322714225E+01 -0.12156590391E+02  0.21796778677E+02  0.00000000000E+00 0. -1.
</event>
<event>
 7    1  0.2312612E-008  0.4614232E+02  0.7816164E-02  0.1320468E+00
        -11   -1    0    0    0    0  0.00000000000E+00  0.00000000000E+00  0.45593999997E+02  0.45594000000E+02  0.51100000000E-03 0.  1.
         11   -1    0    0    0    0 -0.00000000000E+00 -0.00000000000E+00 -0.45593999997E+02  0.45594000000E+02  0.51100000000E-03 0. -1.
    9900012    2    1    2    0    0  0.27557033403E+02 -0.25327403513E+02  0.25064836378E+02  0.46142317839E+02  0.10000000714E+02 0.  0.
         12    1    1    2    0    0 -0.27557033403E+02  0.25327403513E+02 -0.25064836378E+02  0.45045682161E+02  0.00000000000E+00 0. -1.
         11    1    3    3    0    0 -0.34288663458E+00 -0.14775356716E+01  0.10760983635E+01  0.18597502128E+01  0.51100000000E-03 0. -1.
        -11    1    3    3    0    0  0.92953395286E+01 -0.11115669160E+02  0.72488582269E+01  0.16202079610E+02  0.51100000000E-03 0.  1.
        -12    1    3    3    0    0  0.18604580509E+02 -0.12734198681E+02  0.16739879787E+02  0.28080488017E+02  0.00000000000E+00 0.  1.
</event>
<event>
 7    1  0.2312612E-008  0.4614231E+02  0.7816164E-02  0.1320468E+00
        -11   -1    0    0    0    0  0.00000000000E+00  0.00000000000E+00  0.45593999997E+02  0.45594000000E+02  0.51100000000E-03 0. -1.
         11   -1    0    0    0    0 -0.00000000000E+00 -0.00000000000E+00 -0.45593999997E+02  0.45594000000E+02  0.51100000000E-03 0.  1.
    9900012    2    1    2    0    0  0.33697765346E+02  0.23199116033E+02 -0.18851404213E+02  0.46142314138E+02  0.99999669580E+01 0.  0.
         12    1    1    2    0    0 -0.33697765346E+02 -0.23199116033E+02  0.18851404213E+02  0.45045685862E+02  0.00000000000E+00 0. -1.
         11    1    3    3    0    0  0.10602127123E+02  0.76059067495E+01 -0.14118761615E+01  0.13124340424E+02  0.51100000000E-03 0. -1.
        -11    1    3    3    0    0  0.15651508082E+02  0.10104565515E+02 -0.99721344400E+01  0.21130911363E+02  0.51100000000E-03 0.  1.
         12    1    3    3    0    0  0.74441301403E+01  0.54886437690E+01 -0.74673936111E+01  0.11887062350E+02  0.00000000000E+00 0. -1.
</event>
<event>
 7    1  0.2312612E-008  0.4614232E+02  0.7816164E-02  0.1320468E+00
        -11   -1    0    0    0    0  0.00000000000E+00  0.00000000000E+00  0.45593999997E+02  0.45594000000E+02  0.51100000000E-03 0. -1.
         11   -1    0    0    0    0 -0.00000000000E+00 -0.00000000000E+00 -0.45593999997E+02  0.45594000000E+02  0.51100000000E-03 0.  1.
    9900012    2    1    2    0    0 -0.24631004144E+02  0.88505053610E+01 -0.36661910220E+02  0.46142317950E+02  0.10000001727E+02 0.  0.
         12    1    1    2    0    0  0.24631004144E+02 -0.88505053610E+01  0.36661910220E+02  0.45045682050E+02  0.00000000000E+00 0. -1.
         11    1    3    3    0    0 -0.76076113514E+01  0.51234305618E+01 -0.10905277375E+02  0.14249574242E+02  0.51100000000E-03 0. -1.
        -11    1    3    3    0    0 -0.13176991921E+02  0.46733480010E+01 -0.23470754654E+02  0.27319400102E+02  0.51100000000E-03 0.  1.
         12    1    3    3    0    0 -0.38464008716E+01 -0.94627320182E+00 -0.22858781913E+01  0.45733436065E+01  0.00000000000E+00 0. -1.
</event>
<event>
 7    1  0.2312612E-008  0.4614232E+02  0.7816164E-02  0.1320468E+00
        -11   -1    0    0    0    0  0.00000000000E+00  0.00000000000E+00  0.45593999997E+02  0.45594000000E+02  0.51100000000E-03 0.  1.
         11   -1    0    0    0    0 -0.00000000000E+00 -0.00000000000E+00 -0.45593999997E+02  0.45594000000E+02  0.51100000000E-03 0. -1.
    9900012    2    1    2    0    0  0.13186416357E+02 -0.31168817557E+02  0.29727710140E+02  0.46142317472E+02  0.99999973622E+01 0.  0.
         12    1    1    2    0    0 -0.13186416357E+02  0.31168817557E+02 -0.29727710140E+02  0.45045682528E+02  0.00000000000E+00 0. -1.
         11    1    3    3    0    0  0.92070373192E+00 -0.10092544894E+02  0.98600768468E+01  0.14139599481E+02  0.51100000000E-03 0. -1.
        -11    1    3    3    0    0  0.42644500482E+01 -0.12962642231E+02  0.11804089771E+02  0.18043064136E+02  0.51100000000E-03 0.  1.
        -12    1    3    3    0    0  0.80012625769E+01 -0.81136304319E+01  0.80635435220E+01  0.13959653855E+02  0.00000000000E+00 0.  1.
</event>
<event>
 7    1  0.2312612E-008  0.4614232E+02  0.7816164E-02  0.1320468E+00
        -11   -1    0    0    0    0  0.00000000000E+00  0.00000000000E+00  0.45593999997E+02  0.45594000000E+02  0.51100000000E-03 0.  1.
         11   -1    0    0    0    0 -0.00000000000E+00 -0.00000000000E+00 -0.45593999997E+02  0.45594000000E+02  0.51100000000E-03 0. -1.
    9900012    2    1    2    0    0  0.89241010741E+01 -0.57948869028E+01  0.43770916440E+02  0.46142318518E+02  0.10000006898E+02 0.  0.
         12    1    1    2    0    0 -0.89241010741E+01  0.57948869028E+01 -0.43770916440E+02  0.45045681482E+02  0.00000000000E+00 0. -1.
         11    1    3    3    0    0 -0.29803839030E+00 -0.26200650398E+00  0.59036741857E+00  0.71134256181E+00  0.51100000000E-03 0.  1.
        -11    1    3    3    0    0 -0.95689241253E+00  0.12459701091E+01  0.25067640442E+01  0.29583696247E+01  0.51100000000E-03 0. -1.
        -12    1    3    3    0    0  0.10179031877E+02 -0.67788505080E+01  0.40673784977E+02  0.42472606331E+02  0.00000000000E+00 0.  1.
</event>
<event>
 7    1  0.2312612E-008  0.4614232E+02  0.7816164E-02  0.1320468E+00
        -11   -1    0    0    0    0  0.00000000000E+00  0.00000000000E+00  0.45593999997E+02  0.45594000000E+02  0.51100000000E-03 0. -1.
         11   -1    0    0    0    0 -0.00000000000E+00 -0.00000000000E+00 -0.45593999997E+02  0.45594000000E+02  0.51100000000E-03 0.  1.
    9900012    2    1    2    0    0  0.16039390716E+01 -0.10529228204E+02 -0.43768439292E+02  0.46142317131E+02  0.99999942523E+01 0.  0.
         12    1    1    2    0    0 -0.16039390716E+01  0.10529228204E+02  0.43768439292E+02  0.45045682869E+02  0.00000000000E+00 0. -1.
         11    1    3    3    0    0  0.82763294906E+00 -0.43671475172E-01 -0.20369075171E+01  0.21990625253E+01  0.51100000000E-03 0. -1.
        -11    1    3    3    0    0  0.41775467105E+01 -0.21379292318E+01 -0.12419007877E+02  0.13276083565E+02  0.51100000000E-03 0.  1.
        -12    1    3    3    0    0 -0.34012405879E+01 -0.83476274967E+01 -0.29312523898E+02  0.30667171040E+02  0.00000000000E+00 0.  1.
</event>
<event>
 7    1  0.2312612E-008  0.4614232E+02  0.7816164E-02  0.1320468E+00
        -11   -1    0    0    0    0  0.00000000000E+00  0.00000000000E+00  0.45593999997E+02  0.45594000000E+02  0.51100000000E-03 0.  1.
         11   -1    0    0    0    0 -0.00000000000E+00 -0.00000000000E+00 -0.45593999997E+02  0.45594000000E+02  0.51100000000E-03 0. -1.
    9900012    2    1    2    0    0  0.14167353039E+02 -0.33429241903E+02  0.26662433623E+02  0.46142317932E+02  0.10000001554E+02 0.  0.
         12    1    1    2    0    0 -0.14167353039E+02  0.33429241903E+02 -0.26662433623E+02  0.45045682068E+02  0.00000000000E+00 0. -1.
         11    1    3    3    0    0  0.54640255184E+01 -0.10563461066E+02  0.68059106060E+01  0.13702653174E+02  0.51100000000E-03 0. -1.
        -11    1    3    3    0    0  0.85913612525E+01 -0.20775732179E+02  0.20310629599E+02  0.30297924198E+02  0.51100000000E-03 0.  1.
        -12    1    3    3    0    0  0.11196626806E+00 -0.20900486576E+01 -0.45410658240E+00  0.21417405596E+01  0.00000000000E+00 0.  1.
</event>
<event>
 7    1  0.2312612E-008  0.4614232E+02  0.7816164E-02  0.1320468E+00
        -11   -1    0    0    0    0  0.00000000000E+00  0.00000000000E+00  0.45593999997E+02  0.45594000000E+02  0.51100000000E-03 0. -1.
         11   -1    0    0    0    0 -0.00000000000E+00 -0.00000000000E+00 -0.45593999997E+02  0.45594000000E+02  0.51100000000E-03 0.  1.
    9900012    2    1    2    0    0 -0.20329766611E+02 -0.40172102955E+02 -0.14198780127E+01  0.46142319631E+02  0.10000017054E+02 0.  0.
         12    1    1    2    0    0  0.20329766611E+02  0.40172102955E+02  0.14198780127E+01  0.45045680369E+02  0.00000000000E+00 0. -1.
         11    1    3    3    0    0 -0.84857594033E+01 -0.17351082238E+02  0.33014586554E+01  0.19595096249E+02  0.51100000000E-03 0.  1.
        -11    1    3    3    0    0 -0.72047981556E+01 -0.12939668293E+02 -0.42612714795E+00  0.14816400258E+02  0.51100000000E-03 0. -1.
         12    1    3    3    0    0 -0.46392090522E+01 -0.98813524241E+01 -0.42952095202E+01  0.11730823125E+02  0.00000000000E+00 0. -1.
</event>
<event>
 7    1  0.2312612E-008  0.4614232E+02  0.7816164E-02  0.1320468E+00
        -11   -1    0    0    0    0  0.00000000000E+00  0.00000000000E+00  0.45593999997E+02  0.45594000000E+02  0.51100000000E-03 0.  1.
         11   -1    0    0    0    0 -0.00000000000E+00 -0.00000000000E+00 -0.45593999997E+02  0.45594000000E+02  0.51100000000E-03 0. -1.
    9900012    2    1    2    0    0 -0.43306221001E+02  0.11034293110E+02  0.56505919281E+01  0.46142316622E+02  0.99999896163E+01 0.  0.
         12    1    1    2    0    0  0.43306221001E+02 -0.11034293110E+02 -0.56505919281E+01  0.45045683378E+02  0.00000000000E+00 0. -1.
         11    1    3    3    0    0 -0.23425898176E+02  0.19507748778E+01  0.31103174054E+01  0.23711859956E+02  0.51100000000E-03 0. -1.
        -11    1    3    3    0    0 -0.95266992513E+01  0.29046232714E+01 -0.57841340099E+00  0.99764421162E+01  0.51100000000E-03 0.  1.
         12    1    3    3    0    0 -0.10353623574E+02  0.61788949606E+01  0.31186879238E+01  0.12454014550E+02  0.00000000000E+00 0. -1.
</event>
<event>
 7    1  0.2312612E-008  0.4614232E+02  0.7816164E-02  0.1320468E+00
        -11   -1    0    0    0    0  0.00000000000E+00  0.00000000000E+00  0.45593999997E+02  0.45594000000E+02  0.51100000000E-03 0.  1.
         11   -1    0    0    0    0 -0.00000000000E+00 -0.00000000000E+00 -0.45593999997E+02  0.45594000000E+02  0.51100000000E-03 0. -1.
    9900012    2    1    2    0    0  0.56663659835E+01  0.31289413188E+02  0.31905775870E+02  0.46142316356E+02  0.99999871859E+01 0.  0.
         12    1    1    2    0    0 -0.56663659835E+01 -0.31289413188E+02 -0.31905775870E+02  0.45045683644E+02  0.00000000000E+00 0. -1.
         11    1    3    3    0    0  0.19997601055E+01  0.19095926219E+01  0.13309504576E+01  0.30687153408E+01  0.51100000000E-03 0. -1.
        -11    1    3    3    0    0  0.25601090736E+01  0.17037690169E+02  0.13064510043E+02  0.21622175369E+02  0.51100000000E-03 0.  1.
         12    1    3    3    0    0  0.11064968043E+01  0.12342130397E+02  0.17510315369E+02  0.21451425646E+02  0.00000000000E+00 0. -1.
</event>
<event>
 7    1  0.2312612E-008  0.4614232E+02  0.7816164E-02  0.1320468E+00
        -11   -1    0    0    0    0  0.00000000000E+00  0.00000000000E+00  0.45593999997E+02  0.45594000000E+02  0.51100000000E-03 0. -1.
         11   -1    0    0    0    0 -0.00000000000E+00 -0.00000000000E+00 -0.45593999997E+02  0.45594000000E+02  0.51100000000E-03 0.  1.
    9900012    2    1    2    0    0 -0.24850790354E+02 -0.27624962665E+02 -0.25463956880E+02  0.46142318259E+02  0.10000004544E+02 0.  0.
         12    1    1    2    0    0  0.24850790354E+02  0.27624962665E+02  0.25463956880E+02  0.45045681741E+02  0.00000000000E+00 0. -1.
         11    1    3    3    0    0 -0.69853587627E+01 -0.82856215362E+01 -0.12948034154E+02  0.16884855640E+02  0.51100000000E-03 0. -1.
        -11    1    3    3    0    0 -0.85930602414E+01 -0.10023229635E+02 -0.75342401666E+01  0.15201006275E+02  0.51100000000E-03 0.  1.
         12    1    3    3    0    0 -0.92723713503E+01 -0.93161114940E+01 -0.49816825594E+01  0.14056456344E+02  0.00000000000E+00 0. -1.
</event>
<event>
 7    1  0.2312612E-008  0.4614232E+02  0.7816164E-02  0.1320468E+00
        -11   -1    0    0    0    0  0.00000000000E+00  0.00000000000E+00  0.45593999997E+02  0.45594000000E+02  0.51100000000E-03 0.  1.
         11   -1    0    0    0    0 -0.00000000000E+00 -0.00000000000E+00 -0.45593999997E+02  0.45594000000E+02  0.51100000000E-03 0. -1.
    9900012    2    1    2    0    0  0.98391060295E+01 -0.40843614312E+02  0.16251297777E+02  0.46142317444E+02  0.99999971048E+01 0.  0.
         12    1    1    2    0    0 -0.98391060295E+01  0.40843614312E+02 -0.16251297777E+02  0.45045682556E+02  0.00000000000E+00 0. -1.
         11    1    3    3    0    0  0.71451056461E+01 -0.22367711945E+02  0.85113948034E+01  0.24976206960E+02  0.51100000000E-03 0. -1.
        -11    1    3    3    0    0  0.34106024529E+01 -0.10354137603E+02  0.17314778829E+01  0.11038042875E+02  0.51100000000E-03 0.  1.
        -12    1    3    3    0    0 -0.71660206942E+00 -0.81217647638E+01  0.60084250911E+01  0.10128067608E+02  0.00000000000E+00 0.  1.
</event>
<event>
 7    1  0.2312612E-008  0.4614232E+02  0.7816164E-02  0.1320468E+00
        -11   -1    0    0    0    0  0.00000000000E+00  0.00000000000E+00  0.45593999997E+02  0.45594000000E+02  0.51100000000E-03 0.  1.
         11   -1    0    0    0    0 -0.00000000000E+00 -0.00000000000E+00 -0.45593999997E+02  0.45594000000E+02  0.51100000000E-03 0. -1.
    9900012    2    1    2    0    0 -0.17569429967E+02  0.44767938835E+01  0.41235749619E+02  0.46142316528E+02  0.99999887549E+01 0.  0.
         12    1    1    2    0    0  0.17569429967E+02 -0.44767938835E+01 -0.41235749619E+02  0.45045683472E+02  0.00000000000E+00 0. -1.
         11    1    3    3    0    0 -0.36637935088E+00 -0.92088226021E+00  0.19975764209E+01  0.22299259594E+01  0.51100000000E-03 0. -1.
        -11    1    3    3    0    0 -0.89282677759E+01  0.53243336801E+01  0.28627043747E+02  0.30456035996E+02  0.51100000000E-03 0.  1.
        -12    1    3    3    0    0 -0.82747828398E+01  0.73342463602E-01  0.10611129451E+02  0.13456354573E+02  0.00000000000E+00 0.  1.
</event>
<event>
 7    1  0.2312612E-008  0.4614232E+02  0.7816164E-02  0.1320468E+00
        -11   -1    0    0    0    0  0.00000000000E+00  0.00000000000E+00  0.45593999997E+02  0.45594000000E+02  0.51100000000E-03 0.  1.
         11   -1    0    0    0    0 -0.00000000000E+00 -0.00000000000E+00 -0.45593999997E+02  0.45594000000E+02  0.51100000000E-03 0. -1.
    9900012    2    1    2    0    0 -0.18701810423E+02  0.35824565600E+02 -0.19898645422E+02  0.46142319817E+02  0.10000018744E+02 0.  0.
         12    1    1    2    0    0  0.18701810423E+02 -0.35824565600E+02  0.19898645422E+02  0.45045680183E+02  0.00000000000E+00 0. -1.
         11    1    3    3    0    0 -0.18136057749E+01  0.38870323165E+01 -0.39360488658E+01  0.58215691245E+01  0.51100000000E-03 0. -1.
        -11    1    3    3    0    0 -0.14417992084E+02  0.19212011275E+02 -0.11288945395E+02  0.26540914855E+02  0.51100000000E-03 0.  1.
        -12    1    3    3    0    0 -0.24702125639E+01  0.12725522009E+02 -0.46736511611E+01  0.13779835837E+02  0.00000000000E+00 0.  1.
</event>
<event>
 7    1  0.2312612E-008  0.4614232E+02  0.7816164E-02  0.1320468E+00
        -11   -1    0    0    0    0  0.00000000000E+00  0.00000000000E+00  0.45593999997E+02  0.45594000000E+02  0.51100000000E-03 0.  1.
         11   -1    0    0    0    0 -0.00000000000E+00 -0.00000000000E+00 -0.45593999997E+02  0.45594000000E+02  0.51100000000E-03 0. -1.
    9900012    2    1    2    0    0 -0.33029867387E+02 -0.34094812930E+01  0.30438733205E+02  0.46142321168E+02  0.10000031067E+02 0.  0.
         12    1    1    2    0    0  0.33029867387E+02  0.34094812930E+01 -0.30438733205E+02  0.45045678832E+02  0.00000000000E+00 0. -1.
         11    1    3    3    0    0 -0.17277734763E+02 -0.13603663768E+01  0.16652955208E+02  0.24035216509E+02  0.51100000000E-03 0. -1.
        -11    1    3    3    0    0 -0.11662500579E+02  0.98016217406E+00  0.70435247636E+01  0.13659644175E+02  0.51100000000E-03 0.  1.
         12    1    3    3    0    0 -0.40896320452E+01 -0.30292770902E+01  0.67422532338E+01  0.84474604837E+01  0.00000000000E+00 0. -1.
</event>
<event>
 7    1  0.2312612E-008  0.4614232E+02  0.7816164E-02  0.1320468E+00
        -11   -1    0    0    0    0  0.00000000000E+00  0.00000000000E+00  0.45593999997E+02  0.45594000000E+02  0.51100000000E-03 0.  1.
         11   -1    0    0    0    0 -0.00000000000E+00 -0.00000000000E+00 -0.45593999997E+02  0.45594000000E+02  0.51100000000E-03 0. -1.
    9900012    2    1    2    0    0  0.29564951018E+02  0.26342811885E+02  0.21472856316E+02  0.46142316244E+02  0.99999861675E+01 0.  0.
         12    1    1    2    0    0 -0.29564951018E+02 -0.26342811885E+02 -0.21472856316E+02  0.45045683756E+02  0.00000000000E+00 0. -1.
         11    1    3    3    0    0  0.98169514234E+01  0.50399933442E+01  0.53711180279E+01  0.12272855303E+02  0.51100000000E-03 0. -1.
        -11    1    3    3    0    0  0.57259840667E+01  0.10061016903E+02  0.84703982160E+01  0.14344288092E+02  0.51100000000E-03 0.  1.
        -12    1    3    3    0    0  0.14022015527E+02  0.11241801637E+02  0.76313400720E+01  0.19525172849E+02  0.00000000000E+00 0.  1.
</event>
<event>
 7    1  0.2312612E-008  0.4614232E+02  0.7816164E-02  0.1320468E+00
        -11   -1    0    0    0    0  0.00000000000E+00  0.00000000000E+00  0.45593999997E+02  0.45594000000E+02  0.51100000000E-03 0.  1.
         11   -1    0    0    0    0 -0.00000000000E+00 -0.00000000000E+00 -0.45593999997E+02  0.45594000000E+02  0.51100000000E-03 0. -1.
    9900012    2    1    2    0    0  0.13199121756E+02 -0.33841708772E+02  0.26638983301E+02  0.46142317643E+02  0.99999989193E+01 0.  0.
         12    1    1    2    0    0 -0.13199121756E+02  0.33841708772E+02 -0.26638983301E+02  0.45045682357E+02  0.00000000000E+00 0. -1.
         11    1    3    3    0    0  0.57104594753E+01 -0.53017896802E+01  0.51915140938E+01  0.93632334201E+01  0.51100000000E-03 0.  1.
        -11    1    3    3    0    0 -0.42495936157E+00 -0.32822378031E+01  0.14889085898E+01  0.36291217264E+01  0.51100000000E-03 0. -1.
        -12    1    3    3    0    0  0.79136216425E+01 -0.25257681289E+02  0.19958560617E+02  0.33149962496E+02  0.00000000000E+00 0.  1.
</event>
<event>
 7    1  0.2312612E-008  0.4614232E+02  0.7816164E-02  0.1320468E+00
        -11   -1    0    0    0    0  0.00000000000E+00  0.00000000000E+00  0.45593999997E+02  0.45594000000E+02  0.51100000000E-03 0.  1.
         11   -1    0    0    0    0 -0.00000000000E+00 -0.00000000000E+00 -0.45593999997E+02  0.45594000000E+02  0.51100000000E-03 0. -1.
    9900012    2    1    2    0    0 -0.69155617717E+01  0.89214791543E+00  0.44502725515E+02  0.46142317623E+02  0.99999987447E+01 0.  0.
         12    1    1    2    0    0  0.69155617717E+01 -0.89214791543E+00 -0.44502725515E+02  0.45045682377E+02  0.00000000000E+00 0. -1.
         11    1    3    3    0    0 -0.60484112553E+01  0.31331012216E+01  0.22408831343E+02  0.23421257960E+02  0.51100000000E-03 0. -1.
        -11    1    3    3    0    0  0.45713766210E-01 -0.28956265995E+01  0.20828965880E+02  0.21029326262E+02  0.51100000000E-03 0.  1.
         12    1    3    3    0    0 -0.91286428263E+00  0.65467329337E+00  0.12649282918E+01  0.16917334019E+01  0.00000000000E+00 0. -1.
</event>
<event>
 7    1  0.2312612E-008  0.4614232E+02  0.7816164E-02  0.1320468E+00
        -11   -1    0    0    0    0  0.00000000000E+00  0.00000000000E+00  0.45593999997E+02  0.45594000000E+02  0.51100000000E-03 0.  1.
         11   -1    0    0    0    0 -0.00000000000E+00 -0.00000000000E+00 -0.45593999997E+02  0.45594000000E+02  0.51100000000E-03 0. -1.
    9900012    2    1    2    0    0 -0.28578739450E+02 -0.13341739098E+02  0.32161579641E+02  0.46142317014E+02  0.99999931851E+01 0.  0.
         12    1    1    2    0    0  0.28578739450E+02  0.13341739098E+02 -0.32161579641E+02  0.45045682986E+02  0.00000000000E+00 0. -1.
         11    1    3    3    0    0 -0.87294812881E+01 -0.13304170506E+01  0.13643745104E+02  0.16251942463E+02  0.51100000000E-03 0.  1.
        -11    1    3    3    0    0 -0.26980656654E+01 -0.36490973132E+00  0.18904542398E+01  0.33145942347E+01  0.51100000000E-03 0. -1.
         12    1    3    3    0    0 -0.17151192496E+02 -0.11646412316E+02  0.16627380298E+02  0.26575780316E+02  0.00000000000E+00 0. -1.
</event>
<event>
 7    1  0.2312612E-008  0.4614232E+02  0.7816164E-02  0.1320468E+00
        -11   -1    0    0    0    0  0.00000000000E+00  0.00000000000E+00  0.45593999997E+02  0.45594000000E+02  0.51100000000E-03 0.  1.
         11   -1    0    0    0    0 -0.00000000000E+00 -0.00000000000E+00 -0.45593999997E+02  0.45594000000E+02  0.51100000000E-03 0. -1.
    9900012    2    1    2    0    0 -0.88603097959E+01 -0.19582418566E+02  0.39587084590E+02  0.46142317932E+02  0.10000001561E+02 0.  0.
         12    1    1    2    0    0  0.88603097959E+01  0.19582418566E+02 -0.39587084590E+02  0.45045682068E+02  0.00000000000E+00 0. -1.
         11    1    3    3    0    0 -0.64871904075E+01 -0.37952584516E+01  0.14253412047E+02  0.16113577547E+02  0.51100000000E-03 0. -1.
        -11    1    3    3    0    0 -0.23015850213E+01 -0.12103002718E+02  0.20930284191E+02  0.24286966978E+02  0.51100000000E-03 0.  1.
        -12    1    3    3    0    0 -0.71534367189E-01 -0.36841573964E+01  0.44033883518E+01  0.57417734076E+01  0.00000000000E+00 0.  1.
</event>
<event>
 7    1  0.2312612E-008  0.4614232E+02  0.7816164E-02  0.1320468E+00
        -11   -1    0    0    0    0  0.00000000000E+00  0.00000000000E+00  0.45593999997E+02  0.45594000000E+02  0.51100000000E-03 0. -1.
         11   -1    0    0    0    0 -0.00000000000E+00 -0.00000000000E+00 -0.45593999997E+02  0.45594000000E+02  0.51100000000E-03 0.  1.
    9900012    2    1    2    0    0  0.16634647308E+02 -0.54919118135E+01 -0.41499890269E+02  0.46142317867E+02  0.10000000968E+02 0.  0.
         12    1    1    2    0    0 -0.16634647308E+02  0.54919118135E+01  0.41499890269E+02  0.45045682133E+02  0.00000000000E+00 0. -1.
         11    1    3    3    0    0  0.42835703066E+00 -0.28453188480E+01 -0.45562529997E+01  0.53887633786E+01  0.51100000000E-03 0. -1.
        -11    1    3    3    0    0  0.14764215723E+02 -0.15980076840E+01 -0.28646212031E+02  0.32266719054E+02  0.51100000000E-03 0.  1.
        -12    1    3    3    0    0  0.14420745541E+01 -0.10485852815E+01 -0.82974252383E+01  0.84868354348E+01  0.00000000000E+00 0.  1.
</event>
<event>
 7    1  0.2312612E-008  0.4614232E+02  0.7816164E-02  0.1320468E+00
        -11   -1    0    0    0    0  0.00000000000E+00  0.00000000000E+00  0.45593999997E+02  0.45594000000E+02  0.51100000000E-03 0.  1.
         11   -1    0    0    0    0 -0.00000000000E+00 -0.00000000000E+00 -0.45593999997E+02  0.45594000000E+02  0.51100000000E-03 0. -1.
    9900012    2    1    2    0    0  0.21654178273E+02  0.49006807810E+01  0.39194303754E+02  0.46142317016E+02  0.99999932024E+01 0.  0.
         12    1    1    2    0    0 -0.21654178273E+02 -0.49006807810E+01 -0.39194303754E+02  0.45045682984E+02  0.00000000000E+00 0. -1.
         11    1    3    3    0    0  0.30624162272E+01 -0.50837975514E+00  0.20951369448E+01  0.37451892079E+01  0.51100000000E-03 0. -1.
        -11    1    3    3    0    0  0.21933330201E+00  0.13482831837E+01  0.10147999360E+01  0.17017032092E+01  0.51100000000E-03 0.  1.
        -12    1    3    3    0    0  0.18372428743E+02  0.40607773524E+01  0.36084366873E+02  0.40695424599E+02  0.00000000000E+00 0.  1.
</event>
<event>
 7    1  0.2312612E-008  0.4614232E+02  0.7816164E-02  0.1320468E+00
        -11   -1    0    0    0    0  0.00000000000E+00  0.00000000000E+00  0.45593999997E+02  0.45594000000E+02  0.51100000000E-03 0.  1.
         11   -1    0    0    0    0 -0.00000000000E+00 -0.00000000000E+00 -0.45593999997E+02  0.45594000000E+02  0.51100000000E-03 0. -1.
    9900012    2    1    2    0    0  0.33526144705E+02 -0.11677133671E+02  0.27726440645E+02  0.46142319403E+02  0.10000014977E+02 0.  0.
         12    1    1    2    0    0 -0.33526144705E+02  0.11677133671E+02 -0.27726440645E+02  0.45045680597E+02  0.00000000000E+00 0. -1.
         11    1    3    3    0    0  0.96749015376E+01  0.63676819683E+00  0.75407604802E+01  0.12283007058E+02  0.51100000000E-03 0. -1.
        -11    1    3    3    0    0  0.95471025720E+01 -0.28434084905E+01  0.85804236829E+01  0.13147464022E+02  0.51100000000E-03 0.  1.
        -12    1    3    3    0    0  0.14304140596E+02 -0.94704933773E+01  0.11605256482E+02  0.20711848324E+02  0.00000000000E+00 0.  1.
</event>
<event>
 7    1  0.2312612E-008  0.4614232E+02  0.7816164E-02  0.1320468E+00
        -11   -1    0    0    0    0  0.00000000000E+00  0.00000000000E+00  0.45593999997E+02  0.45594000000E+02  0.51100000000E-03 0.  1.
         11   -1    0    0    0    0 -0.00000000000E+00 -0.00000000000E+00 -0.45593999997E+02  0.45594000000E+02  0.51100000000E-03 0. -1.
    9900012    2    1    2    0    0  0.98406261442E+01 -0.34975171918E+02  0.26627296307E+02  0.46142317829E+02  0.10000000621E+02 0.  0.
         12    1    1    2    0    0 -0.98406261442E+01  0.34975171918E+02 -0.26627296307E+02  0.45045682171E+02  0.00000000000E+00 0. -1.
         11    1    3    3    0    0  0.49419055984E+00 -0.99216233690E-02  0.42945310917E+00  0.65479231985E+00  0.51100000000E-03 0. -1.
        -11    1    3    3    0    0  0.10413397593E+02 -0.33969031716E+02  0.25972976456E+02  0.44010560907E+02  0.51100000000E-03 0.  1.
         12    1    3    3    0    0 -0.10669620083E+01 -0.99621857893E+00  0.22486674176E+00  0.14769646021E+01  0.00000000000E+00 0. -1.
</event>
<event>
 7    1  0.2312612E-008  0.4614232E+02  0.7816164E-02  0.1320468E+00
        -11   -1    0    0    0    0  0.00000000000E+00  0.00000000000E+00  0.45593999997E+02  0.45594000000E+02  0.51100000000E-03 0.  1.
         11   -1    0    0    0    0 -0.00000000000E+00 -0.00000000000E+00 -0.45593999997E+02  0.45594000000E+02  0.51100000000E-03 0. -1.
    9900012    2    1    2    0    0  0.32439261539E+02  0.12814628236E+02  0.28506019326E+02  0.46142317367E+02  0.99999964073E+01 0.  0.
         12    1    1    2    0    0 -0.32439261539E+02 -0.12814628236E+02 -0.28506019326E+02  0.45045682633E+02  0.00000000000E+00 0. -1.
         11    1    3    3    0    0  0.30467235554E+01  0.41624083124E+01  0.32031527863E+01  0.60719317697E+01  0.51100000000E-03 0. -1.
        -11    1    3    3    0    0  0.27740954963E+02  0.92419094264E+01  0.24473888379E+02  0.38130626598E+02  0.51100000000E-03 0.  1.
        -12    1    3    3    0    0  0.16515830208E+01 -0.58968950285E+00  0.82897816048E+00  0.19397589992E+01  0.00000000000E+00 0.  1.
</event>
<event>
 7    1  0.2312612E-008  0.4614231E+02  0.7816164E-02  0.1320468E+00
        -11   -1    0    0    0    0  0.00000000000E+00  0.00000000000E+00  0.45593999997E+02  0.45594000000E+02  0.51100000000E-03 0.  1.
         11   -1    0    0    0    0 -0.00000000000E+00 -0.00000000000E+00 -0.45593999997E+02  0.45594000000E+02  0.51100000000E-03 0. -1.
    9900012    2    1    2    0    0  0.30566687002E+02 -0.43292574332E+01  0.32803188814E+02  0.46142311854E+02  0.99999461346E+01 0.  0.
         12    1    1    2    0    0 -0.30566687002E+02  0.43292574332E+01 -0.32803188814E+02  0.45045688146E+02  0.00000000000E+00 0. -1.
         11    1    3    3    0    0  0.13679422815E+02 -0.27747753825E+00  0.10272358629E+02  0.17109206714E+02  0.51100000000E-03 0. -1.
        -11    1    3    3    0    0  0.38498751960E+01 -0.32033448190E+01  0.42802854052E+01  0.65881560748E+01  0.51100000000E-03 0.  1.
        -12    1    3    3    0    0  0.13037388991E+02 -0.84843507592E+00  0.18250544779E+02  0.22444949065E+02  0.00000000000E+00 0.  1.
</event>
<event>
 7    1  0.2312612E-008  0.4614232E+02  0.7816164E-02  0.1320468E+00
        -11   -1    0    0    0    0  0.00000000000E+00  0.00000000000E+00  0.45593999997E+02  0.45594000000E+02  0.51100000000E-03 0.  1.
         11   -1    0    0    0    0 -0.00000000000E+00 -0.00000000000E+00 -0.45593999997E+02  0.45594000000E+02  0.51100000000E-03 0. -1.
    9900012    2    1    2    0    0 -0.25441753634E+02  0.49895190604E+01  0.36836604263E+02  0.46142317165E+02  0.99999945656E+01 0.  0.
         12    1    1    2    0    0  0.25441753634E+02 -0.49895190604E+01 -0.36836604263E+02  0.45045682835E+02  0.00000000000E+00 0. -1.
         11    1    3    3    0    0 -0.79904878476E+01  0.30723536674E+01  0.18889302043E+02  0.20738683300E+02  0.51100000000E-03 0. -1.
        -11    1    3    3    0    0 -0.75938285352E+00  0.16391768994E+00  0.24104456320E+01  0.25325441227E+01  0.51100000000E-03 0.  1.
        -12    1    3    3    0    0 -0.16691882933E+02  0.17532477030E+01  0.15536856588E+02  0.22871089742E+02  0.00000000000E+00 0.  1.
</event>
<event>
 7    1  0.2312612E-008  0.4614232E+02  0.7816164E-02  0.1320468E+00
        -11   -1    0    0    0    0  0.00000000000E+00  0.00000000000E+00  0.45593999997E+02  0.45594000000E+02  0.51100000000E-03 0.  1.
         11   -1    0    0    0    0 -0.00000000000E+00 -0.00000000000E+00 -0.45593999997E+02  0.45594000000E+02  0.51100000000E-03 0. -1.
    9900012    2    1    2    0    0  0.25918762492E+02  0.11912292937E+02  0.34862997010E+02  0.46142317270E+02  0.99999955182E+01 0.  0.
         12    1    1    2    0    0 -0.25918762492E+02 -0.11912292937E+02 -0.34862997010E+02  0.45045682730E+02  0.00000000000E+00 0. -1.
         11    1    3    3    0    0  0.10145403399E+02  0.75279984774E+01  0.10843343149E+02  0.16648665476E+02  0.51100000000E-03 0. -1.
        -11    1    3    3    0    0  0.12536030619E+02  0.38484771370E+01  0.15153423493E+02  0.20039687717E+02  0.51100000000E-03 0.  1.
         12    1    3    3    0    0  0.32373284743E+01  0.53581732269E+00  0.88662303668E+01  0.94539640771E+01  0.00000000000E+00 0. -1.
</event>
<event>
 7    1  0.2312612E-008  0.4614232E+02  0.7816164E-02  0.1320468E+00
        -11   -1    0    0    0    0  0.00000000000E+00  0.00000000000E+00  0.45593999997E+02  0.45594000000E+02  0.51100000000E-03 0.  1.
         11   -1    0    0    0    0 -0.00000000000E+00 -0.00000000000E+00 -0.45593999997E+02  0.45594000000E+02  0.51100000000E-03 0. -1.
    9900012    2    1    2    0    0  0.26119561476E+02 -0.15119263253E+02  0.33440839271E+02  0.46142319362E+02  0.10000014598E+02 0.  0.
         12    1    1    2    0    0 -0.26119561476E+02  0.15119263253E+02 -0.33440839271E+02  0.45045680638E+02  0.00000000000E+00 0. -1.
         11    1    3    3    0    0  0.71188652110E+01 -0.77201973911E+01  0.11261397865E+02  0.15398011943E+02  0.51100000000E-03 0.  1.
        -11    1    3    3    0    0  0.71390231501E+01 -0.39738740787E+01  0.49671308911E+01  0.95618887403E+01  0.51100000000E-03 0. -1.
        -12    1    3    3    0    0  0.11861673115E+02 -0.34251917829E+01  0.17212310515E+02  0.21182418679E+02  0.00000000000E+00 0.  1.
</event>
<event>
 7    1  0.2312612E-008  0.4614232E+02  0.7816164E-02  0.1320468E+00
        -11   -1    0    0    0    0  0.00000000000E+00  0.00000000000E+00  0.45593999997E+02  0.45594000000E+02  0.51100000000E-03 0.  1.
         11   -1    0    0    0    0 -0.00000000000E+00 -0.00000000000E+00 -0.45593999997E+02  0.45594000000E+02  0.51100000000E-03 0. -1.
    9900012    2    1    2    0    0  0.33010981823E+02 -0.18359194532E+02  0.24542382620E+02  0.46142317749E+02  0.99999998867E+01 0.  0.
         12    1    1    2    0    0 -0.33010981823E+02  0.18359194532E+02 -0.24542382620E+02  0.45045682251E+02  0.00000000000E+00 0. -1.
         11    1    3    3    0    0  0.53710535591E+01 -0.46636058454E+01  0.41140312951E+01  0.82172190900E+01  0.51100000000E-03 0.  1.
        -11    1    3    3    0    0  0.72422151973E+00 -0.25038286699E+01  0.29512664782E+01  0.39374647813E+01  0.51100000000E-03 0. -1.
        -12    1    3    3    0    0  0.26915706744E+02 -0.11191760017E+02  0.17477084847E+02  0.33987633877E+02  0.00000000000E+00 0.  1.
</event>
<event>
 7    1  0.2312612E-008  0.4614231E+02  0.7816164E-02  0.1320468E+00
        -11   -1    0    0    0    0  0.00000000000E+00  0.00000000000E+00  0.45593999997E+02  0.45594000000E+02  0.51100000000E-03 0.  1.
         11   -1    0    0    0    0 -0.00000000000E+00 -0.00000000000E+00 -0.45593999997E+02  0.45594000000E+02  0.51100000000E-03 0. -1.
    9900012    2    1    2    0    0 -0.43559927132E+02 -0.11076628618E+02 -0.29925114274E+01  0.46142311217E+02  0.99999403286E+01 0.  0.
         12    1    1    2    0    0  0.43559927132E+02  0.11076628618E+02  0.29925114274E+01  0.45045688783E+02  0.00000000000E+00 0. -1.
         11    1    3    3    0    0 -0.65128704036E+01 -0.10109166162E+01 -0.82754733441E-02  0.65908650452E+01  0.51100000000E-03 0. -1.
        -11    1    3    3    0    0 -0.19093574534E+02 -0.53876670637E+01 -0.60627192442E+01  0.20744833327E+02  0.51100000000E-03 0.  1.
         12    1    3    3    0    0 -0.17953482194E+02 -0.46780449379E+01  0.30784832901E+01  0.18806612845E+02  0.00000000000E+00 0. -1.
</event>
<event>
 7    1  0.2312612E-008  0.4614232E+02  0.7816164E-02  0.1320468E+00
        -11   -1    0    0    0    0  0.00000000000E+00  0.00000000000E+00  0.45593999997E+02  0.45594000000E+02  0.51100000000E-03 0.  1.
         11   -1    0    0    0    0 -0.00000000000E+00 -0.00000000000E+00 -0.45593999997E+02  0.45594000000E+02  0.51100000000E-03 0. -1.
    9900012    2    1    2    0    0 -0.22489479903E+02 -0.17817879100E+02  0.34725493851E+02  0.46142318241E+02  0.10000004380E+02 0.  0.
         12    1    1    2    0    0  0.22489479903E+02  0.17817879100E+02 -0.34725493851E+02  0.45045681759E+02  0.00000000000E+00 0. -1.
         11    1    3    3    0    0 -0.59278357120E+01 -0.26721038935E+01  0.63591143258E+01  0.90949277466E+01  0.51100000000E-03 0. -1.
        -11    1    3    3    0    0 -0.88270254955E+01 -0.87467042421E+01  0.93758789307E+01  0.15566898220E+02  0.51100000000E-03 0.  1.
         12    1    3    3    0    0 -0.77346186955E+01 -0.63990709641E+01  0.18990500594E+02  0.21480492275E+02  0.00000000000E+00 0. -1.
</event>
<event>
 7    1  0.2312612E-008  0.4614231E+02  0.7816164E-02  0.1320468E+00
        -11   -1    0    0    0    0  0.00000000000E+00  0.00000000000E+00  0.45593999997E+02  0.45594000000E+02  0.51100000000E-03 0. -1.
         11   -1    0    0    0    0 -0.00000000000E+00 -0.00000000000E+00 -0.45593999997E+02  0.45594000000E+02  0.51100000000E-03 0.  1.
    9900012    2    1    2    0    0  0.26292288296E+02  0.33784957673E+02 -0.14014519346E+02  0.46142306073E+02  0.99998934188E+01 0.  0.
         12    1    1    2    0    0 -0.26292288296E+02 -0.33784957673E+02  0.14014519346E+02  0.45045693927E+02  0.00000000000E+00 0. -1.
         11    1    3    3    0    0  0.27063846416E+01  0.29277844944E+01 -0.39567078877E+01  0.56171146903E+01  0.51100000000E-03 0.  1.
        -11    1    3    3    0    0  0.25882930781E+01  0.15406664310E+01  0.24419668469E+00  0.30220103229E+01  0.51100000000E-03 0. -1.
        -12    1    3    3    0    0  0.20997610577E+02  0.29316506748E+02 -0.10302008143E+02  0.37503181060E+02  0.00000000000E+00 0.  1.
</event>
<event>
 7    1  0.2312612E-008  0.4614232E+02  0.7816164E-02  0.1320468E+00
        -11   -1    0    0    0    0  0.00000000000E+00  0.00000000000E+00  0.45593999997E+02  0.45594000000E+02  0.51100000000E-03 0.  1.
         11   -1    0    0    0    0 -0.00000000000E+00 -0.00000000000E+00 -0.45593999997E+02  0.45594000000E+02  0.51100000000E-03 0. -1.
    9900012    2    1    2    0    0  0.15127701134E+02 -0.13687562625E+02  0.40161135364E+02  0.46142317566E+02  0.99999982192E+01 0.  0.
         12    1    1    2    0    0 -0.15127701134E+02  0.13687562625E+02 -0.40161135364E+02  0.45045682434E+02  0.00000000000E+00 0. -1.
         11    1    3    3    0    0 -0.86150150127E+00 -0.10653193167E+01  0.23372131137E+01  0.27091798543E+01  0.51100000000E-03 0. -1.
        -11    1    3    3    0    0  0.38223043883E+01 -0.47228343505E+00  0.44128977398E+01  0.58571946530E+01  0.51100000000E-03 0.  1.
        -12    1    3    3    0    0  0.12166898247E+02 -0.12149959873E+02  0.33411024511E+02  0.37575943058E+02  0.00000000000E+00 0.  1.
</event>
<event>
 7    1  0.2312612E-008  0.4614232E+02  0.7816164E-02  0.1320468E+00
        -11   -1    0    0    0    0  0.00000000000E+00  0.00000000000E+00  0.45593999997E+02  0.45594000000E+02  0.51100000000E-03 0.  1.
         11   -1    0    0    0    0 -0.00000000000E+00 -0.00000000000E+00 -0.45593999997E+02  0.45594000000E+02  0.51100000000E-03 0. -1.
    9900012    2    1    2    0    0  0.17855131625E+02 -0.18847184026E+02  0.36811566887E+02  0.46142317324E+02  0.99999960129E+01 0.  0.
         12    1    1    2    0    0 -0.17855131625E+02  0.18847184026E+02 -0.36811566887E+02  0.45045682676E+02  0.00000000000E+00 0. -1.
         11    1    3    3    0    0  0.64439063962E+01 -0.57040165603E+01  0.71550113041E+01  0.11191689845E+02  0.51100000000E-03 0. -1.
        -11    1    3    3    0    0  0.11371785309E+02 -0.11392514866E+02  0.23038275096E+02  0.28104608443E+02  0.51100000000E-03 0.  1.
        -12    1    3    3    0    0  0.39439920223E-01 -0.17506525997E+01  0.66182804868E+01  0.68460190355E+01  0.00000000000E+00 0.  1.
</event>
<event>
 7    1  0.2312612E-008  0.4614232E+02  0.7816164E-02  0.1320468E+00
        -11   -1    0    0    0    0  0.00000000000E+00  0.00000000000E+00  0.45593999997E+02  0.45594000000E+02  0.51100000000E-03 0.  1.
         11   -1    0    0    0    0 -0.00000000000E+00 -0.00000000000E+00 -0.45593999997E+02  0.45594000000E+02  0.51100000000E-03 0. -1.
    9900012    2    1    2    0    0  0.13653336288E+02  0.34121827342E+02  0.26046129082E+02  0.46142317265E+02  0.99999954760E+01 0.  0.
         12    1    1    2    0    0 -0.13653336288E+02 -0.34121827342E+02 -0.26046129082E+02  0.45045682735E+02  0.00000000000E+00 0. -1.
         11    1    3    3    0    0  0.46345772530E+01  0.20181810168E+02  0.12561014469E+02  0.24219080344E+02  0.51100000000E-03 0. -1.
        -11    1    3    3    0    0  0.38911539098E+01  0.38512120652E+01  0.69760143230E+01  0.88677894211E+01  0.51100000000E-03 0.  1.
         12    1    3    3    0    0  0.51276051250E+01  0.10088805108E+02  0.65091002902E+01  0.13055447500E+02  0.00000000000E+00 0. -1.
</event>
<event>
 7    1  0.2312612E-008  0.4614232E+02  0.7816164E-02  0.1320468E+00
        -11   -1    0    0    0    0  0.00000000000E+00  0.00000000000E+00  0.45593999997E+02  0.45594000000E+02  0.51100000000E-03 0.  1.
         11   -1    0    0    0    0 -0.00000000000E+00 -0.00000000000E+00 -0.45593999997E+02  0.45594000000E+02  0.51100000000E-03 0. -1.
    9900012    2    1    2    0    0  0.10678866257E+02 -0.55728415549E+01  0.43405283565E+02  0.46142318865E+02  0.10000010068E+02 0.  0.
         12    1    1    2    0    0 -0.10678866257E+02  0.55728415549E+01 -0.43405283565E+02  0.45045681135E+02  0.00000000000E+00 0. -1.
         11    1    3    3    0    0  0.51033781811E+00 -0.14589490239E+01  0.16734211481E+01  0.22780069234E+01  0.51100000000E-03 0. -1.
        -11    1    3    3    0    0  0.20693569762E+01 -0.77330122175E+00  0.14541287978E+01  0.26447540333E+01  0.51100000000E-03 0.  1.
        -12    1    3    3    0    0  0.80991714626E+01 -0.33405913092E+01  0.40277733619E+02  0.41219557909E+02  0.00000000000E+00 0.  1.
</event>
<event>
 7    1  0.2312612E-008  0.4614232E+02  0.7816164E-02  0.1320468E+00
        -11   -1    0    0    0    0  0.00000000000E+00  0.00000000000E+00  0.45593999997E+02  0.45594000000E+02  0.51100000000E-03 0.  1.
         11   -1    0    0    0    0 -0.00000000000E+00 -0.00000000000E+00 -0.45593999997E+02  0.45594000000E+02  0.51100000000E-03 0. -1.
    9900012    2    1    2    0    0 -0.30777819762E+00  0.42481597975E+02  0.14977737760E+02  0.46142317385E+02  0.99999965662E+01 0.  0.
         12    1    1    2    0    0  0.30777819762E+00 -0.42481597975E+02 -0.14977737760E+02  0.45045682615E+02  0.00000000000E+00 0. -1.
         11    1    3    3    0    0  0.98426540922E+00  0.25231299130E+01  0.21240482064E+01  0.34418808809E+01  0.51100000000E-03 0. -1.
        -11    1    3    3    0    0 -0.15939552417E+01  0.14081129734E+02  0.83028308685E+01  0.16424247581E+02  0.51100000000E-03 0.  1.
         12    1    3    3    0    0  0.30191163482E+00  0.25877338327E+02  0.45508586851E+01  0.26276188923E+02  0.00000000000E+00 0. -1.
</event>
<event>
 7    1  0.2312612E-008  0.4614232E+02  0.7816164E-02  0.1320468E+00
        -11   -1    0    0    0    0  0.00000000000E+00  0.00000000000E+00  0.45593999997E+02  0.45594000000E+02  0.51100000000E-03 0.  1.
         11   -1    0    0    0    0 -0.00000000000E+00 -0.00000000000E+00 -0.45593999997E+02  0.45594000000E+02  0.51100000000E-03 0. -1.
    9900012    2    1    2    0    0  0.32138937633E+02 -0.21038650708E+02  0.23528224954E+02  0.46142317573E+02  0.99999982872E+01 0.  0.
         12    1    1    2    0    0 -0.32138937633E+02  0.21038650708E+02 -0.23528224954E+02  0.45045682427E+02  0.00000000000E+00 0. -1.
         11    1    3    3    0    0  0.14247083400E+02 -0.84042928572E+01  0.68653248231E+01  0.17909333015E+02  0.51100000000E-03 0. -1.
        -11    1    3    3    0    0  0.81550180778E+01 -0.82304898101E+01  0.56611597947E+01  0.12895503590E+02  0.51100000000E-03 0.  1.
         12    1    3    3    0    0  0.97368361550E+01 -0.44038680410E+01  0.11001740336E+02  0.15337480968E+02  0.00000000000E+00 0. -1.
</event>
<event>
 7    1  0.2312612E-008  0.4614232E+02  0.7816164E-02  0.1320468E+00
        -11   -1    0    0    0    0  0.00000000000E+00  0.00000000000E+00  0.45593999997E+02  0.45594000000E+02  0.51100000000E-03 0. -1.
         11   -1    0    0    0    0 -0.00000000000E+00 -0.00000000000E+00 -0.45593999997E+02  0.45594000000E+02  0.51100000000E-03 0.  1.
    9900012    2    1    2    0    0  0.32693225892E+02 -0.28840102120E+02 -0.11336436440E+02  0.46142319845E+02  0.10000019001E+02 0.  0.
         12    1    1    2    0    0 -0.32693225892E+02  0.28840102120E+02  0.11336436440E+02  0.45045680155E+02  0.00000000000E+00 0. -1.
         11    1    3    3    0    0  0.35296582169E+01 -0.48504812996E+01 -0.50576214805E+01  0.78463489132E+01  0.51100000000E-03 0. -1.
        -11    1    3    3    0    0  0.10715504753E+02 -0.81516750771E+01 -0.22378770576E+01  0.13648441034E+02  0.51100000000E-03 0.  1.
         12    1    3    3    0    0  0.18448062922E+02 -0.15837945743E+02 -0.40409379020E+01  0.24647529898E+02  0.00000000000E+00 0. -1.
</event>
<event>
 7    1  0.2312612E-008  0.4614232E+02  0.7816164E-02  0.1320468E+00
        -11   -1    0    0    0    0  0.00000000000E+00  0.00000000000E+00  0.45593999997E+02  0.45594000000E+02  0.51100000000E-03 0.  1.
         11   -1    0    0    0    0 -0.00000000000E+00 -0.00000000000E+00 -0.45593999997E+02  0.45594000000E+02  0.51100000000E-03 0. -1.
    9900012    2    1    2    0    0 -0.74129608477E+01 -0.23321556856E+01  0.44370287825E+02  0.46142318961E+02  0.10000010938E+02 0.  0.
         12    1    1    2    0    0  0.74129608477E+01  0.23321556856E+01 -0.44370287825E+02  0.45045681039E+02  0.00000000000E+00 0. -1.
         11    1    3    3    0    0 -0.30995176548E+01  0.14808166395E+01  0.15570306049E+02  0.15944725094E+02  0.51100000000E-03 0. -1.
        -11    1    3    3    0    0  0.65649167006E+00 -0.58947899691E+00  0.16720696564E+02  0.16743958930E+02  0.51100000000E-03 0.  1.
        -12    1    3    3    0    0 -0.49699348629E+01 -0.32234933283E+01  0.12079285212E+02  0.13453634937E+02  0.00000000000E+00 0.  1.
</event>
<event>
 7    1  0.2312612E-008  0.4614232E+02  0.7816164E-02  0.1320468E+00
        -11   -1    0    0    0    0  0.00000000000E+00  0.00000000000E+00  0.45593999997E+02  0.45594000000E+02  0.51100000000E-03 0.  1.
         11   -1    0    0    0    0 -0.00000000000E+00 -0.00000000000E+00 -0.45593999997E+02  0.45594000000E+02  0.51100000000E-03 0. -1.
    9900012    2    1    2    0    0 -0.12166363166E+02  0.86235068926E+01  0.42505623236E+02  0.46142320180E+02  0.10000022056E+02 0.  0.
         12    1    1    2    0    0  0.12166363166E+02 -0.86235068926E+01 -0.42505623236E+02  0.45045679820E+02  0.00000000000E+00 0. -1.
         11    1    3    3    0    0 -0.50373780741E+00 -0.41967618138E+00  0.39735324902E+01  0.40272621702E+01  0.51100000000E-03 0. -1.
        -11    1    3    3    0    0 -0.56502497565E+01  0.17752262158E+01  0.68337088827E+01  0.90430264725E+01  0.51100000000E-03 0.  1.
        -12    1    3    3    0    0 -0.60123756018E+01  0.72679568581E+01  0.31698381863E+02  0.33072031537E+02  0.00000000000E+00 0.  1.
</event>
<event>
 7    1  0.2312612E-008  0.4614232E+02  0.7816164E-02  0.1320468E+00
        -11   -1    0    0    0    0  0.00000000000E+00  0.00000000000E+00  0.45593999997E+02  0.45594000000E+02  0.51100000000E-03 0.  1.
         11   -1    0    0    0    0 -0.00000000000E+00 -0.00000000000E+00 -0.45593999997E+02  0.45594000000E+02  0.51100000000E-03 0. -1.
    9900012    2    1    2    0    0 -0.23742095316E+02  0.27813325404E+02  0.26302952737E+02  0.46142317824E+02  0.10000000576E+02 0.  0.
         12    1    1    2    0    0  0.23742095316E+02 -0.27813325404E+02 -0.26302952737E+02  0.45045682176E+02  0.00000000000E+00 0. -1.
         11    1    3    3    0    0 -0.12432549636E+02  0.75194131901E+01  0.10637633032E+02  0.18007473503E+02  0.51100000000E-03 0. -1.
        -11    1    3    3    0    0 -0.58846762307E+01  0.13074528876E+02  0.94329135380E+01  0.17162534130E+02  0.51100000000E-03 0.  1.
        -12    1    3    3    0    0 -0.54248694496E+01  0.72193833373E+01  0.62324061661E+01  0.10972310191E+02  0.00000000000E+00 0.  1.
</event>
<event>
 7    1  0.2312612E-008  0.4614232E+02  0.7816164E-02  0.1320468E+00
        -11   -1    0    0    0    0  0.00000000000E+00  0.00000000000E+00  0.45593999997E+02  0.45594000000E+02  0.51100000000E-03 0.  1.
         11   -1    0    0    0    0 -0.00000000000E+00 -0.00000000000E+00 -0.45593999997E+02  0.45594000000E+02  0.51100000000E-03 0. -1.
    9900012    2    1    2    0    0 -0.36109380551E+01  0.43658188905E+02  0.10489866012E+02  0.46142316288E+02  0.99999865678E+01 0.  0.
         12    1    1    2    0    0  0.36109380551E+01 -0.43658188905E+02 -0.10489866012E+02  0.45045683712E+02  0.00000000000E+00 0. -1.
         11    1    3    3    0    0  0.16075427405E+00  0.13988347690E+02  0.24545628395E+01  0.14202978281E+02  0.51100000000E-03 0. -1.
        -11    1    3    3    0    0 -0.25905316929E+01  0.26327221668E+02  0.43213795880E+01  0.26804995374E+02  0.51100000000E-03 0.  1.
         12    1    3    3    0    0 -0.11811606362E+01  0.33426195472E+01  0.37139235849E+01  0.51343426337E+01  0.00000000000E+00 0. -1.
</event>
<event>
 7    1  0.2312612E-008  0.4614232E+02  0.7816164E-02  0.1320468E+00
        -11   -1    0    0    0    0  0.00000000000E+00  0.00000000000E+00  0.45593999997E+02  0.45594000000E+02  0.51100000000E-03 0.  1.
         11   -1    0    0    0    0 -0.00000000000E+00 -0.00000000000E+00 -0.45593999997E+02  0.45594000000E+02  0.51100000000E-03 0. -1.
    9900012    2    1    2    0    0 -0.21185517233E+02 -0.10214867593E+02  0.38418011905E+02  0.46142319862E+02  0.10000019157E+02 0.  0.
         12    1    1    2    0    0  0.21185517233E+02  0.10214867593E+02 -0.38418011905E+02  0.45045680138E+02  0.00000000000E+00 0. -1.
         11    1    3    3    0    0 -0.50161059528E+00  0.37804997057E+00  0.53760802187E+01  0.54126494204E+01  0.51100000000E-03 0. -1.
        -11    1    3    3    0    0 -0.13552488313E+02 -0.40723433520E+01  0.19757240232E+02  0.24302313916E+02  0.51100000000E-03 0.  1.
         12    1    3    3    0    0 -0.71314183250E+01 -0.65205742111E+01  0.13284691455E+02  0.16427356525E+02  0.00000000000E+00 0. -1.
</event>
<event>
 7    1  0.2312612E-008  0.4614232E+02  0.7816164E-02  0.1320468E+00
        -11   -1    0    0    0    0  0.00000000000E+00  0.00000000000E+00  0.45593999997E+02  0.45594000000E+02  0.51100000000E-03 0.  1.
         11   -1    0    0    0    0 -0.00000000000E+00 -0.00000000000E+00 -0.45593999997E+02  0.45594000000E+02  0.51100000000E-03 0. -1.
    9900012    2    1    2    0    0  0.12828639334E+01  0.15837026681E+01  0.44999551506E+02  0.46142317746E+02  0.99999998630E+01 0.  0.
         12    1    1    2    0    0 -0.12828639334E+01 -0.15837026681E+01 -0.44999551506E+02  0.45045682254E+02  0.00000000000E+00 0. -1.
         11    1    3    3    0    0 -0.33277141717E+01  0.12154916806E+01  0.24007479693E+02  0.24267471708E+02  0.51100000000E-03 0.  1.
        -11    1    3    3    0    0  0.23441253538E+01 -0.92102992482E+00  0.16415567628E+02  0.16607651267E+02  0.51100000000E-03 0. -1.
         12    1    3    3    0    0  0.22664527513E+01  0.12892409124E+01  0.45765041854E+01  0.52671947716E+01  0.00000000000E+00 0. -1.
</event>
<event>
 7    1  0.2312612E-008  0.4614232E+02  0.7816164E-02  0.1320468E+00
        -11   -1    0    0    0    0  0.00000000000E+00  0.00000000000E+00  0.45593999997E+02  0.45594000000E+02  0.51100000000E-03 0.  1.
         11   -1    0    0    0    0 -0.00000000000E+00 -0.00000000000E+00 -0.45593999997E+02  0.45594000000E+02  0.51100000000E-03 0. -1.
    9900012    2    1    2    0    0  0.43323579243E+02 -0.11508664630E+02  0.44420312600E+01  0.46142317391E+02  0.99999966268E+01 0.  0.
         12    1    1    2    0    0 -0.43323579243E+02  0.11508664630E+02 -0.44420312600E+01  0.45045682609E+02  0.00000000000E+00 0. -1.
         11    1    3    3    0    0  0.10849759930E+02 -0.19081064701E-01  0.18561760915E+01  0.11007408622E+02  0.51100000000E-03 0. -1.
        -11    1    3    3    0    0  0.38104537073E+01  0.24742361331E+00 -0.10201321935E+01  0.39523974817E+01  0.51100000000E-03 0.  1.
        -12    1    3    3    0    0  0.28663365605E+02 -0.11737007178E+02  0.36059873620E+01  0.31182511287E+02  0.00000000000E+00 0.  1.
</event>
<event>
 7    1  0.2312612E-008  0.4614232E+02  0.7816164E-02  0.1320468E+00
        -11   -1    0    0    0    0  0.00000000000E+00  0.00000000000E+00  0.45593999997E+02  0.45594000000E+02  0.51100000000E-03 0. -1.
         11   -1    0    0    0    0 -0.00000000000E+00 -0.00000000000E+00 -0.45593999997E+02  0.45594000000E+02  0.51100000000E-03 0.  1.
    9900012    2    1    2    0    0 -0.58145816844E+01 -0.43761167973E+02  0.89590433552E+01  0.46142316074E+02  0.99999846175E+01 0.  0.
         12    1    1    2    0    0  0.58145816844E+01  0.43761167973E+02 -0.89590433552E+01  0.45045683926E+02  0.00000000000E+00 0. -1.
         11    1    3    3    0    0 -0.31612078370E+00 -0.21153606111E+02  0.70930046695E+01  0.22313352490E+02  0.51100000000E-03 0. -1.
        -11    1    3    3    0    0 -0.22138860688E+01 -0.10740368945E+02  0.32511381813E+01  0.11437950706E+02  0.51100000000E-03 0.  1.
         12    1    3    3    0    0 -0.32845748319E+01 -0.11867192916E+02 -0.13850994956E+01  0.12391012878E+02  0.00000000000E+00 0. -1.
</event>
<event>
 7    1  0.2312612E-008  0.4614232E+02  0.7816164E-02  0.1320468E+00
        -11   -1    0    0    0    0  0.00000000000E+00  0.00000000000E+00  0.45593999997E+02  0.45594000000E+02  0.51100000000E-03 0. -1.
         11   -1    0    0    0    0 -0.00000000000E+00 -0.00000000000E+00 -0.45593999997E+02  0.45594000000E+02  0.51100000000E-03 0.  1.
    9900012    2    1    2    0    0 -0.44264453498E+02 -0.82943988106E+01  0.98720800582E+00  0.46142317912E+02  0.10000001375E+02 0.  0.
         12    1    1    2    0    0  0.44264453498E+02  0.82943988106E+01 -0.98720800582E+00  0.45045682088E+02  0.00000000000E+00 0. -1.
         11    1    3    3    0    0 -0.49089419651E+01 -0.10126898930E+01 -0.10391336853E+01  0.51188915903E+01  0.51100000000E-03 0. -1.
        -11    1    3    3    0    0 -0.54529285882E+00 -0.16685323323E+01 -0.28204741052E-01  0.17556025218E+01  0.51100000000E-03 0.  1.
        -12    1    3    3    0    0 -0.38810218674E+02 -0.56131765853E+01  0.20545464322E+01  0.39267823800E+02  0.00000000000E+00 0.  1.
</event>
<event>
 7    1  0.2312612E-008  0.4614232E+02  0.7816164E-02  0.1320468E+00
        -11   -1    0    0    0    0  0.00000000000E+00  0.00000000000E+00  0.45593999997E+02  0.45594000000E+02  0.51100000000E-03 0.  1.
         11   -1    0    0    0    0 -0.00000000000E+00 -0.00000000000E+00 -0.45593999997E+02  0.45594000000E+02  0.51100000000E-03 0. -1.
    9900012    2    1    2    0    0  0.18699783807E+02 -0.97085698260E+01  0.39814259867E+02  0.46142317285E+02  0.99999956575E+01 0.  0.
         12    1    1    2    0    0 -0.18699783807E+02  0.97085698260E+01 -0.39814259867E+02  0.45045682715E+02  0.00000000000E+00 0. -1.
         11    1    3    3    0    0  0.38876568083E+01 -0.18508290570E+01  0.68118596597E+01  0.80585901956E+01  0.51100000000E-03 0. -1.
        -11    1    3    3    0    0  0.73837939027E+01 -0.86509205763E+01  0.22284809280E+02  0.25019423737E+02  0.51100000000E-03 0.  1.
         12    1    3    3    0    0  0.74283330963E+01  0.79317980734E+00  0.10717590927E+02  0.13064303352E+02  0.00000000000E+00 0. -1.
</event>
<event>
 7    1  0.2312612E-008  0.4614232E+02  0.7816164E-02  0.1320468E+00
        -11   -1    0    0    0    0  0.00000000000E+00  0.00000000000E+00  0.45593999997E+02  0.45594000000E+02  0.51100000000E-03 0.  1.
         11   -1    0    0    0    0 -0.00000000000E+00 -0.00000000000E+00 -0.45593999997E+02  0.45594000000E+02  0.51100000000E-03 0. -1.
    9900012    2    1    2    0    0 -0.38392745098E+02 -0.80903111010E+01  0.22128204576E+02  0.46142318213E+02  0.10000004122E+02 0.  0.
         12    1    1    2    0    0  0.38392745098E+02  0.80903111010E+01 -0.22128204576E+02  0.45045681787E+02  0.00000000000E+00 0. -1.
         11    1    3    3    0    0 -0.14594311833E+02 -0.41728681948E+01  0.11049171296E+02  0.18774742433E+02  0.51100000000E-03 0. -1.
        -11    1    3    3    0    0 -0.98743051932E+01 -0.37811850065E+01  0.20463815865E+01  0.10769723347E+02  0.51100000000E-03 0.  1.
        -12    1    3    3    0    0 -0.13924128072E+02 -0.13625789971E+00  0.90326516934E+01  0.16597852433E+02  0.00000000000E+00 0.  1.
</event>
<event>
 7    1  0.2312612E-008  0.4614232E+02  0.7816164E-02  0.1320468E+00
        -11   -1    0    0    0    0  0.00000000000E+00  0.00000000000E+00  0.45593999997E+02  0.45594000000E+02  0.51100000000E-03 0.  1.
         11   -1    0    0    0    0 -0.00000000000E+00 -0.00000000000E+00 -0.45593999997E+02  0.45594000000E+02  0.51100000000E-03 0. -1.
    9900012    2    1    2    0    0  0.44704806003E+02  0.47454441073E+01  0.28415694520E+01  0.46142318337E+02  0.10000005251E+02 0.  0.
         12    1    1    2    0    0 -0.44704806003E+02 -0.47454441073E+01 -0.28415694520E+01  0.45045681663E+02  0.00000000000E+00 0. -1.
         11    1    3    3    0    0  0.30986938200E+01  0.27009035259E+01  0.10952739161E+01  0.42539873600E+01  0.51100000000E-03 0. -1.
        -11    1    3    3    0    0  0.18005931018E+02 -0.75950147562E+00 -0.39154006766E+00  0.18026194778E+02  0.51100000000E-03 0.  1.
        -12    1    3    3    0    0  0.23600181165E+02  0.28040420570E+01  0.21378356036E+01  0.23862136199E+02  0.00000000000E+00 0.  1.
</event>
<event>
 7    1  0.2312612E-008  0.4614232E+02  0.7816164E-02  0.1320468E+00
        -11   -1    0    0    0    0  0.00000000000E+00  0.00000000000E+00  0.45593999997E+02  0.45594000000E+02  0.51100000000E-03 0.  1.
         11   -1    0    0    0    0 -0.00000000000E+00 -0.00000000000E+00 -0.45593999997E+02  0.45594000000E+02  0.51100000000E-03 0. -1.
    9900012    2    1    2    0    0 -0.17733591102E+02  0.34496599888E+02  0.22904536775E+02  0.46142318053E+02  0.10000002659E+02 0.  0.
         12    1    1    2    0    0  0.17733591102E+02 -0.34496599888E+02 -0.22904536775E+02  0.45045681947E+02  0.00000000000E+00 0. -1.
         11    1    3    3    0    0 -0.17315645685E+01  0.39581156212E+01  0.13266195733E+01  0.45193931981E+01  0.51100000000E-03 0. -1.
        -11    1    3    3    0    0 -0.10915870615E+01 -0.51893277303E-01  0.22131966634E+01  0.24682979879E+01  0.51100000000E-03 0.  1.
        -12    1    3    3    0    0 -0.14910439472E+02  0.30590377544E+02  0.19364720538E+02  0.39154626867E+02  0.00000000000E+00 0.  1.
</event>
<event>
 7    1  0.2312612E-008  0.4614232E+02  0.7816164E-02  0.1320468E+00
        -11   -1    0    0    0    0  0.00000000000E+00  0.00000000000E+00  0.45593999997E+02  0.45594000000E+02  0.51100000000E-03 0. -1.
         11   -1    0    0    0    0 -0.00000000000E+00 -0.00000000000E+00 -0.45593999997E+02  0.45594000000E+02  0.51100000000E-03 0.  1.
    9900012    2    1    2    0    0 -0.36634272979E+02  0.17590383266E+02 -0.19432496809E+02  0.46142317939E+02  0.10000001621E+02 0.  0.
         12    1    1    2    0    0  0.36634272979E+02 -0.17590383266E+02  0.19432496809E+02  0.45045682061E+02  0.00000000000E+00 0. -1.
         11    1    3    3    0    0 -0.84033416628E+01  0.50172020033E+01 -0.70573036481E+01  0.12066233964E+02  0.51100000000E-03 0. -1.
        -11    1    3    3    0    0 -0.26273694574E+02  0.13549361007E+02 -0.11464423945E+02  0.31706864035E+02  0.51100000000E-03 0.  1.
         12    1    3    3    0    0 -0.19572367418E+01 -0.97617974449E+00 -0.91076921570E+00  0.23692199394E+01  0.00000000000E+00 0. -1.
</event>
<event>
 7    1  0.2312612E-008  0.4614232E+02  0.7816164E-02  0.1320468E+00
        -11   -1    0    0    0    0  0.00000000000E+00  0.00000000000E+00  0.45593999997E+02  0.45594000000E+02  0.51100000000E-03 0.  1.
         11   -1    0    0    0    0 -0.00000000000E+00 -0.00000000000E+00 -0.45593999997E+02  0.45594000000E+02  0.51100000000E-03 0. -1.
    9900012    2    1    2    0    0  0.38805174595E+02 -0.21348084553E+01  0.22775304791E+02  0.46142317734E+02  0.99999997537E+01 0.  0.
         12    1    1    2    0    0 -0.38805174595E+02  0.21348084553E+01 -0.22775304791E+02  0.45045682266E+02  0.00000000000E+00 0. -1.
         11    1    3    3    0    0  0.11012294055E+02  0.19015019878E+01  0.63130123717E+01  0.12835125852E+02  0.51100000000E-03 0.  1.
        -11    1    3    3    0    0  0.21577782782E+02 -0.54674610075E+01  0.14751615639E+02  0.26704007262E+02  0.51100000000E-03 0. -1.
         12    1    3    3    0    0  0.62150977577E+01  0.14311505645E+01  0.17106767806E+01  0.66031846198E+01  0.00000000000E+00 0. -1.
</event>
<event>
 7    1  0.2312612E-008  0.4614232E+02  0.7816164E-02  0.1320468E+00
        -11   -1    0    0    0    0  0.00000000000E+00  0.00000000000E+00  0.45593999997E+02  0.45594000000E+02  0.51100000000E-03 0.  1.
         11   -1    0    0    0    0 -0.00000000000E+00 -0.00000000000E+00 -0.45593999997E+02  0.45594000000E+02  0.51100000000E-03 0. -1.
    9900012    2    1    2    0    0  0.24436206054E+02 -0.32542113634E+02  0.19313106867E+02  0.46142318488E+02  0.10000006625E+02 0.  0.
         12    1    1    2    0    0 -0.24436206054E+02  0.32542113634E+02 -0.19313106867E+02  0.45045681512E+02  0.00000000000E+00 0. -1.
         11    1    3    3    0    0  0.13521527990E+01 -0.36840064272E+01  0.21139489871E+01  0.44574657743E+01  0.51100000000E-03 0. -1.
        -11    1    3    3    0    0  0.10962671886E+02 -0.20501230703E+02  0.10493868418E+02  0.25506899260E+02  0.51100000000E-03 0.  1.
        -12    1    3    3    0    0  0.12121381368E+02 -0.83568765036E+01  0.67052894623E+01  0.16177953454E+02  0.00000000000E+00 0.  1.
</event>
<event>
 7    1  0.2312612E-008  0.4614232E+02  0.7816164E-02  0.1320468E+00
        -11   -1    0    0    0    0  0.00000000000E+00  0.00000000000E+00  0.45593999997E+02  0.45594000000E+02  0.51100000000E-03 0. -1.
         11   -1    0    0    0    0 -0.00000000000E+00 -0.00000000000E+00 -0.45593999997E+02  0.45594000000E+02  0.51100000000E-03 0.  1.
    9900012    2    1    2    0    0 -0.13840868757E+02  0.33253195941E+02 -0.27051226727E+02  0.46142317014E+02  0.99999931843E+01 0.  0.
         12    1    1    2    0    0  0.13840868757E+02 -0.33253195941E+02  0.27051226727E+02  0.45045682986E+02  0.00000000000E+00 0. -1.
         11    1    3    3    0    0  0.35448118024E+00  0.24783697740E+00  0.22361802441E-01  0.43310551351E+00  0.51100000000E-03 0. -1.
        -11    1    3    3    0    0 -0.70369872008E+00  0.17101136903E+01  0.45001902540E+00  0.19032073210E+01  0.51100000000E-03 0.  1.
        -12    1    3    3    0    0 -0.13491651217E+02  0.31295245274E+02 -0.27523607555E+02  0.43806004179E+02  0.00000000000E+00 0.  1.
</event>
<event>
 7    1  0.2312612E-008  0.4614232E+02  0.7816164E-02  0.1320468E+00
        -11   -1    0    0    0    0  0.00000000000E+00  0.00000000000E+00  0.45593999997E+02  0.45594000000E+02  0.51100000000E-03 0. -1.
         11   -1    0    0    0    0 -0.00000000000E+00 -0.00000000000E+00 -0.45593999997E+02  0.45594000000E+02  0.51100000000E-03 0.  1.
    9900012    2    1    2    0    0 -0.20998883629E+02  0.36662565024E+02 -0.15621034840E+02  0.46142317440E+02  0.99999970723E+01 0.  0.
         12    1    1    2    0    0  0.20998883629E+02 -0.36662565024E+02  0.15621034840E+02  0.45045682560E+02  0.00000000000E+00 0. -1.
         11    1    3    3    0    0 -0.35557539574E+01  0.80909225305E+01 -0.82265531599E+00  0.88759887128E+01  0.51100000000E-03 0. -1.
        -11    1    3    3    0    0 -0.17635719867E+02  0.24834418531E+02 -0.13253500353E+02  0.33217799910E+02  0.51100000000E-03 0.  1.
         12    1    3    3    0    0  0.19259019513E+00  0.37372239630E+01 -0.15448791714E+01  0.40485288176E+01  0.00000000000E+00 0. -1.
</event>
<event>
 7    1  0.2312612E-008  0.4614232E+02  0.7816164E-02  0.1320468E+00
        -11   -1    0    0    0    0  0.00000000000E+00  0.00000000000E+00  0.45593999997E+02  0.45594000000E+02  0.51100000000E-03 0.  1.
         11   -1    0    0    0    0 -0.00000000000E+00 -0.00000000000E+00 -0.45593999997E+02  0.45594000000E+02  0.51100000000E-03 0. -1.
    9900012    2    1    2    0    0 -0.18476969877E+02  0.32747923882E+02  0.24805007108E+02  0.46142319718E+02  0.10000017845E+02 0.  0.
         12    1    1    2    0    0  0.18476969877E+02 -0.32747923882E+02 -0.24805007108E+02  0.45045680282E+02  0.00000000000E+00 0. -1.
         11    1    3    3    0    0 -0.98699000388E+01  0.13797388936E+02  0.14018367947E+02  0.22006760515E+02  0.51100000000E-03 0. -1.
        -11    1    3    3    0    0 -0.46221661721E+01  0.12447808327E+02  0.96731927447E+01  0.16428116459E+02  0.51100000000E-03 0.  1.
         12    1    3    3    0    0 -0.39849036664E+01  0.65027266197E+01  0.11134464161E+01  0.77074427434E+01  0.00000000000E+00 0. -1.
</event>
<event>
 7    1  0.2312612E-008  0.4614232E+02  0.7816164E-02  0.1320468E+00
        -11   -1    0    0    0    0  0.00000000000E+00  0.00000000000E+00  0.45593999997E+02  0.45594000000E+02  0.51100000000E-03 0. -1.
         11   -1    0    0    0    0 -0.00000000000E+00 -0.00000000000E+00 -0.45593999997E+02  0.45594000000E+02  0.51100000000E-03 0.  1.
    9900012    2    1    2    0    0  0.23068955080E+01 -0.29949484913E+02 -0.33568137689E+02  0.46142320059E+02  0.10000020951E+02 0.  0.
         12    1    1    2    0    0 -0.23068955080E+01  0.29949484913E+02  0.33568137689E+02  0.45045679941E+02  0.00000000000E+00 0. -1.
         11    1    3    3    0    0  0.54424855561E+01 -0.13562150079E+02 -0.13503458304E+02  0.19897134221E+02  0.51100000000E-03 0. -1.
        -11    1    3    3    0    0  0.41934615906E+00 -0.26631623493E+01 -0.25403504243E+01  0.37042766418E+01  0.51100000000E-03 0.  1.
        -12    1    3    3    0    0 -0.35549362072E+01 -0.13724172485E+02 -0.17524328961E+02  0.22540909196E+02  0.00000000000E+00 0.  1.
</event>
<event>
 7    1  0.2312612E-008  0.4614231E+02  0.7816164E-02  0.1320468E+00
        -11   -1    0    0    0    0  0.00000000000E+00  0.00000000000E+00  0.45593999997E+02  0.45594000000E+02  0.51100000000E-03 0. -1.
         11   -1    0    0    0    0 -0.00000000000E+00 -0.00000000000E+00 -0.45593999997E+02  0.45594000000E+02  0.51100000000E-03 0.  1.
    9900012    2    1    2    0    0  0.68551489162E+01 -0.43500080805E+02 -0.94796491338E+01  0.46142313809E+02  0.99999639619E+01 0.  0.
         12    1    1    2    0    0 -0.68551489162E+01  0.43500080805E+02  0.94796491338E+01  0.45045686191E+02  0.00000000000E+00 0. -1.
         11    1    3    3    0    0 -0.29025234933E+00 -0.38976898714E+01  0.17372453380E+01  0.42771783205E+01  0.51100000000E-03 0. -1.
        -11    1    3    3    0    0  0.14906703127E+01 -0.59454406548E+01 -0.79593859455E+00  0.61809288192E+01  0.51100000000E-03 0.  1.
         12    1    3    3    0    0  0.56547309528E+01 -0.33656950279E+02 -0.10420955877E+02  0.35684206669E+02  0.00000000000E+00 0. -1.
</event>
<event>
 7    1  0.2312612E-008  0.4614232E+02  0.7816164E-02  0.1320468E+00
        -11   -1    0    0    0    0  0.00000000000E+00  0.00000000000E+00  0.45593999997E+02  0.45594000000E+02  0.51100000000E-03 0.  1.
         11   -1    0    0    0    0 -0.00000000000E+00 -0.00000000000E+00 -0.45593999997E+02  0.45594000000E+02  0.51100000000E-03 0. -1.
    9900012    2    1    2    0    0 -0.13244640466E+02 -0.21472222570E+02  0.37318048011E+02  0.46142317071E+02  0.99999937069E+01 0.  0.
         12    1    1    2    0    0  0.13244640466E+02  0.21472222570E+02 -0.37318048011E+02  0.45045682929E+02  0.00000000000E+00 0. -1.
         11    1    3    3    0    0  0.70170486776E+00 -0.58343374155E+01  0.56094257830E+01  0.81238870422E+01  0.51100000000E-03 0. -1.
        -11    1    3    3    0    0 -0.75918436066E+01 -0.89467185809E+01  0.18433375867E+02  0.21851068826E+02  0.51100000000E-03 0.  1.
         12    1    3    3    0    0 -0.63545017268E+01 -0.66911665739E+01  0.13275246361E+02  0.16167361203E+02  0.00000000000E+00 0. -1.
</event>
<event>
 7    1  0.2312612E-008  0.4614232E+02  0.7816164E-02  0.1320468E+00
        -11   -1    0    0    0    0  0.00000000000E+00  0.00000000000E+00  0.45593999997E+02  0.45594000000E+02  0.51100000000E-03 0. -1.
         11   -1    0    0    0    0 -0.00000000000E+00 -0.00000000000E+00 -0.45593999997E+02  0.45594000000E+02  0.51100000000E-03 0.  1.
    9900012    2    1    2    0    0  0.42685027262E+01  0.40801511222E+02 -0.18604570085E+02  0.46142318059E+02  0.10000002715E+02 0.  0.
         12    1    1    2    0    0 -0.42685027262E+01 -0.40801511222E+02  0.18604570085E+02  0.45045681941E+02  0.00000000000E+00 0. -1.
         11    1    3    3    0    0  0.90417127631E-01  0.23711265383E+01 -0.30397108015E+01  0.38561973932E+01  0.51100000000E-03 0. -1.
        -11    1    3    3    0    0  0.24490183911E+01  0.30192544471E+02 -0.15123619598E+02  0.33857219359E+02  0.51100000000E-03 0.  1.
        -12    1    3    3    0    0  0.17290672074E+01  0.82378402124E+01 -0.44123968500E+00  0.84289013064E+01  0.00000000000E+00 0.  1.
</event>
<event>
 7    1  0.2312612E-008  0.4614232E+02  0.7816164E-02  0.1320468E+00
        -11   -1    0    0    0    0  0.00000000000E+00  0.00000000000E+00  0.45593999997E+02  0.45594000000E+02  0.51100000000E-03 0.  1.
         11   -1    0    0    0    0 -0.00000000000E+00 -0.00000000000E+00 -0.45593999997E+02  0.45594000000E+02  0.51100000000E-03 0. -1.
    9900012    2    1    2    0    0 -0.17439922127E+02 -0.41122747220E+02  0.58208446994E+01  0.46142318124E+02  0.10000003305E+02 0.  0.
         12    1    1    2    0    0  0.17439922127E+02  0.41122747220E+02 -0.58208446994E+01  0.45045681876E+02  0.00000000000E+00 0. -1.
         11    1    3    3    0    0 -0.69298771656E+01 -0.11958143492E+02  0.71427974316E-01  0.13821197326E+02  0.51100000000E-03 0. -1.
        -11    1    3    3    0    0 -0.35489120050E+01 -0.31784646759E+01  0.19665663166E+01  0.51541049129E+01  0.51100000000E-03 0.  1.
        -12    1    3    3    0    0 -0.69611329562E+01 -0.25986139052E+02  0.37828504085E+01  0.27167015885E+02  0.00000000000E+00 0.  1.
</event>
<event>
 7    1  0.2312612E-008  0.4614232E+02  0.7816164E-02  0.1320468E+00
        -11   -1    0    0    0    0  0.00000000000E+00  0.00000000000E+00  0.45593999997E+02  0.45594000000E+02  0.51100000000E-03 0.  1.
         11   -1    0    0    0    0 -0.00000000000E+00 -0.00000000000E+00 -0.45593999997E+02  0.45594000000E+02  0.51100000000E-03 0. -1.
    9900012    2    1    2    0    0  0.34850475181E+02 -0.19956953172E+02  0.20402889216E+02  0.46142317759E+02  0.99999999790E+01 0.  0.
         12    1    1    2    0    0 -0.34850475181E+02  0.19956953172E+02 -0.20402889216E+02  0.45045682241E+02  0.00000000000E+00 0. -1.
         11    1    3    3    0    0  0.53696849768E+01 -0.23601434863E+01  0.64523253814E+00  0.59008575068E+01  0.51100000000E-03 0. -1.
        -11    1    3    3    0    0  0.21427192128E+02 -0.92387642634E+01  0.14716258295E+02  0.27587090931E+02  0.51100000000E-03 0.  1.
         12    1    3    3    0    0  0.80535980760E+01 -0.83580454219E+01  0.50413983832E+01  0.12654369321E+02  0.00000000000E+00 0. -1.
</event>
<event>
 7    1  0.2312612E-008  0.4614232E+02  0.7816164E-02  0.1320468E+00
        -11   -1    0    0    0    0  0.00000000000E+00  0.00000000000E+00  0.45593999997E+02  0.45594000000E+02  0.51100000000E-03 0.  1.
         11   -1    0    0    0    0 -0.00000000000E+00 -0.00000000000E+00 -0.45593999997E+02  0.45594000000E+02  0.51100000000E-03 0. -1.
    9900012    2    1    2    0    0  0.25828919288E+02 -0.30385808012E+02  0.20944763660E+02  0.46142317356E+02  0.99999963048E+01 0.  0.
         12    1    1    2    0    0 -0.25828919288E+02  0.30385808012E+02 -0.20944763660E+02  0.45045682644E+02  0.00000000000E+00 0. -1.
         11    1    3    3    0    0  0.93447752229E+01 -0.10822936207E+02  0.33974680772E+01  0.14697059628E+02  0.51100000000E-03 0. -1.
        -11    1    3    3    0    0  0.28092450455E+01 -0.68832668483E+01  0.54130491431E+01  0.91963210860E+01  0.51100000000E-03 0.  1.
        -12    1    3    3    0    0  0.13674899020E+02 -0.12679604956E+02  0.12134246439E+02  0.22248936642E+02  0.00000000000E+00 0.  1.
</event>
<event>
 7    1  0.2312612E-008  0.4614232E+02  0.7816164E-02  0.1320468E+00
        -11   -1    0    0    0    0  0.00000000000E+00  0.00000000000E+00  0.45593999997E+02  0.45594000000E+02  0.51100000000E-03 0. -1.
         11   -1    0    0    0    0 -0.00000000000E+00 -0.00000000000E+00 -0.45593999997E+02  0.45594000000E+02  0.51100000000E-03 0.  1.
    9900012    2    1    2    0    0 -0.13689435566E+02 -0.42240490126E+02  0.75798271713E+01  0.46142318385E+02  0.10000005689E+02 0.  0.
         12    1    1    2    0    0  0.13689435566E+02  0.42240490126E+02 -0.75798271713E+01  0.45045681615E+02  0.00000000000E+00 0. -1.
         11    1    3    3    0    0 -0.36583088779E+01 -0.52743928460E+01 -0.28711897207E-01  0.64189772062E+01  0.51100000000E-03 0. -1.
        -11    1    3    3    0    0 -0.60983586376E+01 -0.22497514931E+02  0.98018464315E+00  0.23330000393E+02  0.51100000000E-03 0.  1.
         12    1    3    3    0    0 -0.39327680508E+01 -0.14468582349E+02  0.66283544254E+01  0.16393340786E+02  0.00000000000E+00 0. -1.
</event>
<event>
 7    1  0.2312612E-008  0.4614231E+02  0.7816164E-02  0.1320468E+00
        -11   -1    0    0    0    0  0.00000000000E+00  0.00000000000E+00  0.45593999997E+02  0.45594000000E+02  0.51100000000E-03 0.  1.
         11   -1    0    0    0    0 -0.00000000000E+00 -0.00000000000E+00 -0.45593999997E+02  0.45594000000E+02  0.51100000000E-03 0. -1.
    9900012    2    1    2    0    0 -0.33693113027E+02  0.13476344847E+02  0.26688506286E+02  0.46142310932E+02  0.99999377230E+01 0.  0.
         12    1    1    2    0    0  0.33693113027E+02 -0.13476344847E+02 -0.26688506286E+02  0.45045689068E+02  0.00000000000E+00 0. -1.
         11    1    3    3    0    0 -0.21165919112E+01  0.17740990159E+01  0.46587361975E+01  0.54158297477E+01  0.51100000000E-03 0. -1.
        -11    1    3    3    0    0 -0.15796362246E+02  0.86346496114E+01  0.13690436348E+02  0.22616593063E+02  0.51100000000E-03 0.  1.
        -12    1    3    3    0    0 -0.15780158870E+02  0.30675962200E+01  0.83393337401E+01  0.18109888121E+02  0.00000000000E+00 0.  1.
</event>
<event>
 7    1  0.2312612E-008  0.4614232E+02  0.7816164E-02  0.1320468E+00
        -11   -1    0    0    0    0  0.00000000000E+00  0.00000000000E+00  0.45593999997E+02  0.45594000000E+02  0.51100000000E-03 0.  1.
         11   -1    0    0    0    0 -0.00000000000E+00 -0.00000000000E+00 -0.45593999997E+02  0.45594000000E+02  0.51100000000E-03 0. -1.
    9900012    2    1    2    0    0 -0.34867816578E+02  0.27754365988E+02  0.65607909667E+01  0.46142318271E+02  0.10000004649E+02 0.  0.
         12    1    1    2    0    0  0.34867816578E+02 -0.27754365988E+02 -0.65607909667E+01  0.45045681729E+02  0.00000000000E+00 0. -1.
         11    1    3    3    0    0 -0.49136901136E+00  0.26794023359E+00  0.92347002484E+00  0.10798299042E+01  0.51100000000E-03 0. -1.
        -11    1    3    3    0    0 -0.56207617611E+01  0.27251850061E+01  0.32464073210E+01  0.70397980686E+01  0.51100000000E-03 0.  1.
        -12    1    3    3    0    0 -0.28755685806E+02  0.24761240749E+02  0.23909136209E+01  0.38022690298E+02  0.00000000000E+00 0.  1.
</event>
<event>
 7    1  0.2312612E-008  0.4614232E+02  0.7816164E-02  0.1320468E+00
        -11   -1    0    0    0    0  0.00000000000E+00  0.00000000000E+00  0.45593999997E+02  0.45594000000E+02  0.51100000000E-03 0.  1.
         11   -1    0    0    0    0 -0.00000000000E+00 -0.00000000000E+00 -0.45593999997E+02  0.45594000000E+02  0.51100000000E-03 0. -1.
    9900012    2    1    2    0    0 -0.34771183926E+02 -0.17436386703E+02  0.22716740346E+02  0.46142322018E+02  0.10000038819E+02 0.  0.
         12    1    1    2    0    0  0.34771183926E+02  0.17436386703E+02 -0.22716740346E+02  0.45045677982E+02  0.00000000000E+00 0. -1.
         11    1    3    3    0    0 -0.87962232781E+00 -0.68366560142E-01 -0.73967950420E+00  0.11513190071E+01  0.51100000000E-03 0. -1.
        -11    1    3    3    0    0 -0.14692549789E+02 -0.10252385845E+02  0.10758908717E+02  0.20898242793E+02  0.51100000000E-03 0.  1.
         12    1    3    3    0    0 -0.19199011810E+02 -0.71156342983E+01  0.12697511134E+02  0.24092760218E+02  0.00000000000E+00 0. -1.
</event>
<event>
 7    1  0.2312612E-008  0.4614232E+02  0.7816164E-02  0.1320468E+00
        -11   -1    0    0    0    0  0.00000000000E+00  0.00000000000E+00  0.45593999997E+02  0.45594000000E+02  0.51100000000E-03 0. -1.
         11   -1    0    0    0    0 -0.00000000000E+00 -0.00000000000E+00 -0.45593999997E+02  0.45594000000E+02  0.51100000000E-03 0.  1.
    9900012    2    1    2    0    0 -0.20542061983E+02  0.39034728771E+02 -0.91338444053E+01  0.46142317917E+02  0.10000001421E+02 0.  0.
         12    1    1    2    0    0  0.20542061983E+02 -0.39034728771E+02  0.91338444053E+01  0.45045682083E+02  0.00000000000E+00 0. -1.
         11    1    3    3    0    0 -0.15173103428E+02  0.21501053491E+02 -0.33205452436E+01  0.26524411206E+02  0.51100000000E-03 0. -1.
        -11    1    3    3    0    0 -0.34932200704E+01  0.53396056783E+01 -0.23973409872E+01  0.68162467187E+01  0.51100000000E-03 0.  1.
        -12    1    3    3    0    0 -0.18757384847E+01  0.12194069601E+02 -0.34159581744E+01  0.12801659992E+02  0.00000000000E+00 0.  1.
</event>
<event>
 7    1  0.2312612E-008  0.4614232E+02  0.7816164E-02  0.1320468E+00
        -11   -1    0    0    0    0  0.00000000000E+00  0.00000000000E+00  0.45593999997E+02  0.45594000000E+02  0.51100000000E-03 0.  1.
         11   -1    0    0    0    0 -0.00000000000E+00 -0.00000000000E+00 -0.45593999997E+02  0.45594000000E+02  0.51100000000E-03 0. -1.
    9900012    2    1    2    0    0 -0.72311238430E+01  0.40650315929E+02  0.18010445874E+02  0.46142317657E+02  0.99999990528E+01 0.  0.
         12    1    1    2    0    0  0.72311238430E+01 -0.40650315929E+02 -0.18010445874E+02  0.45045682343E+02  0.00000000000E+00 0. -1.
         11    1    3    3    0    0 -0.44718943644E+01  0.15990039928E+02  0.67022839077E+01  0.17905301616E+02  0.51100000000E-03 0. -1.
        -11    1    3    3    0    0 -0.32601129428E+01  0.20068243893E+02  0.59953273241E+01  0.21196855883E+02  0.51100000000E-03 0.  1.
         12    1    3    3    0    0  0.50088346418E+00  0.45920321081E+01  0.53128346419E+01  0.70401601586E+01  0.00000000000E+00 0. -1.
</event>
<event>
 7    1  0.2312612E-008  0.4614232E+02  0.7816164E-02  0.1320468E+00
        -11   -1    0    0    0    0  0.00000000000E+00  0.00000000000E+00  0.45593999997E+02  0.45594000000E+02  0.51100000000E-03 0. -1.
         11   -1    0    0    0    0 -0.00000000000E+00 -0.00000000000E+00 -0.45593999997E+02  0.45594000000E+02  0.51100000000E-03 0.  1.
    9900012    2    1    2    0    0  0.29755357718E+02  0.26356184662E+02 -0.21191595704E+02  0.46142317506E+02  0.99999976750E+01 0.  0.
         12    1    1    2    0    0 -0.29755357718E+02 -0.26356184662E+02  0.21191595704E+02  0.45045682494E+02  0.00000000000E+00 0. -1.
         11    1    3    3    0    0  0.21529613604E+00  0.83384158707E+00  0.57948033717E+00  0.10379990081E+01  0.51100000000E-03 0. -1.
        -11    1    3    3    0    0  0.83121290573E+01  0.60117364138E+01 -0.29541508094E+01  0.10675180160E+02  0.51100000000E-03 0.  1.
         12    1    3    3    0    0  0.21227932524E+02  0.19510606662E+02 -0.18816925232E+02  0.34429138338E+02  0.00000000000E+00 0. -1.
</event>
<event>
 7    1  0.2312612E-008  0.4614232E+02  0.7816164E-02  0.1320468E+00
        -11   -1    0    0    0    0  0.00000000000E+00  0.00000000000E+00  0.45593999997E+02  0.45594000000E+02  0.51100000000E-03 0.  1.
         11   -1    0    0    0    0 -0.00000000000E+00 -0.00000000000E+00 -0.45593999997E+02  0.45594000000E+02  0.51100000000E-03 0. -1.
    9900012    2    1    2    0    0 -0.16254632915E+02  0.22091119390E+02  0.35733495357E+02  0.46142319435E+02  0.10000015264E+02 0.  0.
         12    1    1    2    0    0  0.16254632915E+02 -0.22091119390E+02 -0.35733495357E+02  0.45045680565E+02  0.00000000000E+00 0. -1.
         11    1    3    3    0    0 -0.31476071654E+01  0.69014412998E+01  0.57993125694E+01  0.95482642098E+01  0.51100000000E-03 0. -1.
        -11    1    3    3    0    0 -0.12681999872E+02  0.15729660264E+02  0.27907829208E+02  0.34454350439E+02  0.51100000000E-03 0.  1.
         12    1    3    3    0    0 -0.42502587717E+00 -0.53998217332E+00  0.20263535798E+01  0.21397047866E+01  0.00000000000E+00 0. -1.
</event>
<event>
 7    1  0.2312612E-008  0.4614232E+02  0.7816164E-02  0.1320468E+00
        -11   -1    0    0    0    0  0.00000000000E+00  0.00000000000E+00  0.45593999997E+02  0.45594000000E+02  0.51100000000E-03 0.  1.
         11   -1    0    0    0    0 -0.00000000000E+00 -0.00000000000E+00 -0.45593999997E+02  0.45594000000E+02  0.51100000000E-03 0. -1.
    9900012    2    1    2    0    0 -0.24355024081E+02  0.21791141521E+02  0.31001491042E+02  0.46142317703E+02  0.99999994687E+01 0.  0.
         12    1    1    2    0    0  0.24355024081E+02 -0.21791141521E+02 -0.31001491042E+02  0.45045682297E+02  0.00000000000E+00 0. -1.
         11    1    3    3    0    0 -0.10813323704E+02  0.13062698187E+02  0.14699927762E+02  0.22442146286E+02  0.51100000000E-03 0. -1.
        -11    1    3    3    0    0 -0.11918352670E+02  0.95598521761E+01  0.13689693401E+02  0.20514521922E+02  0.51100000000E-03 0.  1.
         12    1    3    3    0    0 -0.16233477073E+01 -0.83140884235E+00  0.26118698786E+01  0.31856494949E+01  0.00000000000E+00 0. -1.
</event>
<event>
 7    1  0.2312612E-008  0.4614232E+02  0.7816164E-02  0.1320468E+00
        -11   -1    0    0    0    0  0.00000000000E+00  0.00000000000E+00  0.45593999997E+02  0.45594000000E+02  0.51100000000E-03 0. -1.
         11   -1    0    0    0    0 -0.00000000000E+00 -0.00000000000E+00 -0.45593999997E+02  0.45594000000E+02  0.51100000000E-03 0.  1.
    9900012    2    1    2    0    0 -0.37239301014E+02 -0.18166557961E+02 -0.17672689308E+02  0.46142319680E+02  0.10000017495E+02 0.  0.
         12    1    1    2    0    0  0.37239301014E+02  0.18166557961E+02  0.17672689308E+02  0.45045680320E+02  0.00000000000E+00 0. -1.
         11    1    3    3    0    0 -0.26469597249E+00  0.29490982335E+00  0.42404404319E+00  0.58038726162E+00  0.51100000000E-03 0. -1.
        -11    1    3    3    0    0 -0.12886440762E+02 -0.85024180110E+01 -0.40900071381E+01  0.15971212421E+02  0.51100000000E-03 0.  1.
         12    1    3    3    0    0 -0.24088164279E+02 -0.99590497733E+01 -0.14006726213E+02  0.29590719997E+02  0.00000000000E+00 0. -1.
</event>
<event>
 7    1  0.2312612E-008  0.4614232E+02  0.7816164E-02  0.1320468E+00
        -11   -1    0    0    0    0  0.00000000000E+00  0.00000000000E+00  0.45593999997E+02  0.45594000000E+02  0.51100000000E-03 0. -1.
         11   -1    0    0    0    0 -0.00000000000E+00 -0.00000000000E+00 -0.45593999997E+02  0.45594000000E+02  0.51100000000E-03 0.  1.
    9900012    2    1    2    0    0  0.44334815199E+02  0.37041329813E+01  0.70581159264E+01  0.46142318294E+02  0.10000004864E+02 0.  0.
         12    1    1    2    0    0 -0.44334815199E+02 -0.37041329813E+01 -0.70581159264E+01  0.45045681706E+02  0.00000000000E+00 0. -1.
         11    1    3    3    0    0  0.29419286181E+02 -0.17457527466E+01  0.46786135916E+01  0.29840098483E+02  0.51100000000E-03 0. -1.
        -11    1    3    3    0    0  0.70258396721E+01  0.17163486552E+01 -0.83339404448E-01  0.72329262074E+01  0.51100000000E-03 0.  1.
        -12    1    3    3    0    0  0.78896893458E+01  0.37335370727E+01  0.24628417392E+01  0.90692936041E+01  0.00000000000E+00 0.  1.
</event>
<event>
 7    1  0.2312612E-008  0.4614232E+02  0.7816164E-02  0.1320468E+00
        -11   -1    0    0    0    0  0.00000000000E+00  0.00000000000E+00  0.45593999997E+02  0.45594000000E+02  0.51100000000E-03 0.  1.
         11   -1    0    0    0    0 -0.00000000000E+00 -0.00000000000E+00 -0.45593999997E+02  0.45594000000E+02  0.51100000000E-03 0. -1.
    9900012    2    1    2    0    0  0.10131890937E+01  0.51754772446E+01  0.44735907430E+02  0.46142317294E+02  0.99999957415E+01 0.  0.
         12    1    1    2    0    0 -0.10131890937E+01 -0.51754772446E+01 -0.44735907430E+02  0.45045682706E+02  0.00000000000E+00 0. -1.
         11    1    3    3    0    0 -0.11070475156E+01 -0.49205789372E+00  0.24087591048E+02  0.24118037191E+02  0.51100000000E-03 0. -1.
        -11    1    3    3    0    0  0.60121461564E+00  0.20886226627E+01  0.15063052157E+02  0.15219045442E+02  0.51100000000E-03 0.  1.
         12    1    3    3    0    0  0.15190219936E+01  0.35789124756E+01  0.55852642254E+01  0.68052346611E+01  0.00000000000E+00 0. -1.
</event>
<event>
 7    1  0.2312612E-008  0.4614232E+02  0.7816164E-02  0.1320468E+00
        -11   -1    0    0    0    0  0.00000000000E+00  0.00000000000E+00  0.45593999997E+02  0.45594000000E+02  0.51100000000E-03 0.  1.
         11   -1    0    0    0    0 -0.00000000000E+00 -0.00000000000E+00 -0.45593999997E+02  0.45594000000E+02  0.51100000000E-03 0. -1.
    9900012    2    1    2    0    0 -0.11360920323E+02 -0.10218222955E+01  0.43577504810E+02  0.46142317001E+02  0.99999930679E+01 0.  0.
         12    1    1    2    0    0  0.11360920323E+02  0.10218222955E+01 -0.43577504810E+02  0.45045682999E+02  0.00000000000E+00 0. -1.
         11    1    3    3    0    0 -0.11588713549E+01 -0.38456199724E+01  0.93878551798E+01  0.10210954947E+02  0.51100000000E-03 0. -1.
        -11    1    3    3    0    0 -0.47426948795E+01 -0.26671720910E+00  0.13486265995E+02  0.14298379752E+02  0.51100000000E-03 0.  1.
        -12    1    3    3    0    0 -0.54593540883E+01  0.30905148859E+01  0.20703383635E+02  0.21632982302E+02  0.00000000000E+00 0.  1.
</event>
<event>
 7    1  0.2312612E-008  0.4614232E+02  0.7816164E-02  0.1320468E+00
        -11   -1    0    0    0    0  0.00000000000E+00  0.00000000000E+00  0.45593999997E+02  0.45594000000E+02  0.51100000000E-03 0. -1.
         11   -1    0    0    0    0 -0.00000000000E+00 -0.00000000000E+00 -0.45593999997E+02  0.45594000000E+02  0.51100000000E-03 0.  1.
    9900012    2    1    2    0    0 -0.16776269618E+02 -0.41323796334E+02  0.63256743764E+01  0.46142317387E+02  0.99999965853E+01 0.  0.
         12    1    1    2    0    0  0.16776269618E+02  0.41323796334E+02 -0.63256743764E+01  0.45045682613E+02  0.00000000000E+00 0. -1.
         11    1    3    3    0    0 -0.28617101136E+01 -0.12630385987E+02 -0.11855436281E+01  0.13004674118E+02  0.51100000000E-03 0. -1.
        -11    1    3    3    0    0 -0.92001763150E+01 -0.15887942074E+02  0.21839027559E+01  0.18488898807E+02  0.51100000000E-03 0.  1.
         12    1    3    3    0    0 -0.47143831894E+01 -0.12805468273E+02  0.53273152487E+01  0.14648744462E+02  0.00000000000E+00 0. -1.
</event>
<event>
 7    1  0.2312612E-008  0.4614232E+02  0.7816164E-02  0.1320468E+00
        -11   -1    0    0    0    0  0.00000000000E+00  0.00000000000E+00  0.45593999997E+02  0.45594000000E+02  0.51100000000E-03 0.  1.
         11   -1    0    0    0    0 -0.00000000000E+00 -0.00000000000E+00 -0.45593999997E+02  0.45594000000E+02  0.51100000000E-03 0. -1.
    9900012    2    1    2    0    0  0.34658088120E+02 -0.12691977920E+02  0.25823324580E+02  0.46142317987E+02  0.10000002057E+02 0.  0.
         12    1    1    2    0    0 -0.34658088120E+02  0.12691977920E+02 -0.25823324580E+02  0.45045682013E+02  0.00000000000E+00 0. -1.
         11    1    3    3    0    0  0.45574145533E+00 -0.46523654498E+00  0.86618852383E+00  0.10837103565E+01  0.51100000000E-03 0. -1.
        -11    1    3    3    0    0  0.22219772214E+02 -0.32340741923E+01  0.16400047087E+02  0.27805378218E+02  0.51100000000E-03 0.  1.
        -12    1    3    3    0    0  0.11982574451E+02 -0.89926671825E+01  0.85570889697E+01  0.17253229413E+02  0.00000000000E+00 0.  1.
</event>
<event>
 7    1  0.2312612E-008  0.4614232E+02  0.7816164E-02  0.1320468E+00
        -11   -1    0    0    0    0  0.00000000000E+00  0.00000000000E+00  0.45593999997E+02  0.45594000000E+02  0.51100000000E-03 0.  1.
         11   -1    0    0    0    0 -0.00000000000E+00 -0.00000000000E+00 -0.45593999997E+02  0.45594000000E+02  0.51100000000E-03 0. -1.
    9900012    2    1    2    0    0 -0.21071261113E+02  0.33180778217E+02  0.22003442639E+02  0.46142316789E+02  0.99999911372E+01 0.  0.
         12    1    1    2    0    0  0.21071261113E+02 -0.33180778217E+02 -0.22003442639E+02  0.45045683211E+02  0.00000000000E+00 0. -1.
         11    1    3    3    0    0 -0.26884836708E+01  0.50160073194E+01 -0.24308064391E+00  0.56962586262E+01  0.51100000000E-03 0. -1.
        -11    1    3    3    0    0 -0.11803546985E+02  0.19817092311E+02  0.13886815076E+02  0.26923679212E+02  0.51100000000E-03 0.  1.
         12    1    3    3    0    0 -0.65792304570E+01  0.83476785864E+01  0.83597082070E+01  0.13522378951E+02  0.00000000000E+00 0. -1.
</event>
<event>
 7    1  0.2312612E-008  0.4614232E+02  0.7816164E-02  0.1320468E+00
        -11   -1    0    0    0    0  0.00000000000E+00  0.00000000000E+00  0.45593999997E+02  0.45594000000E+02  0.51100000000E-03 0.  1.
         11   -1    0    0    0    0 -0.00000000000E+00 -0.00000000000E+00 -0.45593999997E+02  0.45594000000E+02  0.51100000000E-03 0. -1.
    9900012    2    1    2    0    0  0.29427729060E+02 -0.33973748321E+02 -0.29843365993E+01  0.46142322321E+02  0.10000041578E+02 0.  0.
         12    1    1    2    0    0 -0.29427729060E+02  0.33973748321E+02  0.29843365993E+01  0.45045677679E+02  0.00000000000E+00 0. -1.
         11    1    3    3    0    0  0.66099682658E+01 -0.71617333688E+01  0.47215395569E+00  0.97573067462E+01  0.51100000000E-03 0. -1.
        -11    1    3    3    0    0  0.21758583832E+02 -0.25238073216E+02 -0.10746039304E+01  0.33339932272E+02  0.51100000000E-03 0.  1.
         12    1    3    3    0    0  0.10591769628E+01 -0.15739417369E+01 -0.23818866245E+01  0.30450833029E+01  0.00000000000E+00 0. -1.
</event>
<event>
 7    1  0.2312612E-008  0.4614232E+02  0.7816164E-02  0.1320468E+00
        -11   -1    0    0    0    0  0.00000000000E+00  0.00000000000E+00  0.45593999997E+02  0.45594000000E+02  0.51100000000E-03 0.  1.
         11   -1    0    0    0    0 -0.00000000000E+00 -0.00000000000E+00 -0.45593999997E+02  0.45594000000E+02  0.51100000000E-03 0. -1.
    9900012    2    1    2    0    0 -0.24336149229E+02 -0.34041126435E+02  0.16675342227E+02  0.46142317780E+02  0.10000000174E+02 0.  0.
         12    1    1    2    0    0  0.24336149229E+02  0.34041126435E+02 -0.16675342227E+02  0.45045682220E+02  0.00000000000E+00 0. -1.
         11    1    3    3    0    0 -0.14161760135E+02 -0.23786881429E+02  0.94846709109E+01  0.29263119464E+02  0.51100000000E-03 0. -1.
        -11    1    3    3    0    0 -0.44205792275E+01 -0.58098078939E+01  0.10759284317E+01  0.73792283284E+01  0.51100000000E-03 0.  1.
         12    1    3    3    0    0 -0.57538098663E+01 -0.44444371124E+01  0.61147428842E+01  0.94999699875E+01  0.00000000000E+00 0. -1.
</event>
<event>
 7    1  0.2312612E-008  0.4614232E+02  0.7816164E-02  0.1320468E+00
        -11   -1    0    0    0    0  0.00000000000E+00  0.00000000000E+00  0.45593999997E+02  0.45594000000E+02  0.51100000000E-03 0.  1.
         11   -1    0    0    0    0 -0.00000000000E+00 -0.00000000000E+00 -0.45593999997E+02  0.45594000000E+02  0.51100000000E-03 0. -1.
    9900012    2    1    2    0    0 -0.32642744980E+02  0.72414326163E+01  0.30184869538E+02  0.46142317685E+02  0.99999993060E+01 0.  0.
         12    1    1    2    0    0  0.32642744980E+02 -0.72414326163E+01 -0.30184869538E+02  0.45045682315E+02  0.00000000000E+00 0. -1.
         11    1    3    3    0    0 -0.25678603780E+02  0.48277633996E+01  0.19296606745E+02  0.32481641332E+02  0.51100000000E-03 0. -1.
        -11    1    3    3    0    0 -0.13500243228E+00 -0.34628686304E-01  0.27687350327E+01  0.27722407445E+01  0.51100000000E-03 0.  1.
        -12    1    3    3    0    0 -0.68291387683E+01  0.24482979030E+01  0.81195277604E+01  0.10888435608E+02  0.00000000000E+00 0.  1.
</event>
<event>
 7    1  0.2312612E-008  0.4614232E+02  0.7816164E-02  0.1320468E+00
        -11   -1    0    0    0    0  0.00000000000E+00  0.00000000000E+00  0.45593999997E+02  0.45594000000E+02  0.51100000000E-03 0.  1.
         11   -1    0    0    0    0 -0.00000000000E+00 -0.00000000000E+00 -0.45593999997E+02  0.45594000000E+02  0.51100000000E-03 0. -1.
    9900012    2    1    2    0    0  0.19743404230E+02 -0.64325793936E+01  0.39974159028E+02  0.46142317874E+02  0.10000001027E+02 0.  0.
         12    1    1    2    0    0 -0.19743404230E+02  0.64325793936E+01 -0.39974159028E+02  0.45045682126E+02  0.00000000000E+00 0. -1.
         11    1    3    3    0    0  0.71086386362E+01  0.99393029892E+00  0.19258625390E+02  0.20552744169E+02  0.51100000000E-03 0. -1.
        -11    1    3    3    0    0  0.46255913458E+01 -0.11467349338E+01  0.78758272114E+01  0.92054196445E+01  0.51100000000E-03 0.  1.
        -12    1    3    3    0    0  0.80091742484E+01 -0.62797747587E+01  0.12839706426E+02  0.16384154060E+02  0.00000000000E+00 0.  1.
</event>
<event>
 7    1  0.2312612E-008  0.4614232E+02  0.7816164E-02  0.1320468E+00
        -11   -1    0    0    0    0  0.00000000000E+00  0.00000000000E+00  0.45593999997E+02  0.45594000000E+02  0.51100000000E-03 0.  1.
         11   -1    0    0    0    0 -0.00000000000E+00 -0.00000000000E+00 -0.45593999997E+02  0.45594000000E+02  0.51100000000E-03 0. -1.
    9900012    2    1    2    0    0  0.16632235612E+02  0.30402822712E+02  0.28777606259E+02  0.46142317496E+02  0.99999975793E+01 0.  0.
         12    1    1    2    0    0 -0.16632235612E+02 -0.30402822712E+02 -0.28777606259E+02  0.45045682504E+02  0.00000000000E+00 0. -1.
         11    1    3    3    0    0  0.37488081126E+01  0.98774961747E+01  0.10880825230E+02  0.15166108627E+02  0.51100000000E-03 0. -1.
        -11    1    3    3    0    0  0.13177098089E+02  0.17466835216E+02  0.13849216809E+02  0.25894537127E+02  0.51100000000E-03 0.  1.
        -12    1    3    3    0    0 -0.29367058988E+00  0.30584913206E+01  0.40475642203E+01  0.50816717418E+01  0.00000000000E+00 0.  1.
</event>
<event>
 7    1  0.2312612E-008  0.4614232E+02  0.7816164E-02  0.1320468E+00
        -11   -1    0    0    0    0  0.00000000000E+00  0.00000000000E+00  0.45593999997E+02  0.45594000000E+02  0.51100000000E-03 0.  1.
         11   -1    0    0    0    0 -0.00000000000E+00 -0.00000000000E+00 -0.45593999997E+02  0.45594000000E+02  0.51100000000E-03 0. -1.
    9900012    2    1    2    0    0 -0.13865607484E+01 -0.23704638676E+02  0.38278989895E+02  0.46142317489E+02  0.99999975193E+01 0.  0.
         12    1    1    2    0    0  0.13865607484E+01  0.23704638676E+02 -0.38278989895E+02  0.45045682511E+02  0.00000000000E+00 0. -1.
         11    1    3    3    0    0  0.60631655755E+00 -0.17425041868E+02  0.20658293730E+02  0.27032661799E+02  0.51100000000E-03 0. -1.
        -11    1    3    3    0    0 -0.11996630348E+01 -0.52752936689E+01  0.98829663488E+01  0.11266806948E+02  0.51100000000E-03 0.  1.
         12    1    3    3    0    0 -0.79321427110E+00 -0.10043031398E+01  0.77377298164E+01  0.78428487419E+01  0.00000000000E+00 0. -1.
</event>
<event>
 7    1  0.2312612E-008  0.4614232E+02  0.7816164E-02  0.1320468E+00
        -11   -1    0    0    0    0  0.00000000000E+00  0.00000000000E+00  0.45593999997E+02  0.45594000000E+02  0.51100000000E-03 0.  1.
         11   -1    0    0    0    0 -0.00000000000E+00 -0.00000000000E+00 -0.45593999997E+02  0.45594000000E+02  0.51100000000E-03 0. -1.
    9900012    2    1    2    0    0  0.63471361421E+01 -0.39741882911E+02  0.20233882316E+02  0.46142318874E+02  0.10000010147E+02 0.  0.
         12    1    1    2    0    0 -0.63471361421E+01  0.39741882911E+02 -0.20233882316E+02  0.45045681126E+02  0.00000000000E+00 0. -1.
         11    1    3    3    0    0 -0.18802126649E+01 -0.42453895918E+01  0.26324828916E+01  0.53374618394E+01  0.51100000000E-03 0. -1.
        -11    1    3    3    0    0  0.45218256730E+01 -0.22061655829E+02  0.13587793914E+02  0.26301933561E+02  0.51100000000E-03 0.  1.
        -12    1    3    3    0    0  0.37055231340E+01 -0.13434837490E+02  0.40136055109E+01  0.14502923474E+02  0.00000000000E+00 0.  1.
</event>
<event>
 7    1  0.2312612E-008  0.4614232E+02  0.7816164E-02  0.1320468E+00
        -11   -1    0    0    0    0  0.00000000000E+00  0.00000000000E+00  0.45593999997E+02  0.45594000000E+02  0.51100000000E-03 0.  1.
         11   -1    0    0    0    0 -0.00000000000E+00 -0.00000000000E+00 -0.45593999997E+02  0.45594000000E+02  0.51100000000E-03 0. -1.
    9900012    2    1    2    0    0  0.14122206208E+02 -0.16186091792E+02  0.39594022656E+02  0.46142324228E+02  0.10000058968E+02 0.  0.
         12    1    1    2    0    0 -0.14122206208E+02  0.16186091792E+02 -0.39594022656E+02  0.45045675772E+02  0.00000000000E+00 0. -1.
         11    1    3    3    0    0  0.28917490935E+01 -0.18029820399E+01  0.25184426151E+01  0.42373943082E+01  0.51100000000E-03 0. -1.
        -11    1    3    3    0    0  0.10065950512E+02 -0.14335453644E+02  0.30044224133E+02  0.34777636419E+02  0.51100000000E-03 0.  1.
        -12    1    3    3    0    0  0.11645066018E+01 -0.47656107540E-01  0.70313559083E+01  0.71272935003E+01  0.00000000000E+00 0.  1.
</event>
<event>
 7    1  0.2312612E-008  0.4614232E+02  0.7816164E-02  0.1320468E+00
        -11   -1    0    0    0    0  0.00000000000E+00  0.00000000000E+00  0.45593999997E+02  0.45594000000E+02  0.51100000000E-03 0.  1.
         11   -1    0    0    0    0 -0.00000000000E+00 -0.00000000000E+00 -0.45593999997E+02  0.45594000000E+02  0.51100000000E-03 0. -1.
    9900012    2    1    2    0    0  0.14084768513E+02  0.33252149468E+02  0.26926331784E+02  0.46142317725E+02  0.99999996706E+01 0.  0.
         12    1    1    2    0    0 -0.14084768513E+02 -0.33252149468E+02 -0.26926331784E+02  0.45045682275E+02  0.00000000000E+00 0. -1.
         11    1    3    3    0    0  0.99960832115E+01  0.18248530165E+02  0.19527172145E+02  0.28534908183E+02  0.51100000000E-03 0. -1.
        -11    1    3    3    0    0  0.35724237128E+01  0.96613770171E+01  0.64598531826E+01  0.12158705542E+02  0.51100000000E-03 0.  1.
         12    1    3    3    0    0  0.51626158854E+00  0.53422422856E+01  0.93930645640E+00  0.54487040005E+01  0.00000000000E+00 0. -1.
</event>
<event>
 7    1  0.2312612E-008  0.4614232E+02  0.7816164E-02  0.1320468E+00
        -11   -1    0    0    0    0  0.00000000000E+00  0.00000000000E+00  0.45593999997E+02  0.45594000000E+02  0.51100000000E-03 0.  1.
         11   -1    0    0    0    0 -0.00000000000E+00 -0.00000000000E+00 -0.45593999997E+02  0.45594000000E+02  0.51100000000E-03 0. -1.
    9900012    2    1    2    0    0  0.21906695375E+01 -0.11378256229E+02  0.43529872005E+02  0.46142317581E+02  0.99999983561E+01 0.  0.
         12    1    1    2    0    0 -0.21906695375E+01  0.11378256229E+02 -0.43529872005E+02  0.45045682419E+02  0.00000000000E+00 0. -1.
         11    1    3    3    0    0  0.65300171801E-01 -0.70084188035E+01  0.27006025086E+02  0.27900673637E+02  0.51100000000E-03 0. -1.
        -11    1    3    3    0    0  0.16492121325E+01 -0.14617500641E+01  0.14500630340E+02  0.14667136545E+02  0.51100000000E-03 0.  1.
         12    1    3    3    0    0  0.47615723326E+00 -0.29080873617E+01  0.20232165790E+01  0.35745073982E+01  0.00000000000E+00 0. -1.
</event>
<event>
 7    1  0.2312612E-008  0.4614232E+02  0.7816164E-02  0.1320468E+00
        -11   -1    0    0    0    0  0.00000000000E+00  0.00000000000E+00  0.45593999997E+02  0.45594000000E+02  0.51100000000E-03 0. -1.
         11   -1    0    0    0    0 -0.00000000000E+00 -0.00000000000E+00 -0.45593999997E+02  0.45594000000E+02  0.51100000000E-03 0.  1.
    9900012    2    1    2    0    0 -0.14207021790E+02 -0.31487971833E+02 -0.28909887424E+02  0.46142318418E+02  0.10000005994E+02 0.  0.
         12    1    1    2    0    0  0.14207021790E+02  0.31487971833E+02  0.28909887424E+02  0.45045681582E+02  0.00000000000E+00 0. -1.
         11    1    3    3    0    0 -0.29329481645E+01 -0.85372470092E+01 -0.68995811378E+01  0.11361821666E+02  0.51100000000E-03 0. -1.
        -11    1    3    3    0    0 -0.94440811419E+01 -0.16225205659E+02 -0.11027805480E+02  0.21772929552E+02  0.51100000000E-03 0.  1.
         12    1    3    3    0    0 -0.18299924836E+01 -0.67255191642E+01 -0.10982500806E+02  0.13007567201E+02  0.00000000000E+00 0. -1.
</event>
<event>
 7    1  0.2312612E-008  0.4614232E+02  0.7816164E-02  0.1320468E+00
        -11   -1    0    0    0    0  0.00000000000E+00  0.00000000000E+00  0.45593999997E+02  0.45594000000E+02  0.51100000000E-03 0. -1.
         11   -1    0    0    0    0 -0.00000000000E+00 -0.00000000000E+00 -0.45593999997E+02  0.45594000000E+02  0.51100000000E-03 0.  1.
    9900012    2    1    2    0    0 -0.11060401462E+02  0.28480147468E+02 -0.33100788390E+02  0.46142317939E+02  0.10000001619E+02 0.  0.
         12    1    1    2    0    0  0.11060401462E+02 -0.28480147468E+02  0.33100788390E+02  0.45045682061E+02  0.00000000000E+00 0. -1.
         11    1    3    3    0    0  0.17187215979E+01  0.35986129246E+01 -0.46537551132E+01  0.61287401500E+01  0.51100000000E-03 0. -1.
        -11    1    3    3    0    0 -0.35812738478E+01  0.98394912086E+01 -0.11608845692E+02  0.15633502748E+02  0.51100000000E-03 0.  1.
         12    1    3    3    0    0 -0.91978492124E+01  0.15042043335E+02 -0.16838187585E+02  0.24380075041E+02  0.00000000000E+00 0. -1.
</event>
<event>
 7    1  0.2312612E-008  0.4614232E+02  0.7816164E-02  0.1320468E+00
        -11   -1    0    0    0    0  0.00000000000E+00  0.00000000000E+00  0.45593999997E+02  0.45594000000E+02  0.51100000000E-03 0.  1.
         11   -1    0    0    0    0 -0.00000000000E+00 -0.00000000000E+00 -0.45593999997E+02  0.45594000000E+02  0.51100000000E-03 0. -1.
    9900012    2    1    2    0    0 -0.29668687113E+02  0.45731695843E+01  0.33585244909E+02  0.46142317070E+02  0.99999936959E+01 0.  0.
         12    1    1    2    0    0  0.29668687113E+02 -0.45731695843E+01 -0.33585244909E+02  0.45045682930E+02  0.00000000000E+00 0. -1.
         11    1    3    3    0    0 -0.37648934602E+01  0.28082718903E+01  0.66126998657E+01  0.81110180342E+01  0.51100000000E-03 0. -1.
        -11    1    3    3    0    0 -0.44040660537E+01  0.84123442204E+00  0.15971548472E+01  0.47596614401E+01  0.51100000000E-03 0.  1.
         12    1    3    3    0    0 -0.21499727599E+02  0.92366327198E+00  0.25375390196E+02  0.33271637595E+02  0.00000000000E+00 0. -1.
</event>
<event>
 7    1  0.2312612E-008  0.4614232E+02  0.7816164E-02  0.1320468E+00
        -11   -1    0    0    0    0  0.00000000000E+00  0.00000000000E+00  0.45593999997E+02  0.45594000000E+02  0.51100000000E-03 0.  1.
         11   -1    0    0    0    0 -0.00000000000E+00 -0.00000000000E+00 -0.45593999997E+02  0.45594000000E+02  0.51100000000E-03 0. -1.
    9900012    2    1    2    0    0 -0.13733371421E+02 -0.30769971168E+02  0.29895096623E+02  0.46142318538E+02  0.10000007083E+02 0.  0.
         12    1    1    2    0    0  0.13733371421E+02  0.30769971168E+02 -0.29895096623E+02  0.45045681462E+02  0.00000000000E+00 0. -1.
         11    1    3    3    0    0 -0.64252407556E+01 -0.93626075074E+01  0.11349610140E+02  0.16054774639E+02  0.51100000000E-03 0. -1.
        -11    1    3    3    0    0  0.10863226915E+01 -0.41161210201E+01  0.19046740818E+01  0.46637252128E+01  0.51100000000E-03 0.  1.
         12    1    3    3    0    0 -0.83944533573E+01 -0.17291242641E+02  0.16640812401E+02  0.25423818686E+02  0.00000000000E+00 0. -1.
</event>
<event>
 7    1  0.2312612E-008  0.4614232E+02  0.7816164E-02  0.1320468E+00
        -11   -1    0    0    0    0  0.00000000000E+00  0.00000000000E+00  0.45593999997E+02  0.45594000000E+02  0.51100000000E-03 0.  1.
         11   -1    0    0    0    0 -0.00000000000E+00 -0.00000000000E+00 -0.45593999997E+02  0.45594000000E+02  0.51100000000E-03 0. -1.
    9900012    2    1    2    0    0  0.14427166999E+02  0.19628990590E+02  0.37890276037E+02  0.46142318327E+02  0.10000005161E+02 0.  0.
         12    1    1    2    0    0 -0.14427166999E+02 -0.19628990590E+02 -0.37890276037E+02  0.45045681673E+02  0.00000000000E+00 0. -1.
         11    1    3    3    0    0  0.17836224215E+01  0.80897339161E+00  0.99701205209E+00  0.21976760872E+01  0.51100000000E-03 0. -1.
        -11    1    3    3    0    0  0.98148473470E+01  0.17898152874E+02  0.28627542506E+02  0.35159796572E+02  0.51100000000E-03 0.  1.
         12    1    3    3    0    0  0.28286972310E+01  0.92186432495E+00  0.82657214785E+01  0.87848456684E+01  0.00000000000E+00 0. -1.
</event>
<event>
 7    1  0.2312612E-008  0.4614232E+02  0.7816164E-02  0.1320468E+00
        -11   -1    0    0    0    0  0.00000000000E+00  0.00000000000E+00  0.45593999997E+02  0.45594000000E+02  0.51100000000E-03 0.  1.
         11   -1    0    0    0    0 -0.00000000000E+00 -0.00000000000E+00 -0.45593999997E+02  0.45594000000E+02  0.51100000000E-03 0. -1.
    9900012    2    1    2    0    0  0.21907105271E+02 -0.14818889157E+02  0.36463578749E+02  0.46142319714E+02  0.10000017808E+02 0.  0.
         12    1    1    2    0    0 -0.21907105271E+02  0.14818889157E+02 -0.36463578749E+02  0.45045680286E+02  0.00000000000E+00 0. -1.
         11    1    3    3    0    0  0.52140127615E+01 -0.14357818881E+01  0.31236913925E+01  0.62453860476E+01  0.51100000000E-03 0. -1.
        -11    1    3    3    0    0  0.15497642880E+02 -0.12866804661E+02  0.28599154660E+02  0.34980612410E+02  0.51100000000E-03 0.  1.
        -12    1    3    3    0    0  0.11954496300E+01 -0.51630260879E+00  0.47407326963E+01  0.49163212568E+01  0.00000000000E+00 0.  1.
</event>
<event>
 7    1  0.2312612E-008  0.4614232E+02  0.7816164E-02  0.1320468E+00
        -11   -1    0    0    0    0  0.00000000000E+00  0.00000000000E+00  0.45593999997E+02  0.45594000000E+02  0.51100000000E-03 0.  1.
         11   -1    0    0    0    0 -0.00000000000E+00 -0.00000000000E+00 -0.45593999997E+02  0.45594000000E+02  0.51100000000E-03 0. -1.
    9900012    2    1    2    0    0 -0.11766598880E+02 -0.29690727549E+02  0.31766669723E+02  0.46142318111E+02  0.10000003192E+02 0.  0.
         12    1    1    2    0    0  0.11766598880E+02  0.29690727549E+02 -0.31766669723E+02  0.45045681889E+02  0.00000000000E+00 0. -1.
         11    1    3    3    0    0 -0.70087909688E+01 -0.11336702339E+02  0.17863038828E+02  0.22287488132E+02  0.51100000000E-03 0. -1.
        -11    1    3    3    0    0 -0.53696965557E+01 -0.16231889893E+02  0.12956237643E+02  0.21451619629E+02  0.51100000000E-03 0.  1.
        -12    1    3    3    0    0  0.61188864467E+00 -0.21221353167E+01  0.94739325113E+00  0.24032103504E+01  0.00000000000E+00 0.  1.
</event>
<event>
 7    1  0.2312612E-008  0.4614232E+02  0.7816164E-02  0.1320468E+00
        -11   -1    0    0    0    0  0.00000000000E+00  0.00000000000E+00  0.45593999997E+02  0.45594000000E+02  0.51100000000E-03 0.  1.
         11   -1    0    0    0    0 -0.00000000000E+00 -0.00000000000E+00 -0.45593999997E+02  0.45594000000E+02  0.51100000000E-03 0. -1.
    9900012    2    1    2    0    0 -0.31420796265E+02 -0.25147281127E+02  0.20235151649E+02  0.46142317096E+02  0.99999939388E+01 0.  0.
         12    1    1    2    0    0  0.31420796265E+02  0.25147281127E+02 -0.20235151649E+02  0.45045682904E+02  0.00000000000E+00 0. -1.
         11    1    3    3    0    0 -0.41704064911E+01 -0.35530305789E+01  0.54127273481E+01  0.77015540121E+01  0.51100000000E-03 0. -1.
        -11    1    3    3    0    0 -0.19823446974E+02 -0.17981577460E+02  0.13819308090E+02  0.30121079898E+02  0.51100000000E-03 0.  1.
         12    1    3    3    0    0 -0.74269427990E+01 -0.36126730878E+01  0.10031162115E+01  0.83196831859E+01  0.00000000000E+00 0. -1.
</event>
<event>
 7    1  0.2312612E-008  0.4614232E+02  0.7816164E-02  0.1320468E+00
        -11   -1    0    0    0    0  0.00000000000E+00  0.00000000000E+00  0.45593999997E+02  0.45594000000E+02  0.51100000000E-03 0.  1.
         11   -1    0    0    0    0 -0.00000000000E+00 -0.00000000000E+00 -0.45593999997E+02  0.45594000000E+02  0.51100000000E-03 0. -1.
    9900012    2    1    2    0    0 -0.28929575698E+01 -0.27226200819E+01  0.44870164570E+02  0.46142317275E+02  0.99999955703E+01 0.  0.
         12    1    1    2    0    0  0.28929575698E+01  0.27226200819E+01 -0.44870164570E+02  0.45045682725E+02  0.00000000000E+00 0. -1.
         11    1    3    3    0    0  0.12776872624E+01 -0.35863475775E+01  0.21438551330E+02  0.21773972010E+02  0.51100000000E-03 0. -1.
        -11    1    3    3    0    0 -0.41185725912E+01 -0.13507527328E+01  0.17715613843E+02  0.18238150872E+02  0.51100000000E-03 0.  1.
         12    1    3    3    0    0 -0.52072240948E-01  0.22144802284E+01  0.57159993965E+01  0.61301943934E+01  0.00000000000E+00 0. -1.
</event>
<event>
 7    1  0.2312612E-008  0.4614232E+02  0.7816164E-02  0.1320468E+00
        -11   -1    0    0    0    0  0.00000000000E+00  0.00000000000E+00  0.45593999997E+02  0.45594000000E+02  0.51100000000E-03 0. -1.
         11   -1    0    0    0    0 -0.00000000000E+00 -0.00000000000E+00 -0.45593999997E+02  0.45594000000E+02  0.51100000000E-03 0.  1.
    9900012    2    1    2    0    0 -0.29826252754E+02 -0.19574931698E+02 -0.27501457548E+02  0.46142317947E+02  0.10000001694E+02 0.  0.
         12    1    1    2    0    0  0.29826252754E+02  0.19574931698E+02  0.27501457548E+02  0.45045682053E+02  0.00000000000E+00 0. -1.
         11    1    3    3    0    0 -0.40724439789E+01 -0.13191613088E+01 -0.27740692707E+01  0.51010241226E+01  0.51100000000E-03 0. -1.
        -11    1    3    3    0    0 -0.12750176709E+02 -0.84124824841E+01 -0.17423536309E+02  0.23171458422E+02  0.51100000000E-03 0.  1.
         12    1    3    3    0    0 -0.13003632067E+02 -0.98432879055E+01 -0.73038519688E+01  0.17869835402E+02  0.00000000000E+00 0. -1.
</event>
<event>
 7    1  0.2312612E-008  0.4614233E+02  0.7816164E-02  0.1320468E+00
        -11   -1    0    0    0    0  0.00000000000E+00  0.00000000000E+00  0.45593999997E+02  0.45594000000E+02  0.51100000000E-03 0.  1.
         11   -1    0    0    0    0 -0.00000000000E+00 -0.00000000000E+00 -0.45593999997E+02  0.45594000000E+02  0.51100000000E-03 0. -1.
    9900012    2    1    2    0    0  0.25040841196E+02  0.14995783041E+02  0.34310279216E+02  0.46142328768E+02  0.10000100371E+02 0.  0.
         12    1    1    2    0    0 -0.25040841196E+02 -0.14995783041E+02 -0.34310279216E+02  0.45045671232E+02  0.00000000000E+00 0. -1.
         11    1    3    3    0    0  0.87392371147E+01  0.66313823933E+01  0.11220517672E+02  0.15692339370E+02  0.51100000000E-03 0. -1.
        -11    1    3    3    0    0  0.36774521085E+01  0.49719509503E+01  0.11128530067E+02  0.12731383741E+02  0.51100000000E-03 0.  1.
         12    1    3    3    0    0  0.12624151973E+02  0.33924496975E+01  0.11961231477E+02  0.17718605657E+02  0.00000000000E+00 0. -1.
</event>
<event>
 7    1  0.2312612E-008  0.4614233E+02  0.7816164E-02  0.1320468E+00
        -11   -1    0    0    0    0  0.00000000000E+00  0.00000000000E+00  0.45593999997E+02  0.45594000000E+02  0.51100000000E-03 0. -1.
         11   -1    0    0    0    0 -0.00000000000E+00 -0.00000000000E+00 -0.45593999997E+02  0.45594000000E+02  0.51100000000E-03 0.  1.
    9900012    2    1    2    0    0 -0.34373614458E+02 -0.23745579642E+02 -0.16843827016E+02  0.46142329487E+02  0.10000106927E+02 0.  0.
         12    1    1    2    0    0  0.34373614458E+02  0.23745579642E+02  0.16843827016E+02  0.45045670513E+02  0.00000000000E+00 0. -1.
         11    1    3    3    0    0 -0.17391755484E+01  0.17398242486E+00  0.36940872221E+00  0.17864670546E+01  0.51100000000E-03 0. -1.
        -11    1    3    3    0    0 -0.27895582179E+01 -0.44921888824E+00 -0.19584248622E+01  0.34378570160E+01  0.51100000000E-03 0.  1.
        -12    1    3    3    0    0 -0.29844880691E+02 -0.23470343179E+02 -0.15254810876E+02  0.40918005416E+02  0.00000000000E+00 0.  1.
</event>
<event>
 7    1  0.2312612E-008  0.4614232E+02  0.7816164E-02  0.1320468E+00
        -11   -1    0    0    0    0  0.00000000000E+00  0.00000000000E+00  0.45593999997E+02  0.45594000000E+02  0.51100000000E-03 0.  1.
         11   -1    0    0    0    0 -0.00000000000E+00 -0.00000000000E+00 -0.45593999997E+02  0.45594000000E+02  0.51100000000E-03 0. -1.
    9900012    2    1    2    0    0  0.46652093909E+01  0.44788252559E+02 -0.11668932797E+01  0.46142318899E+02  0.10000010377E+02 0.  0.
         12    1    1    2    0    0 -0.46652093909E+01 -0.44788252559E+02  0.11668932797E+01  0.45045681101E+02  0.00000000000E+00 0. -1.
         11    1    3    3    0    0  0.34966066964E+01  0.14734108522E+02  0.80377652654E+00  0.15164638779E+02  0.51100000000E-03 0. -1.
        -11    1    3    3    0    0  0.39565227750E+01  0.22093777390E+02 -0.20904203236E+01  0.22542380735E+02  0.51100000000E-03 0.  1.
        -12    1    3    3    0    0 -0.27879200806E+01  0.79603666468E+01  0.11975051743E+00  0.84352993850E+01  0.00000000000E+00 0.  1.
</event>
<event>
 7    1  0.2312612E-008  0.4614232E+02  0.7816164E-02  0.1320468E+00
        -11   -1    0    0    0    0  0.00000000000E+00  0.00000000000E+00  0.45593999997E+02  0.45594000000E+02  0.51100000000E-03 0.  1.
         11   -1    0    0    0    0 -0.00000000000E+00 -0.00000000000E+00 -0.45593999997E+02  0.45594000000E+02  0.51100000000E-03 0. -1.
    9900012    2    1    2    0    0 -0.22464645893E+02  0.71525349882E+01  0.38383516424E+02  0.46142318687E+02  0.10000008446E+02 0.  0.
         12    1    1    2    0    0  0.22464645893E+02 -0.71525349882E+01 -0.38383516424E+02  0.45045681313E+02  0.00000000000E+00 0. -1.
         11    1    3    3    0    0  0.84465507848E-01  0.19252820141E+01  0.31866345362E+01  0.37240415121E+01  0.51100000000E-03 0. -1.
        -11    1    3    3    0    0 -0.14365359039E+02  0.84446709673E+00  0.21589059219E+02  0.25945406977E+02  0.51100000000E-03 0.  1.
        -12    1    3    3    0    0 -0.81837523617E+01  0.43827858774E+01  0.13607822669E+02  0.16472870198E+02  0.00000000000E+00 0.  1.
</event>
<event>
 7    1  0.2312612E-008  0.4614232E+02  0.7816164E-02  0.1320468E+00
        -11   -1    0    0    0    0  0.00000000000E+00  0.00000000000E+00  0.45593999997E+02  0.45594000000E+02  0.51100000000E-03 0.  1.
         11   -1    0    0    0    0 -0.00000000000E+00 -0.00000000000E+00 -0.45593999997E+02  0.45594000000E+02  0.51100000000E-03 0. -1.
    9900012    2    1    2    0    0  0.19088766936E+02  0.17949049326E+02  0.36641017636E+02  0.46142316875E+02  0.99999919209E+01 0.  0.
         12    1    1    2    0    0 -0.19088766936E+02 -0.17949049326E+02 -0.36641017636E+02  0.45045683125E+02  0.00000000000E+00 0. -1.
         11    1    3    3    0    0  0.21468124490E+01  0.29926193780E+01  0.15559423487E+01  0.39981910018E+01  0.51100000000E-03 0. -1.
        -11    1    3    3    0    0  0.40482324105E+01  0.72591675358E+00  0.70748808514E+01  0.81834638207E+01  0.51100000000E-03 0.  1.
        -12    1    3    3    0    0  0.12893722076E+02  0.14230513194E+02  0.28010194435E+02  0.33960662053E+02  0.00000000000E+00 0.  1.
</event>
<event>
 7    1  0.2312612E-008  0.4614232E+02  0.7816164E-02  0.1320468E+00
        -11   -1    0    0    0    0  0.00000000000E+00  0.00000000000E+00  0.45593999997E+02  0.45594000000E+02  0.51100000000E-03 0.  1.
         11   -1    0    0    0    0 -0.00000000000E+00 -0.00000000000E+00 -0.45593999997E+02  0.45594000000E+02  0.51100000000E-03 0. -1.
    9900012    2    1    2    0    0 -0.27716683598E+02 -0.17748107176E+02  0.30755541052E+02  0.46142321369E+02  0.10000032897E+02 0.  0.
         12    1    1    2    0    0  0.27716683598E+02  0.17748107176E+02 -0.30755541052E+02  0.45045678631E+02  0.00000000000E+00 0. -1.
         11    1    3    3    0    0 -0.58175589452E+01 -0.36658513763E+01  0.31926236393E+01  0.75812468867E+01  0.51100000000E-03 0.  1.
        -11    1    3    3    0    0 -0.10938505017E+02 -0.90358015712E+01  0.19227350926E+02  0.23895347370E+02  0.51100000000E-03 0. -1.
         12    1    3    3    0    0 -0.10960619636E+02 -0.50464542286E+01  0.83355664860E+01  0.14665727112E+02  0.00000000000E+00 0. -1.
</event>
<event>
 7    1  0.2312612E-008  0.4614232E+02  0.7816164E-02  0.1320468E+00
        -11   -1    0    0    0    0  0.00000000000E+00  0.00000000000E+00  0.45593999997E+02  0.45594000000E+02  0.51100000000E-03 0.  1.
         11   -1    0    0    0    0 -0.00000000000E+00 -0.00000000000E+00 -0.45593999997E+02  0.45594000000E+02  0.51100000000E-03 0. -1.
    9900012    2    1    2    0    0 -0.16011019552E+02 -0.74353571512E+01  0.41442444150E+02  0.46142318074E+02  0.10000002854E+02 0.  0.
         12    1    1    2    0    0  0.16011019552E+02  0.74353571512E+01 -0.41442444150E+02  0.45045681926E+02  0.00000000000E+00 0. -1.
         11    1    3    3    0    0 -0.12949537056E+02 -0.69976010024E+01  0.35875324058E+02  0.38777516763E+02  0.51100000000E-03 0. -1.
        -11    1    3    3    0    0 -0.38449312862E+01 -0.72226379376E+00  0.50337365780E+01  0.63752384882E+01  0.51100000000E-03 0.  1.
         12    1    3    3    0    0  0.78344879081E+00  0.28450764494E+00  0.53338351375E+00  0.98956282297E+00  0.00000000000E+00 0. -1.
</event>
<event>
 7    1  0.2312612E-008  0.4614232E+02  0.7816164E-02  0.1320468E+00
        -11   -1    0    0    0    0  0.00000000000E+00  0.00000000000E+00  0.45593999997E+02  0.45594000000E+02  0.51100000000E-03 0. -1.
         11   -1    0    0    0    0 -0.00000000000E+00 -0.00000000000E+00 -0.45593999997E+02  0.45594000000E+02  0.51100000000E-03 0.  1.
    9900012    2    1    2    0    0 -0.64300657057E+01 -0.39668659466E+02 -0.20351049244E+02  0.46142317697E+02  0.99999994121E+01 0.  0.
         12    1    1    2    0    0  0.64300657057E+01  0.39668659466E+02  0.20351049244E+02  0.45045682303E+02  0.00000000000E+00 0. -1.
         11    1    3    3    0    0 -0.60110705567E+01 -0.21707441148E+02 -0.10344215649E+02  0.24786059955E+02  0.51100000000E-03 0. -1.
        -11    1    3    3    0    0 -0.27955885909E+01 -0.13748398258E+02 -0.74565754073E+01  0.15888180742E+02  0.51100000000E-03 0.  1.
         12    1    3    3    0    0  0.23765934418E+01 -0.42128200603E+01 -0.25502581883E+01  0.54680769997E+01  0.00000000000E+00 0. -1.
</event>
<event>
 7    1  0.2312612E-008  0.4614232E+02  0.7816164E-02  0.1320468E+00
        -11   -1    0    0    0    0  0.00000000000E+00  0.00000000000E+00  0.45593999997E+02  0.45594000000E+02  0.51100000000E-03 0. -1.
         11   -1    0    0    0    0 -0.00000000000E+00 -0.00000000000E+00 -0.45593999997E+02  0.45594000000E+02  0.51100000000E-03 0.  1.
    9900012    2    1    2    0    0 -0.95035848180E+01 -0.34173232325E+02 -0.27766626757E+02  0.46142317705E+02  0.99999994873E+01 0.  0.
         12    1    1    2    0    0  0.95035848180E+01  0.34173232325E+02  0.27766626757E+02  0.45045682295E+02  0.00000000000E+00 0. -1.
         11    1    3    3    0    0 -0.15360944729E+01 -0.11054207876E+02 -0.72252846223E+01  0.13295105721E+02  0.51100000000E-03 0. -1.
        -11    1    3    3    0    0 -0.76136190388E+01 -0.21219454756E+02 -0.15259089865E+02  0.27222642758E+02  0.51100000000E-03 0.  1.
        -12    1    3    3    0    0 -0.35387130624E+00 -0.18995696933E+01 -0.52822522706E+01  0.56245692254E+01  0.00000000000E+00 0.  1.
</event>
<event>
 7    1  0.2312612E-008  0.4614232E+02  0.7816164E-02  0.1320468E+00
        -11   -1    0    0    0    0  0.00000000000E+00  0.00000000000E+00  0.45593999997E+02  0.45594000000E+02  0.51100000000E-03 0.  1.
         11   -1    0    0    0    0 -0.00000000000E+00 -0.00000000000E+00 -0.45593999997E+02  0.45594000000E+02  0.51100000000E-03 0. -1.
    9900012    2    1    2    0    0  0.11791064691E+02  0.43474866805E+02  0.14179185561E+00  0.46142319240E+02  0.10000013483E+02 0.  0.
         12    1    1    2    0    0 -0.11791064691E+02 -0.43474866805E+02 -0.14179185561E+00  0.45045680760E+02  0.00000000000E+00 0. -1.
         11    1    3    3    0    0  0.12422928045E+01  0.55799449649E+00 -0.30607085986E+00  0.13958255273E+01  0.51100000000E-03 0. -1.
        -11    1    3    3    0    0  0.15452299296E+01  0.85949033048E+01  0.28394538327E+01  0.91827336171E+01  0.51100000000E-03 0.  1.
        -12    1    3    3    0    0  0.90035419569E+01  0.34321969003E+02 -0.23915911173E+01  0.35563760095E+02  0.00000000000E+00 0.  1.
</event>
<event>
 7    1  0.2312612E-008  0.4614232E+02  0.7816164E-02  0.1320468E+00
        -11   -1    0    0    0    0  0.00000000000E+00  0.00000000000E+00  0.45593999997E+02  0.45594000000E+02  0.51100000000E-03 0.  1.
         11   -1    0    0    0    0 -0.00000000000E+00 -0.00000000000E+00 -0.45593999997E+02  0.45594000000E+02  0.51100000000E-03 0. -1.
    9900012    2    1    2    0    0  0.16141569713E+02 -0.38757575230E+02  0.16322179518E+02  0.46142318135E+02  0.10000003407E+02 0.  0.
         12    1    1    2    0    0 -0.16141569713E+02  0.38757575230E+02 -0.16322179518E+02  0.45045681865E+02  0.00000000000E+00 0. -1.
         11    1    3    3    0    0  0.50935629669E+01 -0.68623643840E+01  0.58044860564E+01  0.10330948034E+02  0.51100000000E-03 0. -1.
        -11    1    3    3    0    0  0.95055537601E+01 -0.19480156510E+02  0.75582482954E+01  0.22955591203E+02  0.51100000000E-03 0.  1.
         12    1    3    3    0    0  0.15424529859E+01 -0.12415054336E+02  0.29594451663E+01  0.12855778898E+02  0.00000000000E+00 0. -1.
</event>
<event>
 7    1  0.2312612E-008  0.4614232E+02  0.7816164E-02  0.1320468E+00
        -11   -1    0    0    0    0  0.00000000000E+00  0.00000000000E+00  0.45593999997E+02  0.45594000000E+02  0.51100000000E-03 0.  1.
         11   -1    0    0    0    0 -0.00000000000E+00 -0.00000000000E+00 -0.45593999997E+02  0.45594000000E+02  0.51100000000E-03 0. -1.
    9900012    2    1    2    0    0 -0.80608577091E+01  0.26784506465E+02  0.35309011595E+02  0.46142317484E+02  0.99999974694E+01 0.  0.
         12    1    1    2    0    0  0.80608577091E+01 -0.26784506465E+02 -0.35309011595E+02  0.45045682516E+02  0.00000000000E+00 0. -1.
         11    1    3    3    0    0 -0.34950097306E+01  0.50051404556E+01  0.71427314324E+01  0.93960170591E+01  0.51100000000E-03 0.  1.
        -11    1    3    3    0    0 -0.40202614349E+01  0.89188684463E+01  0.17415589101E+02  0.19975271221E+02  0.51100000000E-03 0. -1.
        -12    1    3    3    0    0 -0.54558654355E+00  0.12860497563E+02  0.10750691061E+02  0.16771029203E+02  0.00000000000E+00 0.  1.
</event>
<event>
 7    1  0.2312612E-008  0.4614232E+02  0.7816164E-02  0.1320468E+00
        -11   -1    0    0    0    0  0.00000000000E+00  0.00000000000E+00  0.45593999997E+02  0.45594000000E+02  0.51100000000E-03 0.  1.
         11   -1    0    0    0    0 -0.00000000000E+00 -0.00000000000E+00 -0.45593999997E+02  0.45594000000E+02  0.51100000000E-03 0. -1.
    9900012    2    1    2    0    0  0.84929665259E+01  0.29477122675E+02  0.32986090678E+02  0.46142318522E+02  0.10000006936E+02 0.  0.
         12    1    1    2    0    0 -0.84929665259E+01 -0.29477122675E+02 -0.32986090678E+02  0.45045681478E+02  0.00000000000E+00 0. -1.
         11    1    3    3    0    0  0.65140711167E+01  0.26702774407E+02  0.31380535711E+02  0.41715816009E+02  0.51100000000E-03 0.  1.
        -11    1    3    3    0    0 -0.23289679491E+00 -0.26935921527E+00  0.70826254435E-01  0.36305911828E+00  0.51100000000E-03 0. -1.
        -12    1    3    3    0    0  0.22117922042E+01  0.30437074828E+01  0.15347287132E+01  0.40634433942E+01  0.00000000000E+00 0.  1.
</event>
<event>
 7    1  0.2312612E-008  0.4614232E+02  0.7816164E-02  0.1320468E+00
        -11   -1    0    0    0    0  0.00000000000E+00  0.00000000000E+00  0.45593999997E+02  0.45594000000E+02  0.51100000000E-03 0.  1.
         11   -1    0    0    0    0 -0.00000000000E+00 -0.00000000000E+00 -0.45593999997E+02  0.45594000000E+02  0.51100000000E-03 0. -1.
    9900012    2    1    2    0    0  0.11119799495E+02 -0.19500062126E+02  0.39053952429E+02  0.46142316921E+02  0.99999923400E+01 0.  0.
         12    1    1    2    0    0 -0.11119799495E+02  0.19500062126E+02 -0.39053952429E+02  0.45045683079E+02  0.00000000000E+00 0. -1.
         11    1    3    3    0    0  0.21754590630E+01 -0.20478768621E+00  0.11267527088E+01  0.24584816573E+01  0.51100000000E-03 0. -1.
        -11    1    3    3    0    0  0.45392739279E+01 -0.10088762487E+02  0.23903455863E+02  0.26339387593E+02  0.51100000000E-03 0.  1.
        -12    1    3    3    0    0  0.44050665043E+01 -0.92065119524E+01  0.14023743857E+02  0.17344447671E+02  0.00000000000E+00 0.  1.
</event>
<event>
 7    1  0.2312612E-008  0.4614232E+02  0.7816164E-02  0.1320468E+00
        -11   -1    0    0    0    0  0.00000000000E+00  0.00000000000E+00  0.45593999997E+02  0.45594000000E+02  0.51100000000E-03 0.  1.
         11   -1    0    0    0    0 -0.00000000000E+00 -0.00000000000E+00 -0.45593999997E+02  0.45594000000E+02  0.51100000000E-03 0. -1.
    9900012    2    1    2    0    0 -0.71017904211E+01 -0.42301600518E+02  0.13756900631E+02  0.46142321533E+02  0.10000034396E+02 0.  0.
         12    1    1    2    0    0  0.71017904211E+01  0.42301600518E+02 -0.13756900631E+02  0.45045678467E+02  0.00000000000E+00 0. -1.
         11    1    3    3    0    0  0.55026599596E+00 -0.17265606481E+01 -0.88127793561E+00  0.20150571701E+01  0.51100000000E-03 0. -1.
        -11    1    3    3    0    0  0.29153150523E+00 -0.13234801769E+01  0.14004275733E+01  0.19487914322E+01  0.51100000000E-03 0.  1.
        -12    1    3    3    0    0 -0.79435879223E+01 -0.39251559693E+02  0.13237750993E+02  0.42178472931E+02  0.00000000000E+00 0.  1.
</event>
<event>
 7    1  0.2312612E-008  0.4614232E+02  0.7816164E-02  0.1320468E+00
        -11   -1    0    0    0    0  0.00000000000E+00  0.00000000000E+00  0.45593999997E+02  0.45594000000E+02  0.51100000000E-03 0.  1.
         11   -1    0    0    0    0 -0.00000000000E+00 -0.00000000000E+00 -0.45593999997E+02  0.45594000000E+02  0.51100000000E-03 0. -1.
    9900012    2    1    2    0    0  0.27683123656E+02  0.17815953562E+02  0.30746544685E+02  0.46142317112E+02  0.99999940853E+01 0.  0.
         12    1    1    2    0    0 -0.27683123656E+02 -0.17815953562E+02 -0.30746544685E+02  0.45045682888E+02  0.00000000000E+00 0. -1.
         11    1    3    3    0    0  0.56964615684E+01  0.64700377095E+01  0.85099695670E+01  0.12113242533E+02  0.51100000000E-03 0. -1.
        -11    1    3    3    0    0  0.86953180718E+01  0.34233249662E+01  0.12994148204E+02  0.16005486497E+02  0.51100000000E-03 0.  1.
        -12    1    3    3    0    0  0.13291344016E+02  0.79225908866E+01  0.92424269144E+01  0.18023588083E+02  0.00000000000E+00 0.  1.
</event>
<event>
 7    1  0.2312612E-008  0.4614232E+02  0.7816164E-02  0.1320468E+00
        -11   -1    0    0    0    0  0.00000000000E+00  0.00000000000E+00  0.45593999997E+02  0.45594000000E+02  0.51100000000E-03 0. -1.
         11   -1    0    0    0    0 -0.00000000000E+00 -0.00000000000E+00 -0.45593999997E+02  0.45594000000E+02  0.51100000000E-03 0.  1.
    9900012    2    1    2    0    0  0.25478399979E+02 -0.34196838468E+02  0.14510020618E+02  0.46142319574E+02  0.10000016527E+02 0.  0.
         12    1    1    2    0    0 -0.25478399979E+02  0.34196838468E+02 -0.14510020618E+02  0.45045680426E+02  0.00000000000E+00 0. -1.
         11    1    3    3    0    0  0.10153570746E+01  0.35922681100E+00 -0.19114384171E+00  0.10938601921E+01  0.51100000000E-03 0. -1.
        -11    1    3    3    0    0  0.21057546435E+01 -0.23586775941E+01  0.23854033400E+01  0.39607716379E+01  0.51100000000E-03 0.  1.
        -12    1    3    3    0    0  0.22357288261E+02 -0.32197387685E+02  0.12315761120E+02  0.41087687744E+02  0.00000000000E+00 0.  1.
</event>
<event>
 7    1  0.2312612E-008  0.4614232E+02  0.7816164E-02  0.1320468E+00
        -11   -1    0    0    0    0  0.00000000000E+00  0.00000000000E+00  0.45593999997E+02  0.45594000000E+02  0.51100000000E-03 0. -1.
         11   -1    0    0    0    0 -0.00000000000E+00 -0.00000000000E+00 -0.45593999997E+02  0.45594000000E+02  0.51100000000E-03 0.  1.
    9900012    2    1    2    0    0 -0.52843628198E+01  0.44663783594E+02  0.25170304178E+01  0.46142317660E+02  0.99999990803E+01 0.  0.
         12    1    1    2    0    0  0.52843628198E+01 -0.44663783594E+02 -0.25170304178E+01  0.45045682340E+02  0.00000000000E+00 0. -1.
         11    1    3    3    0    0 -0.70367716473E+00  0.85751363650E+00 -0.20918065383E-01  0.11094724041E+01  0.51100000000E-03 0. -1.
        -11    1    3    3    0    0 -0.59859343297E+01  0.26054682821E+02  0.45303485496E+01  0.27114607962E+02  0.51100000000E-03 0.  1.
        -12    1    3    3    0    0  0.14052486746E+01  0.17751587136E+02 -0.19924000665E+01  0.17918237294E+02  0.00000000000E+00 0.  1.
</event>
<event>
 7    1  0.2312612E-008  0.4614232E+02  0.7816164E-02  0.1320468E+00
        -11   -1    0    0    0    0  0.00000000000E+00  0.00000000000E+00  0.45593999997E+02  0.45594000000E+02  0.51100000000E-03 0. -1.
         11   -1    0    0    0    0 -0.00000000000E+00 -0.00000000000E+00 -0.45593999997E+02  0.45594000000E+02  0.51100000000E-03 0.  1.
    9900012    2    1    2    0    0 -0.35503684970E+02  0.27718696766E+02 -0.52510775657E+00  0.46142317243E+02  0.99999952793E+01 0.  0.
         12    1    1    2    0    0  0.35503684970E+02 -0.27718696766E+02  0.52510775657E+00  0.45045682757E+02  0.00000000000E+00 0. -1.
         11    1    3    3    0    0  0.27779159468E+00  0.48239693241E+00 -0.15203591135E+00  0.57705298711E+00  0.51100000000E-03 0. -1.
        -11    1    3    3    0    0 -0.33586699627E+02  0.27423667223E+02 -0.30566934676E+00  0.43361473105E+02  0.51100000000E-03 0.  1.
        -12    1    3    3    0    0 -0.21947769368E+01 -0.18736738930E+00 -0.67402498465E-01  0.22037911511E+01  0.00000000000E+00 0.  1.
</event>
<event>
 7    1  0.2312612E-008  0.4614232E+02  0.7816164E-02  0.1320468E+00
        -11   -1    0    0    0    0  0.00000000000E+00  0.00000000000E+00  0.45593999997E+02  0.45594000000E+02  0.51100000000E-03 0.  1.
         11   -1    0    0    0    0 -0.00000000000E+00 -0.00000000000E+00 -0.45593999997E+02  0.45594000000E+02  0.51100000000E-03 0. -1.
    9900012    2    1    2    0    0 -0.11596493354E+02  0.15625559402E+02  0.40626059921E+02  0.46142317527E+02  0.99999978689E+01 0.  0.
         12    1    1    2    0    0  0.11596493354E+02 -0.15625559402E+02 -0.40626059921E+02  0.45045682473E+02  0.00000000000E+00 0. -1.
         11    1    3    3    0    0 -0.14383507877E+01  0.66033212842E+01  0.91221825203E+01  0.11352837494E+02  0.51100000000E-03 0. -1.
        -11    1    3    3    0    0 -0.62551807771E+01  0.74132381074E+01  0.26629936830E+02  0.28341434713E+02  0.51100000000E-03 0.  1.
        -12    1    3    3    0    0 -0.39029617894E+01  0.16090000105E+01  0.48739405705E+01  0.64480453199E+01  0.00000000000E+00 0.  1.
</event>
<event>
 7    1  0.2312612E-008  0.4614232E+02  0.7816164E-02  0.1320468E+00
        -11   -1    0    0    0    0  0.00000000000E+00  0.00000000000E+00  0.45593999997E+02  0.45594000000E+02  0.51100000000E-03 0.  1.
         11   -1    0    0    0    0 -0.00000000000E+00 -0.00000000000E+00 -0.45593999997E+02  0.45594000000E+02  0.51100000000E-03 0. -1.
    9900012    2    1    2    0    0  0.31731760034E+02 -0.30944181361E+02  0.80415508576E+01  0.46142317686E+02  0.99999993166E+01 0.  0.
         12    1    1    2    0    0 -0.31731760034E+02  0.30944181361E+02 -0.80415508576E+01  0.45045682314E+02  0.00000000000E+00 0. -1.
         11    1    3    3    0    0  0.11741432032E+01 -0.30444137841E+01  0.19488679585E+01  0.38006781146E+01  0.51100000000E-03 0. -1.
        -11    1    3    3    0    0  0.90197101012E+01 -0.12099210533E+02  0.81601172588E+00  0.15113303452E+02  0.51100000000E-03 0.  1.
        -12    1    3    3    0    0  0.21537906729E+02 -0.15800557043E+02  0.52766711732E+01  0.27228336119E+02  0.00000000000E+00 0.  1.
</event>
<event>
 7    1  0.2312612E-008  0.4614232E+02  0.7816164E-02  0.1320468E+00
        -11   -1    0    0    0    0  0.00000000000E+00  0.00000000000E+00  0.45593999997E+02  0.45594000000E+02  0.51100000000E-03 0. -1.
         11   -1    0    0    0    0 -0.00000000000E+00 -0.00000000000E+00 -0.45593999997E+02  0.45594000000E+02  0.51100000000E-03 0.  1.
    9900012    2    1    2    0    0 -0.31430902965E+02 -0.24501793933E+02 -0.20996998367E+02  0.46142317548E+02  0.99999980589E+01 0.  0.
         12    1    1    2    0    0  0.31430902965E+02  0.24501793933E+02  0.20996998367E+02  0.45045682452E+02  0.00000000000E+00 0. -1.
         11    1    3    3    0    0 -0.13146954076E+01  0.89102382809E+00 -0.15150748384E+01  0.21949486336E+01  0.51100000000E-03 0. -1.
        -11    1    3    3    0    0 -0.14870092969E+02 -0.12417905170E+02 -0.95224029526E+01  0.21587037591E+02  0.51100000000E-03 0.  1.
         12    1    3    3    0    0 -0.15246114589E+02 -0.12974912591E+02 -0.99595205757E+01  0.22360331324E+02  0.00000000000E+00 0. -1.
</event>
<event>
 7    1  0.2312612E-008  0.4614232E+02  0.7816164E-02  0.1320468E+00
        -11   -1    0    0    0    0  0.00000000000E+00  0.00000000000E+00  0.45593999997E+02  0.45594000000E+02  0.51100000000E-03 0.  1.
         11   -1    0    0    0    0 -0.00000000000E+00 -0.00000000000E+00 -0.45593999997E+02  0.45594000000E+02  0.51100000000E-03 0. -1.
    9900012    2    1    2    0    0  0.18118523359E+02  0.13966996726E+00  0.41240914904E+02  0.46142318092E+02  0.10000003021E+02 0.  0.
         12    1    1    2    0    0 -0.18118523359E+02 -0.13966996726E+00 -0.41240914904E+02  0.45045681908E+02  0.00000000000E+00 0. -1.
         11    1    3    3    0    0  0.36071511091E+01  0.18469191109E+01  0.74842049160E+01  0.85109325465E+01  0.51100000000E-03 0. -1.
        -11    1    3    3    0    0 -0.25400298646E+00 -0.84426902396E+00  0.12426153346E+00  0.89036447130E+00  0.51100000000E-03 0.  1.
        -12    1    3    3    0    0  0.14765375237E+02 -0.86298011967E+00  0.33632448454E+02  0.36741021075E+02  0.00000000000E+00 0.  1.
</event>
<event>
 7    1  0.2312612E-008  0.4614232E+02  0.7816164E-02  0.1320468E+00
        -11   -1    0    0    0    0  0.00000000000E+00  0.00000000000E+00  0.45593999997E+02  0.45594000000E+02  0.51100000000E-03 0. -1.
         11   -1    0    0    0    0 -0.00000000000E+00 -0.00000000000E+00 -0.45593999997E+02  0.45594000000E+02  0.51100000000E-03 0.  1.
    9900012    2    1    2    0    0 -0.41207502920E+02  0.52443046166E+00 -0.18187363083E+02  0.46142317630E+02  0.99999988088E+01 0.  0.
         12    1    1    2    0    0  0.41207502920E+02 -0.52443046166E+00  0.18187363083E+02  0.45045682370E+02  0.00000000000E+00 0. -1.
         11    1    3    3    0    0 -0.21826325080E+02 -0.64795805384E+00 -0.51908805810E+01  0.22444454941E+02  0.51100000000E-03 0. -1.
        -11    1    3    3    0    0 -0.18966563158E+01  0.11097240394E+01 -0.64355158860E+00  0.22897492291E+01  0.51100000000E-03 0.  1.
         12    1    3    3    0    0 -0.17484521524E+02  0.62664476085E-01 -0.12352930914E+02  0.21408113460E+02  0.00000000000E+00 0. -1.
</event>
<event>
 7    1  0.2312612E-008  0.4614232E+02  0.7816164E-02  0.1320468E+00
        -11   -1    0    0    0    0  0.00000000000E+00  0.00000000000E+00  0.45593999997E+02  0.45594000000E+02  0.51100000000E-03 0.  1.
         11   -1    0    0    0    0 -0.00000000000E+00 -0.00000000000E+00 -0.45593999997E+02  0.45594000000E+02  0.51100000000E-03 0. -1.
    9900012    2    1    2    0    0 -0.89568865484E+01  0.98690027188E+01  0.43028947948E+02  0.46142318822E+02  0.10000009671E+02 0.  0.
         12    1    1    2    0    0  0.89568865484E+01 -0.98690027188E+01 -0.43028947948E+02  0.45045681178E+02  0.00000000000E+00 0. -1.
         11    1    3    3    0    0 -0.55436416763E+01  0.55489595509E+01  0.21313054561E+02  0.22710552836E+02  0.51100000000E-03 0. -1.
        -11    1    3    3    0    0 -0.42626815133E+01  0.29186528022E+00  0.14583850444E+02  0.15196852735E+02  0.51100000000E-03 0.  1.
         12    1    3    3    0    0  0.84943664115E+00  0.40281778877E+01  0.71320429434E+01  0.82349132509E+01  0.00000000000E+00 0. -1.
</event>
<event>
 7    1  0.2312612E-008  0.4614232E+02  0.7816164E-02  0.1320468E+00
        -11   -1    0    0    0    0  0.00000000000E+00  0.00000000000E+00  0.45593999997E+02  0.45594000000E+02  0.51100000000E-03 0.  1.
         11   -1    0    0    0    0 -0.00000000000E+00 -0.00000000000E+00 -0.45593999997E+02  0.45594000000E+02  0.51100000000E-03 0. -1.
    9900012    2    1    2    0    0 -0.31525120405E+02  0.19115731311E+02  0.25881827880E+02  0.46142318581E+02  0.10000007478E+02 0.  0.
         12    1    1    2    0    0  0.31525120405E+02 -0.19115731311E+02 -0.25881827880E+02  0.45045681419E+02  0.00000000000E+00 0. -1.
         11    1    3    3    0    0 -0.90703327607E+01  0.68344619264E+01  0.51062301587E+01  0.12452083878E+02  0.51100000000E-03 0.  1.
        -11    1    3    3    0    0 -0.67381803415E+01  0.63140812730E+00  0.36463293859E+01  0.76874878075E+01  0.51100000000E-03 0. -1.
        -12    1    3    3    0    0 -0.15716607303E+02  0.11649861257E+02  0.17129268335E+02  0.26002746895E+02  0.00000000000E+00 0.  1.
</event>
<event>
 7    1  0.2312612E-008  0.4614232E+02  0.7816164E-02  0.1320468E+00
        -11   -1    0    0    0    0  0.00000000000E+00  0.00000000000E+00  0.45593999997E+02  0.45594000000E+02  0.51100000000E-03 0.  1.
         11   -1    0    0    0    0 -0.00000000000E+00 -0.00000000000E+00 -0.45593999997E+02  0.45594000000E+02  0.51100000000E-03 0. -1.
    9900012    2    1    2    0    0 -0.42223874564E+02  0.94212132655E+01  0.12549844244E+02  0.46142318375E+02  0.10000005594E+02 0.  0.
         12    1    1    2    0    0  0.42223874564E+02 -0.94212132655E+01 -0.12549844244E+02  0.45045681625E+02  0.00000000000E+00 0. -1.
         11    1    3    3    0    0 -0.47788938051E+01  0.16690021963E+00  0.42398577323E+01  0.63907805106E+01  0.51100000000E-03 0. -1.
        -11    1    3    3    0    0 -0.18837370969E+02  0.53275828001E+01  0.65934813487E+01  0.20656807112E+02  0.51100000000E-03 0.  1.
         12    1    3    3    0    0 -0.18607609789E+02  0.39267302457E+01  0.17165051625E+01  0.19094730751E+02  0.00000000000E+00 0. -1.
</event>
<event>
 7    1  0.2312612E-008  0.4614232E+02  0.7816164E-02  0.1320468E+00
        -11   -1    0    0    0    0  0.00000000000E+00  0.00000000000E+00  0.45593999997E+02  0.45594000000E+02  0.51100000000E-03 0. -1.
         11   -1    0    0    0    0 -0.00000000000E+00 -0.00000000000E+00 -0.45593999997E+02  0.45594000000E+02  0.51100000000E-03 0.  1.
    9900012    2    1    2    0    0 -0.20794725105E+02 -0.35533535717E+01 -0.39800334166E+02  0.46142317481E+02  0.99999974497E+01 0.  0.
         12    1    1    2    0    0  0.20794725105E+02  0.35533535717E+01  0.39800334166E+02  0.45045682519E+02  0.00000000000E+00 0. -1.
         11    1    3    3    0    0 -0.11224466878E+01  0.89734411438E+00 -0.40708203120E+01  0.43170234306E+01  0.51100000000E-03 0. -1.
        -11    1    3    3    0    0 -0.78556278383E+01  0.95948234454E+00 -0.19422151252E+02  0.20972635853E+02  0.51100000000E-03 0.  1.
        -12    1    3    3    0    0 -0.11816650579E+02 -0.54101800306E+01 -0.16307362602E+02  0.20852658198E+02  0.00000000000E+00 0.  1.
</event>
<event>
 7    1  0.2312612E-008  0.4614232E+02  0.7816164E-02  0.1320468E+00
        -11   -1    0    0    0    0  0.00000000000E+00  0.00000000000E+00  0.45593999997E+02  0.45594000000E+02  0.51100000000E-03 0.  1.
         11   -1    0    0    0    0 -0.00000000000E+00 -0.00000000000E+00 -0.45593999997E+02  0.45594000000E+02  0.51100000000E-03 0. -1.
    9900012    2    1    2    0    0  0.29934738961E+02 -0.29633596217E+02  0.15964797174E+02  0.46142319072E+02  0.10000011958E+02 0.  0.
         12    1    1    2    0    0 -0.29934738961E+02  0.29633596217E+02 -0.15964797174E+02  0.45045680928E+02  0.00000000000E+00 0. -1.
         11    1    3    3    0    0 -0.18026421910E+00 -0.42907239139E-01  0.51351477768E+00  0.54592481889E+00  0.51100000000E-03 0. -1.
        -11    1    3    3    0    0  0.86395976914E+01 -0.43485207279E+01  0.47069578332E+01  0.10756752907E+02  0.51100000000E-03 0.  1.
        -12    1    3    3    0    0  0.21475405489E+02 -0.25242168250E+02  0.10744324563E+02  0.34839641347E+02  0.00000000000E+00 0.  1.
</event>
<event>
 7    1  0.2312612E-008  0.4614232E+02  0.7816164E-02  0.1320468E+00
        -11   -1    0    0    0    0  0.00000000000E+00  0.00000000000E+00  0.45593999997E+02  0.45594000000E+02  0.51100000000E-03 0.  1.
         11   -1    0    0    0    0 -0.00000000000E+00 -0.00000000000E+00 -0.45593999997E+02  0.45594000000E+02  0.51100000000E-03 0. -1.
    9900012    2    1    2    0    0 -0.14710828317E+02  0.17680717139E+02  0.38731089168E+02  0.46142317671E+02  0.99999991817E+01 0.  0.
         12    1    1    2    0    0  0.14710828317E+02 -0.17680717139E+02 -0.38731089168E+02  0.45045682329E+02  0.00000000000E+00 0. -1.
         11    1    3    3    0    0 -0.62847392285E+01  0.10354402104E+02  0.22187932092E+02  0.25278764228E+02  0.51100000000E-03 0. -1.
        -11    1    3    3    0    0 -0.46550501784E+01  0.64151667836E+01  0.14384972028E+02  0.16424106598E+02  0.51100000000E-03 0.  1.
         12    1    3    3    0    0 -0.37710389097E+01  0.91114825120E+00  0.21581850476E+01  0.44394468455E+01  0.00000000000E+00 0. -1.
</event>
<event>
 7    1  0.2312612E-008  0.4614231E+02  0.7816164E-02  0.1320468E+00
        -11   -1    0    0    0    0  0.00000000000E+00  0.00000000000E+00  0.45593999997E+02  0.45594000000E+02  0.51100000000E-03 0.  1.
         11   -1    0    0    0    0 -0.00000000000E+00 -0.00000000000E+00 -0.45593999997E+02  0.45594000000E+02  0.51100000000E-03 0. -1.
    9900012    2    1    2    0    0  0.37895480005E+01  0.41770460381E+02  0.16431120332E+02  0.46142314859E+02  0.99999735340E+01 0.  0.
         12    1    1    2    0    0 -0.37895480005E+01 -0.41770460381E+02 -0.16431120332E+02  0.45045685141E+02  0.00000000000E+00 0. -1.
         11    1    3    3    0    0  0.82146572835E+00  0.93575008426E+01  0.65339042571E+01  0.11442444366E+02  0.51100000000E-03 0. -1.
        -11    1    3    3    0    0  0.30890587892E+01  0.27663992173E+02  0.58160828759E+01  0.28437045688E+02  0.51100000000E-03 0.  1.
        -12    1    3    3    0    0 -0.12097651702E+00  0.47489673650E+01  0.40811331994E+01  0.62628248053E+01  0.00000000000E+00 0.  1.
</event>
<event>
 7    1  0.2312612E-008  0.4614232E+02  0.7816164E-02  0.1320468E+00
        -11   -1    0    0    0    0  0.00000000000E+00  0.00000000000E+00  0.45593999997E+02  0.45594000000E+02  0.51100000000E-03 0.  1.
         11   -1    0    0    0    0 -0.00000000000E+00 -0.00000000000E+00 -0.45593999997E+02  0.45594000000E+02  0.51100000000E-03 0. -1.
    9900012    2    1    2    0    0  0.13734503488E+02  0.40716466164E+02 -0.13514665036E+02  0.46142319031E+02  0.10000011575E+02 0.  0.
         12    1    1    2    0    0 -0.13734503488E+02 -0.40716466164E+02  0.13514665036E+02  0.45045680969E+02  0.00000000000E+00 0. -1.
         11    1    3    3    0    0  0.17609385572E+01  0.60447081733E+01 -0.46237933095E+01  0.78114573757E+01  0.51100000000E-03 0. -1.
        -11    1    3    3    0    0  0.29692033294E+01  0.18155757453E+02 -0.56307867283E+01  0.19239372561E+02  0.51100000000E-03 0.  1.
         12    1    3    3    0    0  0.90043616015E+01  0.16516000538E+02 -0.32600849983E+01  0.19091489094E+02  0.00000000000E+00 0. -1.
</event>
<event>
 7    1  0.2312612E-008  0.4614232E+02  0.7816164E-02  0.1320468E+00
        -11   -1    0    0    0    0  0.00000000000E+00  0.00000000000E+00  0.45593999997E+02  0.45594000000E+02  0.51100000000E-03 0.  1.
         11   -1    0    0    0    0 -0.00000000000E+00 -0.00000000000E+00 -0.45593999997E+02  0.45594000000E+02  0.51100000000E-03 0. -1.
    9900012    2    1    2    0    0 -0.11237498572E+02 -0.25487623528E+02  0.35400752196E+02  0.46142316707E+02  0.99999903910E+01 0.  0.
         12    1    1    2    0    0  0.11237498572E+02  0.25487623528E+02 -0.35400752196E+02  0.45045683293E+02  0.00000000000E+00 0. -1.
         11    1    3    3    0    0 -0.19690016741E+01 -0.57255563319E+01  0.11749889439E+02  0.13218126380E+02  0.51100000000E-03 0. -1.
        -11    1    3    3    0    0 -0.85620424592E+01 -0.18801173423E+02  0.24013976549E+02  0.31677496162E+02  0.51100000000E-03 0.  1.
         12    1    3    3    0    0 -0.70645443834E+00 -0.96089377329E+00 -0.36311379159E+00  0.12466941656E+01  0.00000000000E+00 0. -1.
</event>
<event>
 7    1  0.2312612E-008  0.4614232E+02  0.7816164E-02  0.1320468E+00
        -11   -1    0    0    0    0  0.00000000000E+00  0.00000000000E+00  0.45593999997E+02  0.45594000000E+02  0.51100000000E-03 0. -1.
         11   -1    0    0    0    0 -0.00000000000E+00 -0.00000000000E+00 -0.45593999997E+02  0.45594000000E+02  0.51100000000E-03 0.  1.
    9900012    2    1    2    0    0  0.14551552427E+02 -0.42116831897E+02 -0.65983485028E+01  0.46142318630E+02  0.10000007926E+02 0.  0.
         12    1    1    2    0    0 -0.14551552427E+02  0.42116831897E+02  0.65983485028E+01  0.45045681370E+02  0.00000000000E+00 0. -1.
         11    1    3    3    0    0  0.25259830445E+01 -0.11731317819E+01 -0.24629869052E+00  0.27959777940E+01  0.51100000000E-03 0. -1.
        -11    1    3    3    0    0  0.29415566444E+00 -0.29488845618E+01 -0.13897474748E+01  0.32732011882E+01  0.51100000000E-03 0.  1.
         12    1    3    3    0    0  0.11731413719E+02 -0.37994815553E+02 -0.49623023375E+01  0.40073139648E+02  0.00000000000E+00 0. -1.
</event>
<event>
 7    1  0.2312612E-008  0.4614232E+02  0.7816164E-02  0.1320468E+00
        -11   -1    0    0    0    0  0.00000000000E+00  0.00000000000E+00  0.45593999997E+02  0.45594000000E+02  0.51100000000E-03 0. -1.
         11   -1    0    0    0    0 -0.00000000000E+00 -0.00000000000E+00 -0.45593999997E+02  0.45594000000E+02  0.51100000000E-03 0.  1.
    9900012    2    1    2    0    0 -0.10232662323E+02  0.33340151456E+02 -0.28510356682E+02  0.46142317460E+02  0.99999972573E+01 0.  0.
         12    1    1    2    0    0  0.10232662323E+02 -0.33340151456E+02  0.28510356682E+02  0.45045682540E+02  0.00000000000E+00 0. -1.
         11    1    3    3    0    0  0.75385768871E+00  0.62831400928E+01 -0.73228718214E+01  0.96783574440E+01  0.51100000000E-03 0. -1.
        -11    1    3    3    0    0 -0.70052052656E+01  0.10637691552E+02 -0.81226753933E+01  0.15106662046E+02  0.51100000000E-03 0.  1.
        -12    1    3    3    0    0 -0.39813147464E+01  0.16419319812E+02 -0.13064809467E+02  0.21357297970E+02  0.00000000000E+00 0.  1.
</event>
<event>
 7    1  0.2312612E-008  0.4614232E+02  0.7816164E-02  0.1320468E+00
        -11   -1    0    0    0    0  0.00000000000E+00  0.00000000000E+00  0.45593999997E+02  0.45594000000E+02  0.51100000000E-03 0.  1.
         11   -1    0    0    0    0 -0.00000000000E+00 -0.00000000000E+00 -0.45593999997E+02  0.45594000000E+02  0.51100000000E-03 0. -1.
    9900012    2    1    2    0    0  0.20789501628E+02  0.14723433134E+02  0.37150109750E+02  0.46142317459E+02  0.99999972426E+01 0.  0.
         12    1    1    2    0    0 -0.20789501628E+02 -0.14723433134E+02 -0.37150109750E+02  0.45045682541E+02  0.00000000000E+00 0. -1.
         11    1    3    3    0    0  0.48034643839E+01  0.33301462180E+01  0.95320232530E+01  0.11181351058E+02  0.51100000000E-03 0.  1.
        -11    1    3    3    0    0  0.16138721017E+02  0.11875684289E+02  0.27924392876E+02  0.34369490993E+02  0.51100000000E-03 0. -1.
         12    1    3    3    0    0 -0.15268377360E+00 -0.48239737287E+00 -0.30630637879E+00  0.59147540757E+00  0.00000000000E+00 0. -1.
</event>
<event>
 7    1  0.2312612E-008  0.4614232E+02  0.7816164E-02  0.1320468E+00
        -11   -1    0    0    0    0  0.00000000000E+00  0.00000000000E+00  0.45593999997E+02  0.45594000000E+02  0.51100000000E-03 0.  1.
         11   -1    0    0    0    0 -0.00000000000E+00 -0.00000000000E+00 -0.45593999997E+02  0.45594000000E+02  0.51100000000E-03 0. -1.
    9900012    2    1    2    0    0  0.36835883447E+02 -0.20561610362E+02  0.15794028233E+02  0.46142318100E+02  0.10000003089E+02 0.  0.
         12    1    1    2    0    0 -0.36835883447E+02  0.20561610362E+02 -0.15794028233E+02  0.45045681900E+02  0.00000000000E+00 0. -1.
         11    1    3    3    0    0  0.81443072123E+01 -0.48690888295E+01  0.13623360460E+01  0.95861215182E+01  0.51100000000E-03 0. -1.
        -11    1    3    3    0    0  0.24818391842E+02 -0.15223441176E+02  0.10325587919E+02  0.30892126845E+02  0.51100000000E-03 0.  1.
        -12    1    3    3    0    0  0.38731843930E+01 -0.46908035625E+00  0.41061042681E+01  0.56640697368E+01  0.00000000000E+00 0.  1.
</event>
<event>
 7    1  0.2312612E-008  0.4614232E+02  0.7816164E-02  0.1320468E+00
        -11   -1    0    0    0    0  0.00000000000E+00  0.00000000000E+00  0.45593999997E+02  0.45594000000E+02  0.51100000000E-03 0.  1.
         11   -1    0    0    0    0 -0.00000000000E+00 -0.00000000000E+00 -0.45593999997E+02  0.45594000000E+02  0.51100000000E-03 0. -1.
    9900012    2    1    2    0    0  0.27106100423E+02 -0.35976673173E+02  0.22765755717E+00  0.46142317402E+02  0.99999967259E+01 0.  0.
         12    1    1    2    0    0 -0.27106100423E+02  0.35976673173E+02 -0.22765755717E+00  0.45045682598E+02  0.00000000000E+00 0. -1.
         11    1    3    3    0    0  0.18162396824E+02 -0.21013574290E+02  0.31055175706E+01  0.27947937357E+02  0.51100000000E-03 0. -1.
        -11    1    3    3    0    0  0.42728188555E+01 -0.94287154719E+01  0.13017208929E+00  0.10352516673E+02  0.51100000000E-03 0.  1.
         12    1    3    3    0    0  0.46708847438E+01 -0.55343834107E+01 -0.30080321028E+01  0.78418633728E+01  0.00000000000E+00 0. -1.
</event>
<event>
 7    1  0.2312612E-008  0.4614231E+02  0.7816164E-02  0.1320468E+00
        -11   -1    0    0    0    0  0.00000000000E+00  0.00000000000E+00  0.45593999997E+02  0.45594000000E+02  0.51100000000E-03 0.  1.
         11   -1    0    0    0    0 -0.00000000000E+00 -0.00000000000E+00 -0.45593999997E+02  0.45594000000E+02  0.51100000000E-03 0. -1.
    9900012    2    1    2    0    0  0.28129775090E+01 -0.39798663005E+02  0.20910941436E+02  0.46142313290E+02  0.99999592280E+01 0.  0.
         12    1    1    2    0    0 -0.28129775090E+01  0.39798663005E+02 -0.20910941436E+02  0.45045686710E+02  0.00000000000E+00 0. -1.
         11    1    3    3    0    0  0.19047622159E+01 -0.20027864686E+02  0.96417381959E+01  0.22309338822E+02  0.51100000000E-03 0. -1.
        -11    1    3    3    0    0  0.22660362591E+01 -0.19413186661E+02  0.10909270747E+02  0.22383452039E+02  0.51100000000E-03 0.  1.
         12    1    3    3    0    0 -0.13578209659E+01 -0.35761165779E+00  0.35993249257E+00  0.14495224291E+01  0.00000000000E+00 0. -1.
</event>
<event>
 7    1  0.2312612E-008  0.4614232E+02  0.7816164E-02  0.1320468E+00
        -11   -1    0    0    0    0  0.00000000000E+00  0.00000000000E+00  0.45593999997E+02  0.45594000000E+02  0.51100000000E-03 0.  1.
         11   -1    0    0    0    0 -0.00000000000E+00 -0.00000000000E+00 -0.45593999997E+02  0.45594000000E+02  0.51100000000E-03 0. -1.
    9900012    2    1    2    0    0  0.31747222678E+02  0.21320431610E+02  0.23804759841E+02  0.46142317156E+02  0.99999944819E+01 0.  0.
         12    1    1    2    0    0 -0.31747222678E+02 -0.21320431610E+02 -0.23804759841E+02  0.45045682844E+02  0.00000000000E+00 0. -1.
         11    1    3    3    0    0  0.76227863428E+01  0.47497174008E+01  0.10523065107E+02  0.13834796223E+02  0.51100000000E-03 0. -1.
        -11    1    3    3    0    0  0.16633793806E+02  0.10443737950E+02  0.74327431368E+01  0.21000010228E+02  0.51100000000E-03 0.  1.
        -12    1    3    3    0    0  0.74906425291E+01  0.61269762589E+01  0.58489515968E+01  0.11307510706E+02  0.00000000000E+00 0.  1.
</event>
<event>
 7    1  0.2312612E-008  0.4614232E+02  0.7816164E-02  0.1320468E+00
        -11   -1    0    0    0    0  0.00000000000E+00  0.00000000000E+00  0.45593999997E+02  0.45594000000E+02  0.51100000000E-03 0. -1.
         11   -1    0    0    0    0 -0.00000000000E+00 -0.00000000000E+00 -0.45593999997E+02  0.45594000000E+02  0.51100000000E-03 0.  1.
    9900012    2    1    2    0    0  0.35938928395E+02 -0.25333999238E+02  0.97823948494E+01  0.46142319402E+02  0.10000014959E+02 0.  0.
         12    1    1    2    0    0 -0.35938928395E+02  0.25333999238E+02 -0.97823948494E+01  0.45045680598E+02  0.00000000000E+00 0. -1.
         11    1    3    3    0    0  0.27237048075E+01 -0.23731653273E+00  0.12277921729E+01  0.29970587075E+01  0.51100000000E-03 0. -1.
        -11    1    3    3    0    0  0.26524091984E+02 -0.21931236955E+02  0.94466853996E+01  0.35689584969E+02  0.51100000000E-03 0.  1.
        -12    1    3    3    0    0  0.66911316036E+01 -0.31654457508E+01 -0.89208272314E+00  0.74556757255E+01  0.00000000000E+00 0.  1.
</event>
<event>
 7    1  0.2312612E-008  0.4614232E+02  0.7816164E-02  0.1320468E+00
        -11   -1    0    0    0    0  0.00000000000E+00  0.00000000000E+00  0.45593999997E+02  0.45594000000E+02  0.51100000000E-03 0. -1.
         11   -1    0    0    0    0 -0.00000000000E+00 -0.00000000000E+00 -0.45593999997E+02  0.45594000000E+02  0.51100000000E-03 0.  1.
    9900012    2    1    2    0    0 -0.35896342316E+02  0.50138137933E+01 -0.26747482047E+02  0.46142317451E+02  0.99999971761E+01 0.  0.
         12    1    1    2    0    0  0.35896342316E+02 -0.50138137933E+01  0.26747482047E+02  0.45045682549E+02  0.00000000000E+00 0. -1.
         11    1    3    3    0    0 -0.25364380501E+02  0.16578763508E+01 -0.17195817907E+02  0.30688703230E+02  0.51100000000E-03 0. -1.
        -11    1    3    3    0    0 -0.11051015925E+02  0.30514761695E+01 -0.86164922730E+01  0.14341561949E+02  0.51100000000E-03 0.  1.
        -12    1    3    3    0    0  0.51905410998E+00  0.30446127306E+00 -0.93517186661E+00  0.11120522721E+01  0.00000000000E+00 0.  1.
</event>
<event>
 7    1  0.2312612E-008  0.4614232E+02  0.7816164E-02  0.1320468E+00
        -11   -1    0    0    0    0  0.00000000000E+00  0.00000000000E+00  0.45593999997E+02  0.45594000000E+02  0.51100000000E-03 0.  1.
         11   -1    0    0    0    0 -0.00000000000E+00 -0.00000000000E+00 -0.45593999997E+02  0.45594000000E+02  0.51100000000E-03 0. -1.
    9900012    2    1    2    0    0 -0.17435138560E+02  0.38900069371E+02 -0.14557265442E+02  0.46142318399E+02  0.10000005820E+02 0.  0.
         12    1    1    2    0    0  0.17435138560E+02 -0.38900069371E+02  0.14557265442E+02  0.45045681601E+02  0.00000000000E+00 0. -1.
         11    1    3    3    0    0 -0.49479814629E+01  0.89525378245E+01  0.31966847837E-01  0.10228952840E+02  0.51100000000E-03 0. -1.
        -11    1    3    3    0    0 -0.12044786686E+02  0.27642869789E+02 -0.12094079630E+02  0.32488027008E+02  0.51100000000E-03 0.  1.
         12    1    3    3    0    0 -0.44237041132E+00  0.23046617577E+01 -0.24951526604E+01  0.34253385522E+01  0.00000000000E+00 0. -1.
</event>
<event>
 7    1  0.2312612E-008  0.4614232E+02  0.7816164E-02  0.1320468E+00
        -11   -1    0    0    0    0  0.00000000000E+00  0.00000000000E+00  0.45593999997E+02  0.45594000000E+02  0.51100000000E-03 0. -1.
         11   -1    0    0    0    0 -0.00000000000E+00 -0.00000000000E+00 -0.45593999997E+02  0.45594000000E+02  0.51100000000E-03 0.  1.
    9900012    2    1    2    0    0  0.35285034265E+02 -0.27429532298E+02 -0.56303411839E+01  0.46142316222E+02  0.99999859661E+01 0.  0.
         12    1    1    2    0    0 -0.35285034265E+02  0.27429532298E+02  0.56303411839E+01  0.45045683778E+02  0.00000000000E+00 0. -1.
         11    1    3    3    0    0  0.42118510027E+01 -0.73309831666E+01 -0.13859840655E+01  0.85676108192E+01  0.51100000000E-03 0. -1.
        -11    1    3    3    0    0  0.24131484723E+02 -0.15594328937E+02 -0.53519690925E+01  0.29225934088E+02  0.51100000000E-03 0.  1.
         12    1    3    3    0    0  0.69416985397E+01 -0.45042201944E+01  0.11076119741E+01  0.83487713145E+01  0.00000000000E+00 0. -1.
</event>
<event>
 7    1  0.2312612E-008  0.4614232E+02  0.7816164E-02  0.1320468E+00
        -11   -1    0    0    0    0  0.00000000000E+00  0.00000000000E+00  0.45593999997E+02  0.45594000000E+02  0.51100000000E-03 0.  1.
         11   -1    0    0    0    0 -0.00000000000E+00 -0.00000000000E+00 -0.45593999997E+02  0.45594000000E+02  0.51100000000E-03 0. -1.
    9900012    2    1    2    0    0 -0.36088432663E+01 -0.43243880878E+02  0.12085386080E+02  0.46142317190E+02  0.99999947922E+01 0.  0.
         12    1    1    2    0    0  0.36088432663E+01  0.43243880878E+02 -0.12085386080E+02  0.45045682810E+02  0.00000000000E+00 0. -1.
         11    1    3    3    0    0 -0.79980794990E+00 -0.16307207779E+02  0.58465927577E+01  0.17342069237E+02  0.51100000000E-03 0. -1.
        -11    1    3    3    0    0  0.53499917560E+00 -0.22076344503E+02  0.37581628083E+01  0.22400334790E+02  0.51100000000E-03 0.  1.
         12    1    3    3    0    0 -0.33440344920E+01 -0.48603285962E+01  0.24806305137E+01  0.63999131629E+01  0.00000000000E+00 0. -1.
</event>
<event>
 7    1  0.2312612E-008  0.4614232E+02  0.7816164E-02  0.1320468E+00
        -11   -1    0    0    0    0  0.00000000000E+00  0.00000000000E+00  0.45593999997E+02  0.45594000000E+02  0.51100000000E-03 0.  1.
         11   -1    0    0    0    0 -0.00000000000E+00 -0.00000000000E+00 -0.45593999997E+02  0.45594000000E+02  0.51100000000E-03 0. -1.
    9900012    2    1    2    0    0  0.21886270157E+02  0.26679841930E+02  0.28953250357E+02  0.46142317709E+02  0.99999995261E+01 0.  0.
         12    1    1    2    0    0 -0.21886270157E+02 -0.26679841930E+02 -0.28953250357E+02  0.45045682291E+02  0.00000000000E+00 0. -1.
         11    1    3    3    0    0  0.12109036348E+02  0.14290519946E+02  0.21031064274E+02  0.28162979003E+02  0.51100000000E-03 0. -1.
        -11    1    3    3    0    0  0.70848166201E+01  0.98454789614E+01  0.74760377471E+01  0.14248481434E+02  0.51100000000E-03 0.  1.
         12    1    3    3    0    0  0.26924171887E+01  0.25438430230E+01  0.44614833649E+00  0.37308572717E+01  0.00000000000E+00 0. -1.
</event>
<event>
 7    1  0.2312612E-008  0.4614232E+02  0.7816164E-02  0.1320468E+00
        -11   -1    0    0    0    0  0.00000000000E+00  0.00000000000E+00  0.45593999997E+02  0.45594000000E+02  0.51100000000E-03 0.  1.
         11   -1    0    0    0    0 -0.00000000000E+00 -0.00000000000E+00 -0.45593999997E+02  0.45594000000E+02  0.51100000000E-03 0. -1.
    9900012    2    1    2    0    0  0.25524693473E+02  0.24747268676E+02  0.27661818525E+02  0.46142317766E+02  0.10000000046E+02 0.  0.
         12    1    1    2    0    0 -0.25524693473E+02 -0.24747268676E+02 -0.27661818525E+02  0.45045682234E+02  0.00000000000E+00 0. -1.
         11    1    3    3    0    0  0.13728252365E+01  0.12023769691E+01  0.84493003418E+00  0.20110361831E+01  0.51100000000E-03 0. -1.
        -11    1    3    3    0    0  0.19891035493E+02  0.23385771009E+02  0.24501316181E+02  0.39279283007E+02  0.51100000000E-03 0.  1.
         12    1    3    3    0    0  0.42608327432E+01  0.15912069810E+00  0.23155723092E+01  0.48519985760E+01  0.00000000000E+00 0. -1.
</event>
<event>
 7    1  0.2312612E-008  0.4614232E+02  0.7816164E-02  0.1320468E+00
        -11   -1    0    0    0    0  0.00000000000E+00  0.00000000000E+00  0.45593999997E+02  0.45594000000E+02  0.51100000000E-03 0.  1.
         11   -1    0    0    0    0 -0.00000000000E+00 -0.00000000000E+00 -0.45593999997E+02  0.45594000000E+02  0.51100000000E-03 0. -1.
    9900012    2    1    2    0    0  0.12945982245E+02  0.37037266168E+02  0.22130429692E+02  0.46142318078E+02  0.10000002888E+02 0.  0.
         12    1    1    2    0    0 -0.12945982245E+02 -0.37037266168E+02 -0.22130429692E+02  0.45045681922E+02  0.00000000000E+00 0. -1.
         11    1    3    3    0    0  0.71259788556E+01  0.10555472362E+02  0.89174884479E+01  0.15547320409E+02  0.51100000000E-03 0. -1.
        -11    1    3    3    0    0  0.52207429188E+01  0.11900218007E+02  0.65381665141E+01  0.14547129162E+02  0.51100000000E-03 0.  1.
        -12    1    3    3    0    0  0.59926047107E+00  0.14581575799E+02  0.66747747298E+01  0.16047868506E+02  0.00000000000E+00 0.  1.
</event>
<event>
 7    1  0.2312612E-008  0.4614231E+02  0.7816164E-02  0.1320468E+00
        -11   -1    0    0    0    0  0.00000000000E+00  0.00000000000E+00  0.45593999997E+02  0.45594000000E+02  0.51100000000E-03 0. -1.
         11   -1    0    0    0    0 -0.00000000000E+00 -0.00000000000E+00 -0.45593999997E+02  0.45594000000E+02  0.51100000000E-03 0.  1.
    9900012    2    1    2    0    0 -0.36430171847E+02  0.21322583772E+02 -0.15725908051E+02  0.46142310045E+02  0.99999296341E+01 0.  0.
         12    1    1    2    0    0  0.36430171847E+02 -0.21322583772E+02  0.15725908051E+02  0.45045689955E+02  0.00000000000E+00 0. -1.
         11    1    3    3    0    0 -0.11357575001E+01  0.12485479022E+00  0.51581976777E+00  0.12536363554E+01  0.51100000000E-03 0. -1.
        -11    1    3    3    0    0 -0.18685795842E+02  0.76736258347E+01 -0.10228816528E+02  0.22642265512E+02  0.51100000000E-03 0.  1.
         12    1    3    3    0    0 -0.16608618505E+02  0.13524103147E+02 -0.60129112906E+01  0.22246408177E+02  0.00000000000E+00 0. -1.
</event>
<event>
 7    1  0.2312612E-008  0.4614232E+02  0.7816164E-02  0.1320468E+00
        -11   -1    0    0    0    0  0.00000000000E+00  0.00000000000E+00  0.45593999997E+02  0.45594000000E+02  0.51100000000E-03 0.  1.
         11   -1    0    0    0    0 -0.00000000000E+00 -0.00000000000E+00 -0.45593999997E+02  0.45594000000E+02  0.51100000000E-03 0. -1.
    9900012    2    1    2    0    0 -0.89904139166E+01  0.61503041838E+01  0.43708805763E+02  0.46142317797E+02  0.10000000326E+02 0.  0.
         12    1    1    2    0    0  0.89904139166E+01 -0.61503041838E+01 -0.43708805763E+02  0.45045682203E+02  0.00000000000E+00 0. -1.
         11    1    3    3    0    0  0.37900040603E+00 -0.15820892570E+01  0.94350266900E+01  0.95742559307E+01  0.51100000000E-03 0. -1.
        -11    1    3    3    0    0  0.32625450545E+00  0.37584995416E+00  0.72068598742E+00  0.87583888013E+00  0.51100000000E-03 0.  1.
        -12    1    3    3    0    0 -0.96956688280E+01  0.73565434867E+01  0.33553093085E+02  0.35692222986E+02  0.00000000000E+00 0.  1.
</event>
<event>
 7    1  0.2312612E-008  0.4614232E+02  0.7816164E-02  0.1320468E+00
        -11   -1    0    0    0    0  0.00000000000E+00  0.00000000000E+00  0.45593999997E+02  0.45594000000E+02  0.51100000000E-03 0.  1.
         11   -1    0    0    0    0 -0.00000000000E+00 -0.00000000000E+00 -0.45593999997E+02  0.45594000000E+02  0.51100000000E-03 0. -1.
    9900012    2    1    2    0    0 -0.44435672613E+01  0.26453917748E+02  0.36187820690E+02  0.46142318514E+02  0.10000006870E+02 0.  0.
         12    1    1    2    0    0  0.44435672613E+01 -0.26453917748E+02 -0.36187820690E+02  0.45045681486E+02  0.00000000000E+00 0. -1.
         11    1    3    3    0    0 -0.27804715013E+01  0.44131508881E+01  0.29983303691E+01  0.60163866061E+01  0.51100000000E-03 0. -1.
        -11    1    3    3    0    0 -0.19409612430E+01  0.69100039684E+01  0.80694938779E+01  0.10799639674E+02  0.51100000000E-03 0.  1.
        -12    1    3    3    0    0  0.27786548294E+00  0.15130762891E+02  0.25119996443E+02  0.29326292234E+02  0.00000000000E+00 0.  1.
</event>
<event>
 7    1  0.2312612E-008  0.4614232E+02  0.7816164E-02  0.1320468E+00
        -11   -1    0    0    0    0  0.00000000000E+00  0.00000000000E+00  0.45593999997E+02  0.45594000000E+02  0.51100000000E-03 0.  1.
         11   -1    0    0    0    0 -0.00000000000E+00 -0.00000000000E+00 -0.45593999997E+02  0.45594000000E+02  0.51100000000E-03 0. -1.
    9900012    2    1    2    0    0 -0.14711528776E+02  0.28755874598E+02  0.31397198026E+02  0.46142318224E+02  0.10000004218E+02 0.  0.
         12    1    1    2    0    0  0.14711528776E+02 -0.28755874598E+02 -0.31397198026E+02  0.45045681776E+02  0.00000000000E+00 0. -1.
         11    1    3    3    0    0 -0.54058010426E+01  0.79764343885E+01  0.51896909159E+01  0.10944363048E+02  0.51100000000E-03 0. -1.
        -11    1    3    3    0    0 -0.45227947720E+01  0.12024650224E+02  0.10509019195E+02  0.16597812213E+02  0.51100000000E-03 0.  1.
        -12    1    3    3    0    0 -0.47829329619E+01  0.87547899847E+01  0.15698487915E+02  0.18600142962E+02  0.00000000000E+00 0.  1.
</event>
<event>
 7    1  0.2312612E-008  0.4614232E+02  0.7816164E-02  0.1320468E+00
        -11   -1    0    0    0    0  0.00000000000E+00  0.00000000000E+00  0.45593999997E+02  0.45594000000E+02  0.51100000000E-03 0.  1.
         11   -1    0    0    0    0 -0.00000000000E+00 -0.00000000000E+00 -0.45593999997E+02  0.45594000000E+02  0.51100000000E-03 0. -1.
    9900012    2    1    2    0    0  0.67959202945E+01 -0.40195131712E+01  0.44348309349E+02  0.46142316956E+02  0.99999926570E+01 0.  0.
         12    1    1    2    0    0 -0.67959202945E+01  0.40195131712E+01 -0.44348309349E+02  0.45045683044E+02  0.00000000000E+00 0. -1.
         11    1    3    3    0    0  0.36328085761E+01 -0.47517895518E+01  0.20199973104E+02  0.21066934180E+02  0.51100000000E-03 0.  1.
        -11    1    3    3    0    0  0.19606218569E+00 -0.14134743005E+01  0.16846981905E+02  0.16907310536E+02  0.51100000000E-03 0. -1.
         12    1    3    3    0    0  0.29670495327E+01  0.21457506811E+01  0.73013543401E+01  0.81680722399E+01  0.00000000000E+00 0. -1.
</event>
<event>
 7    1  0.2312612E-008  0.4614232E+02  0.7816164E-02  0.1320468E+00
        -11   -1    0    0    0    0  0.00000000000E+00  0.00000000000E+00  0.45593999997E+02  0.45594000000E+02  0.51100000000E-03 0. -1.
         11   -1    0    0    0    0 -0.00000000000E+00 -0.00000000000E+00 -0.45593999997E+02  0.45594000000E+02  0.51100000000E-03 0.  1.
    9900012    2    1    2    0    0  0.30831198808E+02  0.30273194729E+02 -0.12731231273E+02  0.46142318867E+02  0.10000010083E+02 0.  0.
         12    1    1    2    0    0 -0.30831198808E+02 -0.30273194729E+02  0.12731231273E+02  0.45045681133E+02  0.00000000000E+00 0. -1.
         11    1    3    3    0    0  0.69250522616E+01  0.35662178840E+01 -0.21695452774E+01  0.80858633302E+01  0.51100000000E-03 0. -1.
        -11    1    3    3    0    0  0.19354912776E+02  0.18041159877E+02 -0.98825441016E+01  0.28244659255E+02  0.51100000000E-03 0.  1.
         12    1    3    3    0    0  0.45512337704E+01  0.86658169679E+01 -0.67914189370E+00  0.98117962813E+01  0.00000000000E+00 0. -1.
</event>
<event>
 7    1  0.2312612E-008  0.4614232E+02  0.7816164E-02  0.1320468E+00
        -11   -1    0    0    0    0  0.00000000000E+00  0.00000000000E+00  0.45593999997E+02  0.45594000000E+02  0.51100000000E-03 0.  1.
         11   -1    0    0    0    0 -0.00000000000E+00 -0.00000000000E+00 -0.45593999997E+02  0.45594000000E+02  0.51100000000E-03 0. -1.
    9900012    2    1    2    0    0  0.42019977355E+02  0.12835877168E+02 -0.99335445659E+01  0.46142317108E+02  0.99999940431E+01 0.  0.
         12    1    1    2    0    0 -0.42019977355E+02 -0.12835877168E+02  0.99335445659E+01  0.45045682892E+02  0.00000000000E+00 0. -1.
         11    1    3    3    0    0  0.11969163919E+02  0.27537320473E+01 -0.85123019970E+00  0.12311316673E+02  0.51100000000E-03 0.  1.
        -11    1    3    3    0    0  0.28536442877E+02  0.73799729090E+01 -0.79017320060E+01  0.30516060381E+02  0.51100000000E-03 0. -1.
         12    1    3    3    0    0  0.15143705587E+01  0.27021722120E+01 -0.11805823602E+01  0.33149400540E+01  0.00000000000E+00 0. -1.
</event>
<event>
 7    1  0.2312612E-008  0.4614233E+02  0.7816164E-02  0.1320468E+00
        -11   -1    0    0    0    0  0.00000000000E+00  0.00000000000E+00  0.45593999997E+02  0.45594000000E+02  0.51100000000E-03 0.  1.
         11   -1    0    0    0    0 -0.00000000000E+00 -0.00000000000E+00 -0.45593999997E+02  0.45594000000E+02  0.51100000000E-03 0. -1.
    9900012    2    1    2    0    0 -0.33089065288E+01 -0.55010593913E+01  0.44585895979E+02  0.46142327210E+02  0.10000086164E+02 0.  0.
         12    1    1    2    0    0  0.33089065288E+01  0.55010593913E+01 -0.44585895979E+02  0.45045672790E+02  0.00000000000E+00 0. -1.
         11    1    3    3    0    0 -0.16096908911E+01 -0.76698463099E+00  0.42162929302E+01  0.45778266157E+01  0.51100000000E-03 0.  1.
        -11    1    3    3    0    0  0.21709209601E+01  0.12602388340E+01  0.15085748162E+02  0.15293165061E+02  0.51100000000E-03 0. -1.
         12    1    3    3    0    0 -0.38701365978E+01 -0.59943135943E+01  0.25283854887E+02  0.26271335533E+02  0.00000000000E+00 0. -1.
</event>
<event>
 7    1  0.2312612E-008  0.4614232E+02  0.7816164E-02  0.1320468E+00
        -11   -1    0    0    0    0  0.00000000000E+00  0.00000000000E+00  0.45593999997E+02  0.45594000000E+02  0.51100000000E-03 0. -1.
         11   -1    0    0    0    0 -0.00000000000E+00 -0.00000000000E+00 -0.45593999997E+02  0.45594000000E+02  0.51100000000E-03 0.  1.
    9900012    2    1    2    0    0 -0.21469488665E+02 -0.25591392506E+02 -0.30220110838E+02  0.46142318598E+02  0.10000007632E+02 0.  0.
         12    1    1    2    0    0  0.21469488665E+02  0.25591392506E+02  0.30220110838E+02  0.45045681402E+02  0.00000000000E+00 0. -1.
         11    1    3    3    0    0 -0.18798240922E+02 -0.20435505966E+02 -0.28224180494E+02  0.39592778769E+02  0.51100000000E-03 0. -1.
        -11    1    3    3    0    0 -0.28860660704E+01 -0.45747324355E+01 -0.11993995338E+01  0.55404073606E+01  0.51100000000E-03 0.  1.
        -12    1    3    3    0    0  0.21481832785E+00 -0.58115410406E+00 -0.79653081017E+00  0.10091324681E+01  0.00000000000E+00 0.  1.
</event>
<event>
 7    1  0.2312612E-008  0.4614232E+02  0.7816164E-02  0.1320468E+00
        -11   -1    0    0    0    0  0.00000000000E+00  0.00000000000E+00  0.45593999997E+02  0.45594000000E+02  0.51100000000E-03 0.  1.
         11   -1    0    0    0    0 -0.00000000000E+00 -0.00000000000E+00 -0.45593999997E+02  0.45594000000E+02  0.51100000000E-03 0. -1.
    9900012    2    1    2    0    0 -0.30045284128E+02  0.32233783469E+02  0.93475971678E+01  0.46142317989E+02  0.10000002074E+02 0.  0.
         12    1    1    2    0    0  0.30045284128E+02 -0.32233783469E+02 -0.93475971678E+01  0.45045682011E+02  0.00000000000E+00 0. -1.
         11    1    3    3    0    0 -0.91204054739E+01  0.97856985301E+01  0.27123034113E+01  0.13649112857E+02  0.51100000000E-03 0. -1.
        -11    1    3    3    0    0 -0.15585203630E+02  0.20817308133E+02  0.68966125622E+01  0.26903943116E+02  0.51100000000E-03 0.  1.
         12    1    3    3    0    0 -0.53396750247E+01  0.16307768054E+01 -0.26131880569E+00  0.55892620154E+01  0.00000000000E+00 0. -1.
</event>
<event>
 7    1  0.2312612E-008  0.4614232E+02  0.7816164E-02  0.1320468E+00
        -11   -1    0    0    0    0  0.00000000000E+00  0.00000000000E+00  0.45593999997E+02  0.45594000000E+02  0.51100000000E-03 0.  1.
         11   -1    0    0    0    0 -0.00000000000E+00 -0.00000000000E+00 -0.45593999997E+02  0.45594000000E+02  0.51100000000E-03 0. -1.
    9900012    2    1    2    0    0  0.40084020340E+02  0.62081149042E+01  0.19591941911E+02  0.46142316909E+02  0.99999922324E+01 0.  0.
         12    1    1    2    0    0 -0.40084020340E+02 -0.62081149042E+01 -0.19591941911E+02  0.45045683091E+02  0.00000000000E+00 0. -1.
         11    1    3    3    0    0  0.21072387649E+02  0.23861217343E+01  0.12160537332E+02  0.24446221930E+02  0.51100000000E-03 0. -1.
        -11    1    3    3    0    0  0.16351631677E+02  0.25359879847E+01  0.84385289416E+01  0.18574602675E+02  0.51100000000E-03 0.  1.
         12    1    3    3    0    0  0.26600010135E+01  0.12860051852E+01 -0.10071243627E+01  0.31214923050E+01  0.00000000000E+00 0. -1.
</event>
<event>
 7    1  0.2312612E-008  0.4614232E+02  0.7816164E-02  0.1320468E+00
        -11   -1    0    0    0    0  0.00000000000E+00  0.00000000000E+00  0.45593999997E+02  0.45594000000E+02  0.51100000000E-03 0. -1.
         11   -1    0    0    0    0 -0.00000000000E+00 -0.00000000000E+00 -0.45593999997E+02  0.45594000000E+02  0.51100000000E-03 0.  1.
    9900012    2    1    2    0    0  0.14761865162E+02 -0.31410799665E+02 -0.28715195415E+02  0.46142318227E+02  0.10000004251E+02 0.  0.
         12    1    1    2    0    0 -0.14761865162E+02  0.31410799665E+02  0.28715195415E+02  0.45045681773E+02  0.00000000000E+00 0. -1.
         11    1    3    3    0    0  0.31858855975E+01 -0.81970500167E+01 -0.10364689357E+02  0.13592949707E+02  0.51100000000E-03 0. -1.
        -11    1    3    3    0    0  0.99268231639E+01 -0.19863689093E+02 -0.18363475486E+02  0.28815363865E+02  0.51100000000E-03 0.  1.
         12    1    3    3    0    0  0.16491564010E+01 -0.33500605547E+01  0.12969427537E-01  0.37340046547E+01  0.00000000000E+00 0. -1.
</event>
<event>
 7    1  0.2312612E-008  0.4614232E+02  0.7816164E-02  0.1320468E+00
        -11   -1    0    0    0    0  0.00000000000E+00  0.00000000000E+00  0.45593999997E+02  0.45594000000E+02  0.51100000000E-03 0.  1.
         11   -1    0    0    0    0 -0.00000000000E+00 -0.00000000000E+00 -0.45593999997E+02  0.45594000000E+02  0.51100000000E-03 0. -1.
    9900012    2    1    2    0    0 -0.64936302353E+01 -0.14214574653E+02  0.42247983587E+02  0.46142317816E+02  0.10000000502E+02 0.  0.
         12    1    1    2    0    0  0.64936302353E+01  0.14214574653E+02 -0.42247983587E+02  0.45045682184E+02  0.00000000000E+00 0. -1.
         11    1    3    3    0    0  0.13027498830E+00 -0.25439277779E+01  0.24105109488E+01  0.35070077569E+01  0.51100000000E-03 0. -1.
        -11    1    3    3    0    0 -0.35659726180E+01 -0.69665368233E+01  0.12651961449E+02  0.14876858701E+02  0.51100000000E-03 0.  1.
        -12    1    3    3    0    0 -0.30579326056E+01 -0.47041100518E+01  0.27185511190E+02  0.27758451359E+02  0.00000000000E+00 0.  1.
</event>
<event>
 7    1  0.2312612E-008  0.4614232E+02  0.7816164E-02  0.1320468E+00
        -11   -1    0    0    0    0  0.00000000000E+00  0.00000000000E+00  0.45593999997E+02  0.45594000000E+02  0.51100000000E-03 0. -1.
         11   -1    0    0    0    0 -0.00000000000E+00 -0.00000000000E+00 -0.45593999997E+02  0.45594000000E+02  0.51100000000E-03 0.  1.
    9900012    2    1    2    0    0  0.27104810355E+02 -0.32698791041E+02 -0.15007723994E+02  0.46142318083E+02  0.10000002934E+02 0.  0.
         12    1    1    2    0    0 -0.27104810355E+02  0.32698791041E+02  0.15007723994E+02  0.45045681917E+02  0.00000000000E+00 0. -1.
         11    1    3    3    0    0  0.14408661129E+02 -0.21666239562E+02 -0.61879385271E+01  0.26745579742E+02  0.51100000000E-03 0. -1.
        -11    1    3    3    0    0  0.66749112845E+01 -0.76488905472E+01 -0.37232123954E+01  0.10813060532E+02  0.51100000000E-03 0.  1.
         12    1    3    3    0    0  0.60212379418E+01 -0.33836609313E+01 -0.50965730718E+01  0.85836778088E+01  0.00000000000E+00 0. -1.
</event>
<event>
 7    1  0.2312612E-008  0.4614232E+02  0.7816164E-02  0.1320468E+00
        -11   -1    0    0    0    0  0.00000000000E+00  0.00000000000E+00  0.45593999997E+02  0.45594000000E+02  0.51100000000E-03 0. -1.
         11   -1    0    0    0    0 -0.00000000000E+00 -0.00000000000E+00 -0.45593999997E+02  0.45594000000E+02  0.51100000000E-03 0.  1.
    9900012    2    1    2    0    0  0.27982500608E+02  0.18618145552E+02 -0.29990962531E+02  0.46142317436E+02  0.99999970390E+01 0.  0.
         12    1    1    2    0    0 -0.27982500608E+02 -0.18618145552E+02  0.29990962531E+02  0.45045682564E+02  0.00000000000E+00 0. -1.
         11    1    3    3    0    0  0.35360145181E+01 -0.46920534260E+00 -0.11678519558E+01  0.37533226317E+01  0.51100000000E-03 0. -1.
        -11    1    3    3    0    0  0.31692156195E+01  0.21224839937E+01 -0.44070006241E+01  0.58284235182E+01  0.51100000000E-03 0.  1.
         12    1    3    3    0    0  0.21277270470E+02  0.16964866901E+02 -0.24416109951E+02  0.36560571287E+02  0.00000000000E+00 0. -1.
</event>
<event>
 7    1  0.2312612E-008  0.4614231E+02  0.7816164E-02  0.1320468E+00
        -11   -1    0    0    0    0  0.00000000000E+00  0.00000000000E+00  0.45593999997E+02  0.45594000000E+02  0.51100000000E-03 0.  1.
         11   -1    0    0    0    0 -0.00000000000E+00 -0.00000000000E+00 -0.45593999997E+02  0.45594000000E+02  0.51100000000E-03 0. -1.
    9900012    2    1    2    0    0  0.17362902364E+02 -0.41148008823E+02 -0.58723903018E+01  0.46142312344E+02  0.99999506004E+01 0.  0.
         12    1    1    2    0    0 -0.17362902364E+02  0.41148008823E+02  0.58723903018E+01  0.45045687656E+02  0.00000000000E+00 0. -1.
         11    1    3    3    0    0  0.44263184779E+01 -0.53735666343E+01 -0.17380384985E+01  0.71755342466E+01  0.51100000000E-03 0. -1.
        -11    1    3    3    0    0  0.75259614299E+01 -0.28173340840E+02 -0.50370861853E+01  0.29593064509E+02  0.51100000000E-03 0.  1.
         12    1    3    3    0    0  0.54106224562E+01 -0.76011013484E+01  0.90273438204E+00  0.93737135884E+01  0.00000000000E+00 0. -1.
</event>
<event>
 7    1  0.2312612E-008  0.4614232E+02  0.7816164E-02  0.1320468E+00
        -11   -1    0    0    0    0  0.00000000000E+00  0.00000000000E+00  0.45593999997E+02  0.45594000000E+02  0.51100000000E-03 0.  1.
         11   -1    0    0    0    0 -0.00000000000E+00 -0.00000000000E+00 -0.45593999997E+02  0.45594000000E+02  0.51100000000E-03 0. -1.
    9900012    2    1    2    0    0 -0.70347666290E+01 -0.29526655033E+02  0.33283661888E+02  0.46142318213E+02  0.10000004121E+02 0.  0.
         12    1    1    2    0    0  0.70347666290E+01  0.29526655033E+02 -0.33283661888E+02  0.45045681787E+02  0.00000000000E+00 0. -1.
         11    1    3    3    0    0 -0.19830892130E+01 -0.12174578955E+02  0.18588734778E+02  0.22309058171E+02  0.51100000000E-03 0. -1.
        -11    1    3    3    0    0 -0.14502734578E+01 -0.60594839412E+00  0.18220908450E+01  0.24063420097E+01  0.51100000000E-03 0.  1.
        -12    1    3    3    0    0 -0.36014039582E+01 -0.16746127684E+02  0.12872836265E+02  0.21426918033E+02  0.00000000000E+00 0.  1.
</event>
<event>
 7    1  0.2312612E-008  0.4614232E+02  0.7816164E-02  0.1320468E+00
        -11   -1    0    0    0    0  0.00000000000E+00  0.00000000000E+00  0.45593999997E+02  0.45594000000E+02  0.51100000000E-03 0.  1.
         11   -1    0    0    0    0 -0.00000000000E+00 -0.00000000000E+00 -0.45593999997E+02  0.45594000000E+02  0.51100000000E-03 0. -1.
    9900012    2    1    2    0    0  0.22644546728E+02 -0.26874854902E+02  0.28179428470E+02  0.46142317506E+02  0.99999976702E+01 0.  0.
         12    1    1    2    0    0 -0.22644546728E+02  0.26874854902E+02 -0.28179428470E+02  0.45045682494E+02  0.00000000000E+00 0. -1.
         11    1    3    3    0    0  0.57198090529E+01 -0.26565622221E+01  0.44037284686E+01  0.76919674420E+01  0.51100000000E-03 0. -1.
        -11    1    3    3    0    0  0.14122663100E+02 -0.15277865212E+02  0.15423703343E+02  0.25898907381E+02  0.51100000000E-03 0.  1.
         12    1    3    3    0    0  0.28020745748E+01 -0.89404274679E+01  0.83519966579E+01  0.12551442682E+02  0.00000000000E+00 0. -1.
</event>
<event>
 7    1  0.2312612E-008  0.4614232E+02  0.7816164E-02  0.1320468E+00
        -11   -1    0    0    0    0  0.00000000000E+00  0.00000000000E+00  0.45593999997E+02  0.45594000000E+02  0.51100000000E-03 0. -1.
         11   -1    0    0    0    0 -0.00000000000E+00 -0.00000000000E+00 -0.45593999997E+02  0.45594000000E+02  0.51100000000E-03 0.  1.
    9900012    2    1    2    0    0 -0.10450276811E+02  0.28947967139E+02 -0.32892558144E+02  0.46142317985E+02  0.10000002043E+02 0.  0.
         12    1    1    2    0    0  0.10450276811E+02 -0.28947967139E+02  0.32892558144E+02  0.45045682015E+02  0.00000000000E+00 0. -1.
         11    1    3    3    0    0 -0.52762501795E+01  0.91999482143E+01 -0.11532852005E+02  0.15667946220E+02  0.51100000000E-03 0. -1.
        -11    1    3    3    0    0 -0.51689695403E+01  0.16976251468E+02 -0.21270720505E+02  0.27701171655E+02  0.51100000000E-03 0.  1.
         12    1    3    3    0    0 -0.50570907342E-02  0.27717674575E+01 -0.88985634334E-01  0.27732001110E+01  0.00000000000E+00 0. -1.
</event>
<event>
 7    1  0.2312612E-008  0.4614232E+02  0.7816164E-02  0.1320468E+00
        -11   -1    0    0    0    0  0.00000000000E+00  0.00000000000E+00  0.45593999997E+02  0.45594000000E+02  0.51100000000E-03 0.  1.
         11   -1    0    0    0    0 -0.00000000000E+00 -0.00000000000E+00 -0.45593999997E+02  0.45594000000E+02  0.51100000000E-03 0. -1.
    9900012    2    1    2    0    0 -0.18156969531E+02  0.95621227593E+01  0.40099921639E+02  0.46142318191E+02  0.10000003919E+02 0.  0.
         12    1    1    2    0    0  0.18156969531E+02 -0.95621227593E+01 -0.40099921639E+02  0.45045681809E+02  0.00000000000E+00 0. -1.
         11    1    3    3    0    0 -0.36842884423E+01  0.49160985938E+01  0.86022610716E+01  0.10570756951E+02  0.51100000000E-03 0. -1.
        -11    1    3    3    0    0 -0.14925039087E+02  0.51353537923E+01  0.30787703901E+02  0.34597851987E+02  0.51100000000E-03 0.  1.
         12    1    3    3    0    0  0.45235799841E+00 -0.48932962675E+00  0.70995666586E+00  0.97370925319E+00  0.00000000000E+00 0. -1.
</event>
<event>
 7    1  0.2312612E-008  0.4614232E+02  0.7816164E-02  0.1320468E+00
        -11   -1    0    0    0    0  0.00000000000E+00  0.00000000000E+00  0.45593999997E+02  0.45594000000E+02  0.51100000000E-03 0. -1.
         11   -1    0    0    0    0 -0.00000000000E+00 -0.00000000000E+00 -0.45593999997E+02  0.45594000000E+02  0.51100000000E-03 0.  1.
    9900012    2    1    2    0    0  0.10434463271E+02 -0.40088231141E+02 -0.17696586259E+02  0.46142318021E+02  0.10000002366E+02 0.  0.
         12    1    1    2    0    0 -0.10434463271E+02  0.40088231141E+02  0.17696586259E+02  0.45045681979E+02  0.00000000000E+00 0. -1.
         11    1    3    3    0    0  0.17304668349E+01 -0.15170901126E+01  0.47641798170E+00  0.23501174930E+01  0.51100000000E-03 0. -1.
        -11    1    3    3    0    0  0.60379639866E+01 -0.27838928204E+02 -0.10624077934E+02  0.30402861130E+02  0.51100000000E-03 0.  1.
        -12    1    3    3    0    0  0.26660324500E+01 -0.10732212824E+02 -0.75489263066E+01  0.13389339398E+02  0.00000000000E+00 0.  1.
</event>
<event>
 7    1  0.2312612E-008  0.4614232E+02  0.7816164E-02  0.1320468E+00
        -11   -1    0    0    0    0  0.00000000000E+00  0.00000000000E+00  0.45593999997E+02  0.45594000000E+02  0.51100000000E-03 0. -1.
         11   -1    0    0    0    0 -0.00000000000E+00 -0.00000000000E+00 -0.45593999997E+02  0.45594000000E+02  0.51100000000E-03 0.  1.
    9900012    2    1    2    0    0  0.17951278584E+02 -0.22992171253E+02 -0.34325283659E+02  0.46142318297E+02  0.10000004890E+02 0.  0.
         12    1    1    2    0    0 -0.17951278584E+02  0.22992171253E+02  0.34325283659E+02  0.45045681703E+02  0.00000000000E+00 0. -1.
         11    1    3    3    0    0  0.39866175206E+01 -0.94066955126E+01 -0.14596978662E+02  0.17817149773E+02  0.51100000000E-03 0. -1.
        -11    1    3    3    0    0  0.12317599094E+02 -0.94019464879E+01 -0.17262621030E+02  0.23197369038E+02  0.51100000000E-03 0.  1.
         12    1    3    3    0    0  0.16470619698E+01 -0.41835292527E+01 -0.24656839672E+01  0.51277994858E+01  0.00000000000E+00 0. -1.
</event>
<event>
 7    1  0.2312612E-008  0.4614232E+02  0.7816164E-02  0.1320468E+00
        -11   -1    0    0    0    0  0.00000000000E+00  0.00000000000E+00  0.45593999997E+02  0.45594000000E+02  0.51100000000E-03 0.  1.
         11   -1    0    0    0    0 -0.00000000000E+00 -0.00000000000E+00 -0.45593999997E+02  0.45594000000E+02  0.51100000000E-03 0. -1.
    9900012    2    1    2    0    0 -0.42828602335E+02  0.36025644218E+01  0.13485023645E+02  0.46142317509E+02  0.99999977020E+01 0.  0.
         12    1    1    2    0    0  0.42828602335E+02 -0.36025644218E+01 -0.13485023645E+02  0.45045682491E+02  0.00000000000E+00 0. -1.
         11    1    3    3    0    0 -0.13034553432E+02 -0.89284780645E+00  0.75230548514E+01  0.15076243396E+02  0.51100000000E-03 0. -1.
        -11    1    3    3    0    0 -0.21668167606E+02  0.37569539910E+01  0.63732672443E+01  0.22896347445E+02  0.51100000000E-03 0.  1.
         12    1    3    3    0    0 -0.81258812970E+01  0.73845823728E+00 -0.41129845046E+00  0.81697266684E+01  0.00000000000E+00 0. -1.
</event>
<event>
 7    1  0.2312612E-008  0.4614232E+02  0.7816164E-02  0.1320468E+00
        -11   -1    0    0    0    0  0.00000000000E+00  0.00000000000E+00  0.45593999997E+02  0.45594000000E+02  0.51100000000E-03 0.  1.
         11   -1    0    0    0    0 -0.00000000000E+00 -0.00000000000E+00 -0.45593999997E+02  0.45594000000E+02  0.51100000000E-03 0. -1.
    9900012    2    1    2    0    0 -0.23063051180E+02  0.38252056883E+02 -0.58300281892E+01  0.46142318584E+02  0.10000007507E+02 0.  0.
         12    1    1    2    0    0  0.23063051180E+02 -0.38252056883E+02  0.58300281892E+01  0.45045681416E+02  0.00000000000E+00 0. -1.
         11    1    3    3    0    0 -0.23757099160E+01  0.36592519202E+01  0.12862544559E+01  0.45484693037E+01  0.51100000000E-03 0. -1.
        -11    1    3    3    0    0 -0.18623775405E+02  0.25533387665E+02 -0.43663146049E+01  0.31903974666E+02  0.51100000000E-03 0.  1.
         12    1    3    3    0    0 -0.20635658596E+01  0.90594172977E+01 -0.27499680403E+01  0.96898746149E+01  0.00000000000E+00 0. -1.
</event>
<event>
 7    1  0.2312612E-008  0.4614232E+02  0.7816164E-02  0.1320468E+00
        -11   -1    0    0    0    0  0.00000000000E+00  0.00000000000E+00  0.45593999997E+02  0.45594000000E+02  0.51100000000E-03 0. -1.
         11   -1    0    0    0    0 -0.00000000000E+00 -0.00000000000E+00 -0.45593999997E+02  0.45594000000E+02  0.51100000000E-03 0.  1.
    9900012    2    1    2    0    0  0.14593415494E+02  0.17209545124E+02 -0.38986885153E+02  0.46142318375E+02  0.10000005595E+02 0.  0.
         12    1    1    2    0    0 -0.14593415494E+02 -0.17209545124E+02  0.38986885153E+02  0.45045681625E+02  0.00000000000E+00 0. -1.
         11    1    3    3    0    0 -0.10769539044E+01 -0.46973877358E-01 -0.96928850118E+00  0.14496746935E+01  0.51100000000E-03 0. -1.
        -11    1    3    3    0    0  0.64954321043E+01  0.50582990921E+01 -0.13454824737E+02  0.15773691289E+02  0.51100000000E-03 0.  1.
         12    1    3    3    0    0  0.91749372946E+01  0.12198219910E+02 -0.24562771914E+02  0.28918952392E+02  0.00000000000E+00 0. -1.
</event>
<event>
 7    1  0.2312612E-008  0.4614232E+02  0.7816164E-02  0.1320468E+00
        -11   -1    0    0    0    0  0.00000000000E+00  0.00000000000E+00  0.45593999997E+02  0.45594000000E+02  0.51100000000E-03 0.  1.
         11   -1    0    0    0    0 -0.00000000000E+00 -0.00000000000E+00 -0.45593999997E+02  0.45594000000E+02  0.51100000000E-03 0. -1.
    9900012    2    1    2    0    0  0.26894193755E+02 -0.15555417206E+01  0.36102577184E+02  0.46142318219E+02  0.10000004174E+02 0.  0.
         12    1    1    2    0    0 -0.26894193755E+02  0.15555417206E+01 -0.36102577184E+02  0.45045681781E+02  0.00000000000E+00 0. -1.
         11    1    3    3    0    0  0.20133830595E+02 -0.20051703216E+01  0.28123010361E+02  0.34645281850E+02  0.51100000000E-03 0. -1.
        -11    1    3    3    0    0  0.50922046165E+01 -0.95817747444E+00  0.77216196403E+01  0.92990355446E+01  0.51100000000E-03 0.  1.
        -12    1    3    3    0    0  0.16681585439E+01  0.14078060754E+01  0.25794718276E+00  0.21980008241E+01  0.00000000000E+00 0.  1.
</event>
<event>
 7    1  0.2312612E-008  0.4614232E+02  0.7816164E-02  0.1320468E+00
        -11   -1    0    0    0    0  0.00000000000E+00  0.00000000000E+00  0.45593999997E+02  0.45594000000E+02  0.51100000000E-03 0. -1.
         11   -1    0    0    0    0 -0.00000000000E+00 -0.00000000000E+00 -0.45593999997E+02  0.45594000000E+02  0.51100000000E-03 0.  1.
    9900012    2    1    2    0    0 -0.61679190036E+01  0.28130983981E+02 -0.34636945543E+02  0.46142317841E+02  0.10000000732E+02 0.  0.
         12    1    1    2    0    0  0.61679190036E+01 -0.28130983981E+02  0.34636945543E+02  0.45045682159E+02  0.00000000000E+00 0. -1.
         11    1    3    3    0    0 -0.14741426340E+01  0.12046999387E+02 -0.11623727616E+02  0.16805187732E+02  0.51100000000E-03 0. -1.
        -11    1    3    3    0    0  0.16654717158E+01  0.23711863089E+01 -0.53898463680E+01  0.61193761675E+01  0.51100000000E-03 0.  1.
        -12    1    3    3    0    0 -0.63592480854E+01  0.13712798284E+02 -0.17623371559E+02  0.23217753942E+02  0.00000000000E+00 0.  1.
</event>
<event>
 7    1  0.2312612E-008  0.4614232E+02  0.7816164E-02  0.1320468E+00
        -11   -1    0    0    0    0  0.00000000000E+00  0.00000000000E+00  0.45593999997E+02  0.45594000000E+02  0.51100000000E-03 0. -1.
         11   -1    0    0    0    0 -0.00000000000E+00 -0.00000000000E+00 -0.45593999997E+02  0.45594000000E+02  0.51100000000E-03 0.  1.
    9900012    2    1    2    0    0  0.38685646755E+02 -0.51165608750E+01 -0.22502332986E+02  0.46142318189E+02  0.10000003900E+02 0.  0.
         12    1    1    2    0    0 -0.38685646755E+02  0.51165608750E+01  0.22502332986E+02  0.45045681811E+02  0.00000000000E+00 0. -1.
         11    1    3    3    0    0  0.72533366078E+01 -0.23368153373E+01 -0.68962891022E+01  0.10277665178E+02  0.51100000000E-03 0. -1.
        -11    1    3    3    0    0  0.95229056359E+01 -0.24222899709E+01 -0.79961420429E+01  0.12668524314E+02  0.51100000000E-03 0.  1.
         12    1    3    3    0    0  0.21909404511E+02 -0.35745556680E+00 -0.76099018410E+01  0.23196128697E+02  0.00000000000E+00 0. -1.
</event>
<event>
 7    1  0.2312612E-008  0.4614232E+02  0.7816164E-02  0.1320468E+00
        -11   -1    0    0    0    0  0.00000000000E+00  0.00000000000E+00  0.45593999997E+02  0.45594000000E+02  0.51100000000E-03 0.  1.
         11   -1    0    0    0    0 -0.00000000000E+00 -0.00000000000E+00 -0.45593999997E+02  0.45594000000E+02  0.51100000000E-03 0. -1.
    9900012    2    1    2    0    0 -0.30636165139E+02 -0.15945711184E+02  0.28918391457E+02  0.46142315589E+02  0.99999801961E+01 0.  0.
         12    1    1    2    0    0  0.30636165139E+02  0.15945711184E+02 -0.28918391457E+02  0.45045684411E+02  0.00000000000E+00 0. -1.
         11    1    3    3    0    0 -0.10866479027E+01 -0.17125807164E+01  0.18570729341E+01  0.27499920942E+01  0.51100000000E-03 0. -1.
        -11    1    3    3    0    0 -0.14844825787E+02 -0.11878779945E+02  0.15829347333E+02  0.24739492777E+02  0.51100000000E-03 0.  1.
        -12    1    3    3    0    0 -0.14704691448E+02 -0.23543505236E+01  0.11231971190E+02  0.18652830718E+02  0.00000000000E+00 0.  1.
</event>
<event>
 7    1  0.2312612E-008  0.4614232E+02  0.7816164E-02  0.1320468E+00
        -11   -1    0    0    0    0  0.00000000000E+00  0.00000000000E+00  0.45593999997E+02  0.45594000000E+02  0.51100000000E-03 0.  1.
         11   -1    0    0    0    0 -0.00000000000E+00 -0.00000000000E+00 -0.45593999997E+02  0.45594000000E+02  0.51100000000E-03 0. -1.
    9900012    2    1    2    0    0  0.36676242062E+02  0.63558419706E+01  0.25368681337E+02  0.46142318167E+02  0.10000003705E+02 0.  0.
         12    1    1    2    0    0 -0.36676242062E+02 -0.63558419706E+01 -0.25368681337E+02  0.45045681833E+02  0.00000000000E+00 0. -1.
         11    1    3    3    0    0  0.66263368287E+01  0.40089220387E+01  0.50012891572E+01  0.92191479636E+01  0.51100000000E-03 0. -1.
        -11    1    3    3    0    0  0.56549511152E+01  0.23137397721E+01  0.21519929932E+01  0.64778806682E+01  0.51100000000E-03 0.  1.
        -12    1    3    3    0    0  0.24394954119E+02  0.33180159760E-01  0.18215399187E+02  0.30445289536E+02  0.00000000000E+00 0.  1.
</event>
<event>
 7    1  0.2312612E-008  0.4614232E+02  0.7816164E-02  0.1320468E+00
        -11   -1    0    0    0    0  0.00000000000E+00  0.00000000000E+00  0.45593999997E+02  0.45594000000E+02  0.51100000000E-03 0.  1.
         11   -1    0    0    0    0 -0.00000000000E+00 -0.00000000000E+00 -0.45593999997E+02  0.45594000000E+02  0.51100000000E-03 0. -1.
    9900012    2    1    2    0    0  0.29979761854E+02 -0.29034799219E+02 -0.16950153963E+02  0.46142318677E+02  0.10000008350E+02 0.  0.
         12    1    1    2    0    0 -0.29979761854E+02  0.29034799219E+02  0.16950153963E+02  0.45045681323E+02  0.00000000000E+00 0. -1.
         11    1    3    3    0    0  0.37271534364E+01 -0.16689082391E+01 -0.23900597039E+01  0.47317346817E+01  0.51100000000E-03 0. -1.
        -11    1    3    3    0    0  0.20845017839E+02 -0.16493540330E+02 -0.90884657693E+01  0.28091846711E+02  0.51100000000E-03 0.  1.
        -12    1    3    3    0    0  0.54075905788E+01 -0.10872350650E+02 -0.54716284897E+01  0.13318737284E+02  0.00000000000E+00 0.  1.
</event>
<event>
 7    1  0.2312612E-008  0.4614232E+02  0.7816164E-02  0.1320468E+00
        -11   -1    0    0    0    0  0.00000000000E+00  0.00000000000E+00  0.45593999997E+02  0.45594000000E+02  0.51100000000E-03 0. -1.
         11   -1    0    0    0    0 -0.00000000000E+00 -0.00000000000E+00 -0.45593999997E+02  0.45594000000E+02  0.51100000000E-03 0.  1.
    9900012    2    1    2    0    0  0.34460386422E+02  0.24837411588E+02 -0.14989938982E+02  0.46142317439E+02  0.99999970592E+01 0.  0.
         12    1    1    2    0    0 -0.34460386422E+02 -0.24837411588E+02  0.14989938982E+02  0.45045682561E+02  0.00000000000E+00 0. -1.
         11    1    3    3    0    0  0.19535216190E+02  0.14220913813E+02 -0.63143485390E+01  0.24974588265E+02  0.51100000000E-03 0. -1.
        -11    1    3    3    0    0  0.10832832303E+02  0.40549050104E+01 -0.48968226175E+01  0.12560707876E+02  0.51100000000E-03 0.  1.
         12    1    3    3    0    0  0.40923379288E+01  0.65615927647E+01 -0.37787678259E+01  0.86070212975E+01  0.00000000000E+00 0. -1.
</event>
<event>
 7    1  0.2312612E-008  0.4614232E+02  0.7816164E-02  0.1320468E+00
        -11   -1    0    0    0    0  0.00000000000E+00  0.00000000000E+00  0.45593999997E+02  0.45594000000E+02  0.51100000000E-03 0.  1.
         11   -1    0    0    0    0 -0.00000000000E+00 -0.00000000000E+00 -0.45593999997E+02  0.45594000000E+02  0.51100000000E-03 0. -1.
    9900012    2    1    2    0    0 -0.99866738436E+01  0.20249360174E+02  0.38978753379E+02  0.46142318111E+02  0.10000003189E+02 0.  0.
         12    1    1    2    0    0  0.99866738436E+01 -0.20249360174E+02 -0.38978753379E+02  0.45045681889E+02  0.00000000000E+00 0. -1.
         11    1    3    3    0    0 -0.31013181054E+00  0.43043888535E+01  0.45546937664E+01  0.62744864897E+01  0.51100000000E-03 0. -1.
        -11    1    3    3    0    0 -0.91282614674E+01  0.79790365780E+01  0.20503233891E+02  0.23819588208E+02  0.51100000000E-03 0.  1.
        -12    1    3    3    0    0 -0.54828056571E+00  0.79659347424E+01  0.13920825721E+02  0.16048243413E+02  0.00000000000E+00 0.  1.
</event>
<event>
 7    1  0.2312612E-008  0.4614232E+02  0.7816164E-02  0.1320468E+00
        -11   -1    0    0    0    0  0.00000000000E+00  0.00000000000E+00  0.45593999997E+02  0.45594000000E+02  0.51100000000E-03 0. -1.
         11   -1    0    0    0    0 -0.00000000000E+00 -0.00000000000E+00 -0.45593999997E+02  0.45594000000E+02  0.51100000000E-03 0.  1.
    9900012    2    1    2    0    0 -0.33737268214E+02 -0.24860810808E+02  0.16518180708E+02  0.46142317915E+02  0.10000001407E+02 0.  0.
         12    1    1    2    0    0  0.33737268214E+02  0.24860810808E+02 -0.16518180708E+02  0.45045682085E+02  0.00000000000E+00 0. -1.
         11    1    3    3    0    0 -0.79375223257E+01 -0.93147421903E+01  0.54875238703E+01  0.13411994678E+02  0.51100000000E-03 0. -1.
        -11    1    3    3    0    0 -0.48750417520E+01 -0.60662385607E+01  0.19048776728E+01  0.80121059384E+01  0.51100000000E-03 0.  1.
        -12    1    3    3    0    0 -0.20924704136E+02 -0.94798300572E+01  0.91257791651E+01  0.24718217299E+02  0.00000000000E+00 0.  1.
</event>
<event>
 7    1  0.2312612E-008  0.4614232E+02  0.7816164E-02  0.1320468E+00
        -11   -1    0    0    0    0  0.00000000000E+00  0.00000000000E+00  0.45593999997E+02  0.45594000000E+02  0.51100000000E-03 0.  1.
         11   -1    0    0    0    0 -0.00000000000E+00 -0.00000000000E+00 -0.45593999997E+02  0.45594000000E+02  0.51100000000E-03 0. -1.
    9900012    2    1    2    0    0  0.20362039785E+02  0.16628129620E+02  0.36578765512E+02  0.46142318239E+02  0.10000004359E+02 0.  0.
         12    1    1    2    0    0 -0.20362039785E+02 -0.16628129620E+02 -0.36578765512E+02  0.45045681761E+02  0.00000000000E+00 0. -1.
         11    1    3    3    0    0  0.45040026215E+01  0.49705918452E+01  0.60248329519E+01  0.90161763107E+01  0.51100000000E-03 0. -1.
        -11    1    3    3    0    0 -0.12814760266E+00 -0.55137181910E+00  0.25564738136E-01  0.56664495756E+00  0.51100000000E-03 0.  1.
        -12    1    3    3    0    0  0.15986184767E+02  0.12208909594E+02  0.30528367822E+02  0.36559496971E+02  0.00000000000E+00 0.  1.
</event>
<event>
 7    1  0.2312612E-008  0.4614232E+02  0.7816164E-02  0.1320468E+00
        -11   -1    0    0    0    0  0.00000000000E+00  0.00000000000E+00  0.45593999997E+02  0.45594000000E+02  0.51100000000E-03 0.  1.
         11   -1    0    0    0    0 -0.00000000000E+00 -0.00000000000E+00 -0.45593999997E+02  0.45594000000E+02  0.51100000000E-03 0. -1.
    9900012    2    1    2    0    0 -0.14516243950E+02 -0.33195726158E+02  0.26766319177E+02  0.46142318566E+02  0.10000007338E+02 0.  0.
         12    1    1    2    0    0  0.14516243950E+02  0.33195726158E+02 -0.26766319177E+02  0.45045681434E+02  0.00000000000E+00 0. -1.
         11    1    3    3    0    0  0.18925697069E+00 -0.77680022079E-01  0.53953338072E-01  0.21157412553E+00  0.51100000000E-03 0. -1.
        -11    1    3    3    0    0 -0.40701741746E+01 -0.41893371218E+01  0.13005089380E+01  0.59839942421E+01  0.51100000000E-03 0.  1.
        -12    1    3    3    0    0 -0.10635326747E+02 -0.28928709014E+02  0.25411856901E+02  0.39946750198E+02  0.00000000000E+00 0.  1.
</event>
<event>
 7    1  0.2312612E-008  0.4614232E+02  0.7816164E-02  0.1320468E+00
        -11   -1    0    0    0    0  0.00000000000E+00  0.00000000000E+00  0.45593999997E+02  0.45594000000E+02  0.51100000000E-03 0.  1.
         11   -1    0    0    0    0 -0.00000000000E+00 -0.00000000000E+00 -0.45593999997E+02  0.45594000000E+02  0.51100000000E-03 0. -1.
    9900012    2    1    2    0    0  0.26757833467E+02 -0.25724988986E+02  0.25521686837E+02  0.46142320860E+02  0.10000028261E+02 0.  0.
         12    1    1    2    0    0 -0.26757833467E+02  0.25724988986E+02 -0.25521686837E+02  0.45045679140E+02  0.00000000000E+00 0. -1.
         11    1    3    3    0    0  0.10400311346E+02 -0.86268849981E+01  0.43073008117E+01  0.14182470215E+02  0.51100000000E-03 0. -1.
        -11    1    3    3    0    0  0.81438998695E+01 -0.62658011369E+01  0.82926231865E+01  0.13204202685E+02  0.51100000000E-03 0.  1.
         12    1    3    3    0    0  0.82136222511E+01 -0.10832302851E+02  0.12921762839E+02  0.18755647960E+02  0.00000000000E+00 0. -1.
</event>
<event>
 7    1  0.2312612E-008  0.4614232E+02  0.7816164E-02  0.1320468E+00
        -11   -1    0    0    0    0  0.00000000000E+00  0.00000000000E+00  0.45593999997E+02  0.45594000000E+02  0.51100000000E-03 0. -1.
         11   -1    0    0    0    0 -0.00000000000E+00 -0.00000000000E+00 -0.45593999997E+02  0.45594000000E+02  0.51100000000E-03 0.  1.
    9900012    2    1    2    0    0 -0.33757196695E+02 -0.65801459273E+00 -0.29818322736E+02  0.46142315604E+02  0.99999803318E+01 0.  0.
         12    1    1    2    0    0  0.33757196695E+02  0.65801459273E+00  0.29818322736E+02  0.45045684396E+02  0.00000000000E+00 0. -1.
         11    1    3    3    0    0 -0.24376878086E+02 -0.26214650538E+01 -0.18476161756E+02  0.30699720158E+02  0.51100000000E-03 0. -1.
        -11    1    3    3    0    0 -0.84239174815E+01  0.51605230023E+00 -0.77714593645E+01  0.11472762380E+02  0.51100000000E-03 0.  1.
         12    1    3    3    0    0 -0.95640112731E+00  0.14473981609E+01 -0.35707016152E+01  0.39698330667E+01  0.00000000000E+00 0. -1.
</event>
<event>
 7    1  0.2312612E-008  0.4614232E+02  0.7816164E-02  0.1320468E+00
        -11   -1    0    0    0    0  0.00000000000E+00  0.00000000000E+00  0.45593999997E+02  0.45594000000E+02  0.51100000000E-03 0.  1.
         11   -1    0    0    0    0 -0.00000000000E+00 -0.00000000000E+00 -0.45593999997E+02  0.45594000000E+02  0.51100000000E-03 0. -1.
    9900012    2    1    2    0    0  0.39119813579E+02  0.22269198146E+02  0.16841931880E+01  0.46142317552E+02  0.99999980922E+01 0.  0.
         12    1    1    2    0    0 -0.39119813579E+02 -0.22269198146E+02 -0.16841931880E+01  0.45045682448E+02  0.00000000000E+00 0. -1.
         11    1    3    3    0    0  0.97923569820E+01  0.69066832221E+01 -0.29615873063E+01  0.12343562210E+02  0.51100000000E-03 0. -1.
        -11    1    3    3    0    0  0.54029548569E+01  0.40098888704E+01  0.26868265210E+01  0.72450097967E+01  0.51100000000E-03 0.  1.
        -12    1    3    3    0    0  0.23924501740E+02  0.11352626054E+02  0.19589539733E+01  0.26553745545E+02  0.00000000000E+00 0.  1.
</event>
<event>
 7    1  0.2312612E-008  0.4614232E+02  0.7816164E-02  0.1320468E+00
        -11   -1    0    0    0    0  0.00000000000E+00  0.00000000000E+00  0.45593999997E+02  0.45594000000E+02  0.51100000000E-03 0.  1.
         11   -1    0    0    0    0 -0.00000000000E+00 -0.00000000000E+00 -0.45593999997E+02  0.45594000000E+02  0.51100000000E-03 0. -1.
    9900012    2    1    2    0    0  0.69640612950E+01  0.35003356042E+02  0.27484183975E+02  0.46142318158E+02  0.10000003616E+02 0.  0.
         12    1    1    2    0    0 -0.69640612950E+01 -0.35003356042E+02 -0.27484183975E+02  0.45045681842E+02  0.00000000000E+00 0. -1.
         11    1    3    3    0    0  0.85710103580E+01  0.20605766704E+02  0.14833157614E+02  0.26797059634E+02  0.51100000000E-03 0. -1.
        -11    1    3    3    0    0  0.10278425168E+00  0.43632425675E+01  0.28353585317E+01  0.52045853408E+01  0.51100000000E-03 0.  1.
        -12    1    3    3    0    0 -0.17097333146E+01  0.10034346770E+02  0.98156678294E+01  0.14140673182E+02  0.00000000000E+00 0.  1.
</event>
<event>
 7    1  0.2312612E-008  0.4614232E+02  0.7816164E-02  0.1320468E+00
        -11   -1    0    0    0    0  0.00000000000E+00  0.00000000000E+00  0.45593999997E+02  0.45594000000E+02  0.51100000000E-03 0. -1.
         11   -1    0    0    0    0 -0.00000000000E+00 -0.00000000000E+00 -0.45593999997E+02  0.45594000000E+02  0.51100000000E-03 0.  1.
    9900012    2    1    2    0    0  0.17328882299E+02  0.39502212728E+02 -0.12976845239E+02  0.46142317804E+02  0.10000000389E+02 0.  0.
         12    1    1    2    0    0 -0.17328882299E+02 -0.39502212728E+02  0.12976845239E+02  0.45045682196E+02  0.00000000000E+00 0. -1.
         11    1    3    3    0    0  0.84314382294E+01  0.14128273171E+02 -0.73035635646E+01  0.18001091478E+02  0.51100000000E-03 0.  1.
        -11    1    3    3    0    0  0.94824633996E+01  0.21475659646E+02 -0.58550805082E+01  0.24195103583E+02  0.51100000000E-03 0. -1.
         12    1    3    3    0    0 -0.58501933014E+00  0.38982799115E+01  0.18179883370E+00  0.39461227428E+01  0.00000000000E+00 0. -1.
</event>
<event>
 7    1  0.2312612E-008  0.4614232E+02  0.7816164E-02  0.1320468E+00
        -11   -1    0    0    0    0  0.00000000000E+00  0.00000000000E+00  0.45593999997E+02  0.45594000000E+02  0.51100000000E-03 0.  1.
         11   -1    0    0    0    0 -0.00000000000E+00 -0.00000000000E+00 -0.45593999997E+02  0.45594000000E+02  0.51100000000E-03 0. -1.
    9900012    2    1    2    0    0 -0.76290644130E+01 -0.35717929364E+02  0.26365514670E+02  0.46142318013E+02  0.10000002294E+02 0.  0.
         12    1    1    2    0    0  0.76290644130E+01  0.35717929364E+02 -0.26365514670E+02  0.45045681987E+02  0.00000000000E+00 0. -1.
         11    1    3    3    0    0 -0.12941471437E+01 -0.16193804613E+02  0.16969519178E+02  0.23492098801E+02  0.51100000000E-03 0. -1.
        -11    1    3    3    0    0 -0.26008876922E+01 -0.95044960916E+01  0.53891682447E+01  0.11231348867E+02  0.51100000000E-03 0.  1.
         12    1    3    3    0    0 -0.37340295770E+01 -0.10019628660E+02  0.40068272473E+01  0.11418870345E+02  0.00000000000E+00 0. -1.
</event>
<event>
 7    1  0.2312612E-008  0.4614232E+02  0.7816164E-02  0.1320468E+00
        -11   -1    0    0    0    0  0.00000000000E+00  0.00000000000E+00  0.45593999997E+02  0.45594000000E+02  0.51100000000E-03 0.  1.
         11   -1    0    0    0    0 -0.00000000000E+00 -0.00000000000E+00 -0.45593999997E+02  0.45594000000E+02  0.51100000000E-03 0. -1.
    9900012    2    1    2    0    0  0.26924898693E+02 -0.27907365302E+02  0.22920346027E+02  0.46142317968E+02  0.10000001884E+02 0.  0.
         12    1    1    2    0    0 -0.26924898693E+02  0.27907365302E+02 -0.22920346027E+02  0.45045682032E+02  0.00000000000E+00 0. -1.
         11    1    3    3    0    0  0.39513020895E+01 -0.51662434221E+01  0.20672047397E+01  0.68246754499E+01  0.51100000000E-03 0. -1.
        -11    1    3    3    0    0  0.22661312774E+02 -0.19133672809E+02  0.19247032754E+02  0.35356481752E+02  0.51100000000E-03 0.  1.
         12    1    3    3    0    0  0.31228382962E+00 -0.36074490707E+01  0.16061085337E+01  0.39611607655E+01  0.00000000000E+00 0. -1.
</event>
<event>
 7    1  0.2312612E-008  0.4614232E+02  0.7816164E-02  0.1320468E+00
        -11   -1    0    0    0    0  0.00000000000E+00  0.00000000000E+00  0.45593999997E+02  0.45594000000E+02  0.51100000000E-03 0.  1.
         11   -1    0    0    0    0 -0.00000000000E+00 -0.00000000000E+00 -0.45593999997E+02  0.45594000000E+02  0.51100000000E-03 0. -1.
    9900012    2    1    2    0    0 -0.29220378021E+02  0.42077594216E+01  0.34023194553E+02  0.46142317647E+02  0.99999989622E+01 0.  0.
         12    1    1    2    0    0  0.29220378021E+02 -0.42077594216E+01 -0.34023194553E+02  0.45045682353E+02  0.00000000000E+00 0. -1.
         11    1    3    3    0    0 -0.62026758396E+01 -0.16643466806E+01  0.43587469833E+01  0.77615663993E+01  0.51100000000E-03 0. -1.
        -11    1    3    3    0    0 -0.48347772464E+01 -0.56011881029E+00  0.41465858557E+01  0.63939798735E+01  0.51100000000E-03 0.  1.
        -12    1    3    3    0    0 -0.18182924935E+02  0.64322249125E+01  0.25517861714E+02  0.31986771374E+02  0.00000000000E+00 0.  1.
</event>
<event>
 7    1  0.2312612E-008  0.4614232E+02  0.7816164E-02  0.1320468E+00
        -11   -1    0    0    0    0  0.00000000000E+00  0.00000000000E+00  0.45593999997E+02  0.45594000000E+02  0.51100000000E-03 0.  1.
         11   -1    0    0    0    0 -0.00000000000E+00 -0.00000000000E+00 -0.45593999997E+02  0.45594000000E+02  0.51100000000E-03 0. -1.
    9900012    2    1    2    0    0 -0.39537017666E+02  0.13988625282E+02  0.16439466615E+02  0.46142318012E+02  0.10000002291E+02 0.  0.
         12    1    1    2    0    0  0.39537017666E+02 -0.13988625282E+02 -0.16439466615E+02  0.45045681988E+02  0.00000000000E+00 0. -1.
         11    1    3    3    0    0 -0.23503205241E-01  0.53998308020E+00 -0.55038117339E+00  0.77139731961E+00  0.51100000000E-03 0. -1.
        -11    1    3    3    0    0 -0.36411553480E+02  0.13567259714E+02  0.14837675583E+02  0.41593609845E+02  0.51100000000E-03 0.  1.
        -12    1    3    3    0    0 -0.31019609801E+01 -0.11861751268E+00  0.21521722056E+01  0.37773108476E+01  0.00000000000E+00 0.  1.
</event>
<event>
 7    1  0.2312612E-008  0.4614232E+02  0.7816164E-02  0.1320468E+00
        -11   -1    0    0    0    0  0.00000000000E+00  0.00000000000E+00  0.45593999997E+02  0.45594000000E+02  0.51100000000E-03 0. -1.
         11   -1    0    0    0    0 -0.00000000000E+00 -0.00000000000E+00 -0.45593999997E+02  0.45594000000E+02  0.51100000000E-03 0.  1.
    9900012    2    1    2    0    0 -0.72838953599E+01 -0.10953576897E+02 -0.43082217418E+02  0.46142318341E+02  0.10000005287E+02 0.  0.
         12    1    1    2    0    0  0.72838953599E+01  0.10953576897E+02  0.43082217418E+02  0.45045681659E+02  0.00000000000E+00 0. -1.
         11    1    3    3    0    0  0.11638840717E+00 -0.17383807732E+01 -0.61188369906E+00  0.18465957587E+01  0.51100000000E-03 0. -1.
        -11    1    3    3    0    0 -0.22149961399E+01 -0.59045382414E+01 -0.18359411938E+02  0.19412310185E+02  0.51100000000E-03 0.  1.
        -12    1    3    3    0    0 -0.51852876272E+01 -0.33106578823E+01 -0.24110921781E+02  0.24883412397E+02  0.00000000000E+00 0.  1.
</event>
<event>
 7    1  0.2312612E-008  0.4614232E+02  0.7816164E-02  0.1320468E+00
        -11   -1    0    0    0    0  0.00000000000E+00  0.00000000000E+00  0.45593999997E+02  0.45594000000E+02  0.51100000000E-03 0.  1.
         11   -1    0    0    0    0 -0.00000000000E+00 -0.00000000000E+00 -0.45593999997E+02  0.45594000000E+02  0.51100000000E-03 0. -1.
    9900012    2    1    2    0    0 -0.12765186492E+02 -0.72577700063E-01  0.43199050500E+02  0.46142320764E+02  0.10000027386E+02 0.  0.
         12    1    1    2    0    0  0.12765186492E+02  0.72577700063E-01 -0.43199050500E+02  0.45045679236E+02  0.00000000000E+00 0. -1.
         11    1    3    3    0    0 -0.99953970409E+00 -0.26324569026E+01  0.11657361150E+02  0.11992621824E+02  0.51100000000E-03 0. -1.
        -11    1    3    3    0    0 -0.81703676524E+01 -0.62030406958E+00  0.17844732338E+02  0.19636042300E+02  0.51100000000E-03 0.  1.
        -12    1    3    3    0    0 -0.35952791352E+01  0.31801832721E+01  0.13696957011E+02  0.14513656640E+02  0.00000000000E+00 0.  1.
</event>
<event>
 7    1  0.2312612E-008  0.4614232E+02  0.7816164E-02  0.1320468E+00
        -11   -1    0    0    0    0  0.00000000000E+00  0.00000000000E+00  0.45593999997E+02  0.45594000000E+02  0.51100000000E-03 0.  1.
         11   -1    0    0    0    0 -0.00000000000E+00 -0.00000000000E+00 -0.45593999997E+02  0.45594000000E+02  0.51100000000E-03 0. -1.
    9900012    2    1    2    0    0 -0.21766445933E+02 -0.16871188531E+01  0.39401636208E+02  0.46142317916E+02  0.10000001409E+02 0.  0.
         12    1    1    2    0    0  0.21766445933E+02  0.16871188531E+01 -0.39401636208E+02  0.45045682084E+02  0.00000000000E+00 0. -1.
         11    1    3    3    0    0 -0.44205107935E+01 -0.23951190264E+01  0.13098162017E+02  0.14029945093E+02  0.51100000000E-03 0. -1.
        -11    1    3    3    0    0 -0.16250607641E+02 -0.94359797219E+00  0.21932714784E+02  0.27313304522E+02  0.51100000000E-03 0.  1.
         12    1    3    3    0    0 -0.10953274982E+01  0.16515981455E+01  0.43707594065E+01  0.47990683004E+01  0.00000000000E+00 0. -1.
</event>
<event>
 7    1  0.2312612E-008  0.4614232E+02  0.7816164E-02  0.1320468E+00
        -11   -1    0    0    0    0  0.00000000000E+00  0.00000000000E+00  0.45593999997E+02  0.45594000000E+02  0.51100000000E-03 0. -1.
         11   -1    0    0    0    0 -0.00000000000E+00 -0.00000000000E+00 -0.45593999997E+02  0.45594000000E+02  0.51100000000E-03 0.  1.
    9900012    2    1    2    0    0  0.14987681806E+02 -0.92505464049E+01 -0.41459742496E+02  0.46142318048E+02  0.10000002615E+02 0.  0.
         12    1    1    2    0    0 -0.14987681806E+02  0.92505464049E+01  0.41459742496E+02  0.45045681952E+02  0.00000000000E+00 0. -1.
         11    1    3    3    0    0  0.35595668701E+01 -0.92119458138E+00 -0.43519191982E+01  0.56972200877E+01  0.51100000000E-03 0. -1.
        -11    1    3    3    0    0  0.84906987769E+01 -0.16275078332E+01 -0.17564590516E+02  0.19576914663E+02  0.51100000000E-03 0.  1.
        -12    1    3    3    0    0  0.29374161587E+01 -0.67018439904E+01 -0.19543232782E+02  0.20868183298E+02  0.00000000000E+00 0.  1.
</event>
<event>
 7    1  0.2312612E-008  0.4614232E+02  0.7816164E-02  0.1320468E+00
        -11   -1    0    0    0    0  0.00000000000E+00  0.00000000000E+00  0.45593999997E+02  0.45594000000E+02  0.51100000000E-03 0. -1.
         11   -1    0    0    0    0 -0.00000000000E+00 -0.00000000000E+00 -0.45593999997E+02  0.45594000000E+02  0.51100000000E-03 0.  1.
    9900012    2    1    2    0    0 -0.30244738726E+02  0.33334813073E+02 -0.17774956471E+01  0.46142317921E+02  0.10000001456E+02 0.  0.
         12    1    1    2    0    0  0.30244738726E+02 -0.33334813073E+02  0.17774956471E+01  0.45045682079E+02  0.00000000000E+00 0. -1.
         11    1    3    3    0    0 -0.15784064457E+01 -0.68149090408E-01  0.71872543529E+00  0.17356778845E+01  0.51100000000E-03 0. -1.
        -11    1    3    3    0    0 -0.14404804682E+02  0.20700183702E+02 -0.20638705027E+01  0.25303271823E+02  0.51100000000E-03 0.  1.
         12    1    3    3    0    0 -0.14261527598E+02  0.12702778462E+02 -0.43235057964E+00  0.19103368214E+02  0.00000000000E+00 0. -1.
</event>
<event>
 7    1  0.2312612E-008  0.4614232E+02  0.7816164E-02  0.1320468E+00
        -11   -1    0    0    0    0  0.00000000000E+00  0.00000000000E+00  0.45593999997E+02  0.45594000000E+02  0.51100000000E-03 0.  1.
         11   -1    0    0    0    0 -0.00000000000E+00 -0.00000000000E+00 -0.45593999997E+02  0.45594000000E+02  0.51100000000E-03 0. -1.
    9900012    2    1    2    0    0 -0.12040219464E+02  0.36838936462E+02  0.22957338520E+02  0.46142317451E+02  0.99999971740E+01 0.  0.
         12    1    1    2    0    0  0.12040219464E+02 -0.36838936462E+02 -0.22957338520E+02  0.45045682549E+02  0.00000000000E+00 0. -1.
         11    1    3    3    0    0  0.32703924050E+00 -0.54277169905E+00  0.20606376633E+00  0.66634699597E+00  0.51100000000E-03 0. -1.
        -11    1    3    3    0    0 -0.36617907788E+01  0.10650430395E+02  0.64377440221E+01  0.12972468064E+02  0.51100000000E-03 0.  1.
         12    1    3    3    0    0 -0.87054679262E+01  0.26731277765E+02  0.16313530731E+02  0.32503502391E+02  0.00000000000E+00 0. -1.
</event>
<event>
 7    1  0.2312612E-008  0.4614232E+02  0.7816164E-02  0.1320468E+00
        -11   -1    0    0    0    0  0.00000000000E+00  0.00000000000E+00  0.45593999997E+02  0.45594000000E+02  0.51100000000E-03 0.  1.
         11   -1    0    0    0    0 -0.00000000000E+00 -0.00000000000E+00 -0.45593999997E+02  0.45594000000E+02  0.51100000000E-03 0. -1.
    9900012    2    1    2    0    0 -0.14163344384E+02  0.95176982915E+01  0.41688446557E+02  0.46142317841E+02  0.10000000726E+02 0.  0.
         12    1    1    2    0    0  0.14163344384E+02 -0.95176982915E+01 -0.41688446557E+02  0.45045682159E+02  0.00000000000E+00 0. -1.
         11    1    3    3    0    0 -0.32294822280E+00  0.18743795722E+01  0.26426281915E+01  0.32559297221E+01  0.51100000000E-03 0. -1.
        -11    1    3    3    0    0 -0.86026538231E+01  0.88102571523E+01  0.28751751301E+02  0.31277619587E+02  0.51100000000E-03 0.  1.
        -12    1    3    3    0    0 -0.52377423378E+01 -0.11669384331E+01  0.10294067064E+02  0.11608768532E+02  0.00000000000E+00 0.  1.
</event>
<event>
 7    1  0.2312612E-008  0.4614232E+02  0.7816164E-02  0.1320468E+00
        -11   -1    0    0    0    0  0.00000000000E+00  0.00000000000E+00  0.45593999997E+02  0.45594000000E+02  0.51100000000E-03 0.  1.
         11   -1    0    0    0    0 -0.00000000000E+00 -0.00000000000E+00 -0.45593999997E+02  0.45594000000E+02  0.51100000000E-03 0. -1.
    9900012    2    1    2    0    0  0.40321419841E+02  0.17691100295E+02  0.95037685069E+01  0.46142317150E+02  0.99999944244E+01 0.  0.
         12    1    1    2    0    0 -0.40321419841E+02 -0.17691100295E+02 -0.95037685069E+01  0.45045682850E+02  0.00000000000E+00 0. -1.
         11    1    3    3    0    0  0.18747534517E+01  0.13578913012E+01  0.26839251861E+01  0.35442945640E+01  0.51100000000E-03 0. -1.
        -11    1    3    3    0    0  0.12060096750E+02  0.27449551749E+01  0.19459849975E+01  0.12520685701E+02  0.51100000000E-03 0.  1.
        -12    1    3    3    0    0  0.26386569639E+02  0.13588253819E+02  0.48738583233E+01  0.30077336885E+02  0.00000000000E+00 0.  1.
</event>
<event>
 7    1  0.2312612E-008  0.4614232E+02  0.7816164E-02  0.1320468E+00
        -11   -1    0    0    0    0  0.00000000000E+00  0.00000000000E+00  0.45593999997E+02  0.45594000000E+02  0.51100000000E-03 0. -1.
         11   -1    0    0    0    0 -0.00000000000E+00 -0.00000000000E+00 -0.45593999997E+02  0.45594000000E+02  0.51100000000E-03 0.  1.
    9900012    2    1    2    0    0  0.14565174848E+02 -0.38213859738E+02 -0.18885708338E+02  0.46142319032E+02  0.10000011587E+02 0.  0.
         12    1    1    2    0    0 -0.14565174848E+02  0.38213859738E+02  0.18885708338E+02  0.45045680968E+02  0.00000000000E+00 0. -1.
         11    1    3    3    0    0  0.83760985571E+01 -0.15436576021E+02 -0.38473162343E+01  0.17979119799E+02  0.51100000000E-03 0. -1.
        -11    1    3    3    0    0  0.47638561003E+01 -0.11569249001E+02 -0.77168994820E+01  0.14700081132E+02  0.51100000000E-03 0.  1.
         12    1    3    3    0    0  0.14252201908E+01 -0.11208034715E+02 -0.73214926220E+01  0.13463118101E+02  0.00000000000E+00 0. -1.
</event>
<event>
 7    1  0.2312612E-008  0.4614232E+02  0.7816164E-02  0.1320468E+00
        -11   -1    0    0    0    0  0.00000000000E+00  0.00000000000E+00  0.45593999997E+02  0.45594000000E+02  0.51100000000E-03 0.  1.
         11   -1    0    0    0    0 -0.00000000000E+00 -0.00000000000E+00 -0.45593999997E+02  0.45594000000E+02  0.51100000000E-03 0. -1.
    9900012    2    1    2    0    0 -0.42557860495E+02 -0.68770614147E+01  0.13063228211E+02  0.46142318799E+02  0.10000009461E+02 0.  0.
         12    1    1    2    0    0  0.42557860495E+02  0.68770614147E+01 -0.13063228211E+02  0.45045681201E+02  0.00000000000E+00 0. -1.
         11    1    3    3    0    0 -0.88044132189E+00 -0.55105730942E+00  0.94879801775E+00  0.14067903252E+01  0.51100000000E-03 0. -1.
        -11    1    3    3    0    0 -0.97911172506E+01 -0.51523554691E+01  0.44109267919E+01  0.11910878193E+02  0.51100000000E-03 0.  1.
         12    1    3    3    0    0 -0.31886301922E+02 -0.11736486362E+01  0.77035034017E+01  0.32824650281E+02  0.00000000000E+00 0. -1.
</event>
<event>
 7    1  0.2312612E-008  0.4614232E+02  0.7816164E-02  0.1320468E+00
        -11   -1    0    0    0    0  0.00000000000E+00  0.00000000000E+00  0.45593999997E+02  0.45594000000E+02  0.51100000000E-03 0.  1.
         11   -1    0    0    0    0 -0.00000000000E+00 -0.00000000000E+00 -0.45593999997E+02  0.45594000000E+02  0.51100000000E-03 0. -1.
    9900012    2    1    2    0    0  0.40577626826E+02 -0.85199682925E+01 -0.17606241301E+02  0.46142318838E+02  0.10000009823E+02 0.  0.
         12    1    1    2    0    0 -0.40577626826E+02  0.85199682925E+01  0.17606241301E+02  0.45045681162E+02  0.00000000000E+00 0. -1.
         11    1    3    3    0    0  0.12770690448E+02 -0.65290058529E+00 -0.37839453608E+01  0.13335481110E+02  0.51100000000E-03 0. -1.
        -11    1    3    3    0    0  0.14225708078E+02 -0.71219809161E+01 -0.53598334651E+01  0.16787531014E+02  0.51100000000E-03 0.  1.
         12    1    3    3    0    0  0.13581228300E+02 -0.74508679116E+00 -0.84624624752E+01  0.16019306714E+02  0.00000000000E+00 0. -1.
</event>
<event>
 7    1  0.2312612E-008  0.4614232E+02  0.7816164E-02  0.1320468E+00
        -11   -1    0    0    0    0  0.00000000000E+00  0.00000000000E+00  0.45593999997E+02  0.45594000000E+02  0.51100000000E-03 0.  1.
         11   -1    0    0    0    0 -0.00000000000E+00 -0.00000000000E+00 -0.45593999997E+02  0.45594000000E+02  0.51100000000E-03 0. -1.
    9900012    2    1    2    0    0 -0.23369185801E+02 -0.29094938514E+02  0.25228537779E+02  0.46142318625E+02  0.10000007873E+02 0.  0.
         12    1    1    2    0    0  0.23369185801E+02  0.29094938514E+02 -0.25228537779E+02  0.45045681375E+02  0.00000000000E+00 0. -1.
         11    1    3    3    0    0  0.14597114353E+00 -0.13631833934E+01  0.19704847718E+00  0.13850649452E+01  0.51100000000E-03 0. -1.
        -11    1    3    3    0    0 -0.13810589737E+02 -0.20861167796E+02  0.14782429592E+02  0.29059265916E+02  0.51100000000E-03 0.  1.
         12    1    3    3    0    0 -0.97045672082E+01 -0.68705873241E+01  0.10249059710E+02  0.15697987763E+02  0.00000000000E+00 0. -1.
</event>
<event>
 7    1  0.2312612E-008  0.4614232E+02  0.7816164E-02  0.1320468E+00
        -11   -1    0    0    0    0  0.00000000000E+00  0.00000000000E+00  0.45593999997E+02  0.45594000000E+02  0.51100000000E-03 0.  1.
         11   -1    0    0    0    0 -0.00000000000E+00 -0.00000000000E+00 -0.45593999997E+02  0.45594000000E+02  0.51100000000E-03 0. -1.
    9900012    2    1    2    0    0  0.12797008529E+02 -0.27917469805E+01  0.43099374601E+02  0.46142319080E+02  0.10000012028E+02 0.  0.
         12    1    1    2    0    0 -0.12797008529E+02  0.27917469805E+01 -0.43099374601E+02  0.45045680920E+02  0.00000000000E+00 0. -1.
         11    1    3    3    0    0  0.74550984652E+00  0.23570327844E+01  0.71828291818E+01  0.75963427908E+01  0.51100000000E-03 0. -1.
        -11    1    3    3    0    0  0.99711908062E+01 -0.21544325074E+01  0.23836574537E+02  0.25927755619E+02  0.51100000000E-03 0.  1.
        -12    1    3    3    0    0  0.20803078762E+01 -0.29943472576E+01  0.12079970883E+02  0.12618220671E+02  0.00000000000E+00 0.  1.
</event>
<event>
 7    1  0.2312612E-008  0.4614232E+02  0.7816164E-02  0.1320468E+00
        -11   -1    0    0    0    0  0.00000000000E+00  0.00000000000E+00  0.45593999997E+02  0.45594000000E+02  0.51100000000E-03 0.  1.
         11   -1    0    0    0    0 -0.00000000000E+00 -0.00000000000E+00 -0.45593999997E+02  0.45594000000E+02  0.51100000000E-03 0. -1.
    9900012    2    1    2    0    0  0.11822079497E+02 -0.33128740394E+02  0.28139624443E+02  0.46142317992E+02  0.10000002107E+02 0.  0.
         12    1    1    2    0    0 -0.11822079497E+02  0.33128740394E+02 -0.28139624443E+02  0.45045682008E+02  0.00000000000E+00 0. -1.
         11    1    3    3    0    0  0.46925617180E+01 -0.97218743053E+01  0.79223532461E+01  0.13390244834E+02  0.51100000000E-03 0. -1.
        -11    1    3    3    0    0  0.37618321054E+01 -0.21611609661E+02  0.17604368798E+02  0.28126977334E+02  0.51100000000E-03 0.  1.
         12    1    3    3    0    0  0.33676856736E+01 -0.17952564286E+01  0.26129023990E+01  0.46250958246E+01  0.00000000000E+00 0. -1.
</event>
<event>
 7    1  0.2312612E-008  0.4614232E+02  0.7816164E-02  0.1320468E+00
        -11   -1    0    0    0    0  0.00000000000E+00  0.00000000000E+00  0.45593999997E+02  0.45594000000E+02  0.51100000000E-03 0.  1.
         11   -1    0    0    0    0 -0.00000000000E+00 -0.00000000000E+00 -0.45593999997E+02  0.45594000000E+02  0.51100000000E-03 0. -1.
    9900012    2    1    2    0    0  0.36377927915E+01  0.40284215008E+02  0.19825791814E+02  0.46142317229E+02  0.99999951516E+01 0.  0.
         12    1    1    2    0    0 -0.36377927915E+01 -0.40284215008E+02 -0.19825791814E+02  0.45045682771E+02  0.00000000000E+00 0. -1.
         11    1    3    3    0    0  0.15568976727E+01  0.13375434064E+02  0.32160431895E+01  0.13844461016E+02  0.51100000000E-03 0. -1.
        -11    1    3    3    0    0  0.19009487715E+00  0.22444838761E+02  0.11376063580E+02  0.25163897670E+02  0.51100000000E-03 0.  1.
         12    1    3    3    0    0  0.18908002417E+01  0.44639421830E+01  0.52336850439E+01  0.71339585439E+01  0.00000000000E+00 0. -1.
</event>
<event>
 7    1  0.2312612E-008  0.4614232E+02  0.7816164E-02  0.1320468E+00
        -11   -1    0    0    0    0  0.00000000000E+00  0.00000000000E+00  0.45593999997E+02  0.45594000000E+02  0.51100000000E-03 0.  1.
         11   -1    0    0    0    0 -0.00000000000E+00 -0.00000000000E+00 -0.45593999997E+02  0.45594000000E+02  0.51100000000E-03 0. -1.
    9900012    2    1    2    0    0 -0.11685388644E+02  0.20104243662E+02  0.38579587904E+02  0.46142317367E+02  0.99999964103E+01 0.  0.
         12    1    1    2    0    0  0.11685388644E+02 -0.20104243662E+02 -0.38579587904E+02  0.45045682633E+02  0.00000000000E+00 0. -1.
         11    1    3    3    0    0  0.13225767731E+00  0.49584507135E+00  0.42021045399E+01  0.42333246100E+01  0.51100000000E-03 0. -1.
        -11    1    3    3    0    0 -0.92744804355E+01  0.85367936100E+01  0.17670956994E+02  0.21706117890E+02  0.51100000000E-03 0.  1.
        -12    1    3    3    0    0 -0.25431658856E+01  0.11071604981E+02  0.16706526370E+02  0.20202874868E+02  0.00000000000E+00 0.  1.
</event>
<event>
 7    1  0.2312612E-008  0.4614232E+02  0.7816164E-02  0.1320468E+00
        -11   -1    0    0    0    0  0.00000000000E+00  0.00000000000E+00  0.45593999997E+02  0.45594000000E+02  0.51100000000E-03 0. -1.
         11   -1    0    0    0    0 -0.00000000000E+00 -0.00000000000E+00 -0.45593999997E+02  0.45594000000E+02  0.51100000000E-03 0.  1.
    9900012    2    1    2    0    0  0.44604526862E+02  0.29801566703E+01 -0.55378656208E+01  0.46142322005E+02  0.10000038701E+02 0.  0.
         12    1    1    2    0    0 -0.44604526862E+02 -0.29801566703E+01  0.55378656208E+01  0.45045677995E+02  0.00000000000E+00 0. -1.
         11    1    3    3    0    0  0.18133472315E+02  0.32741897502E+01  0.41311828797E+00  0.18431326693E+02  0.51100000000E-03 0. -1.
        -11    1    3    3    0    0  0.19144862272E+02 -0.14690928965E+01 -0.20006159353E+01  0.19305088700E+02  0.51100000000E-03 0.  1.
         12    1    3    3    0    0  0.73261922757E+01  0.11750598166E+01 -0.39503679735E+01  0.84059066114E+01  0.00000000000E+00 0. -1.
</event>
<event>
 7    1  0.2312612E-008  0.4614232E+02  0.7816164E-02  0.1320468E+00
        -11   -1    0    0    0    0  0.00000000000E+00  0.00000000000E+00  0.45593999997E+02  0.45594000000E+02  0.51100000000E-03 0.  1.
         11   -1    0    0    0    0 -0.00000000000E+00 -0.00000000000E+00 -0.45593999997E+02  0.45594000000E+02  0.51100000000E-03 0. -1.
    9900012    2    1    2    0    0 -0.42883253342E+02  0.51670410799E+01  0.12784433024E+02  0.46142318094E+02  0.10000003031E+02 0.  0.
         12    1    1    2    0    0  0.42883253342E+02 -0.51670410799E+01 -0.12784433024E+02  0.45045681906E+02  0.00000000000E+00 0. -1.
         11    1    3    3    0    0 -0.24156352089E+01 -0.18218232127E+01 -0.55399865372E-01  0.30261200715E+01  0.51100000000E-03 0. -1.
        -11    1    3    3    0    0 -0.10013814575E+02  0.59311462103E+00  0.27141198976E+01  0.10392050538E+02  0.51100000000E-03 0.  1.
        -12    1    3    3    0    0 -0.30453803557E+02  0.63957496716E+01  0.10125712992E+02  0.32724147484E+02  0.00000000000E+00 0.  1.
</event>
<event>
 7    1  0.2312612E-008  0.4614232E+02  0.7816164E-02  0.1320468E+00
        -11   -1    0    0    0    0  0.00000000000E+00  0.00000000000E+00  0.45593999997E+02  0.45594000000E+02  0.51100000000E-03 0.  1.
         11   -1    0    0    0    0 -0.00000000000E+00 -0.00000000000E+00 -0.45593999997E+02  0.45594000000E+02  0.51100000000E-03 0. -1.
    9900012    2    1    2    0    0 -0.19375827554E+01 -0.44660987088E+02  0.55457631025E+01  0.46142317820E+02  0.10000000541E+02 0.  0.
         12    1    1    2    0    0  0.19375827554E+01  0.44660987088E+02 -0.55457631025E+01  0.45045682180E+02  0.00000000000E+00 0. -1.
         11    1    3    3    0    0 -0.24083834545E+01 -0.19962013267E+02 -0.16854411840E+01  0.20177289134E+02  0.51100000000E-03 0. -1.
        -11    1    3    3    0    0 -0.14162070306E+01 -0.72812145030E+01  0.22205893236E+01  0.77429157426E+01  0.51100000000E-03 0.  1.
         12    1    3    3    0    0  0.18870077297E+01 -0.17417759318E+02  0.50106149630E+01  0.18222112944E+02  0.00000000000E+00 0. -1.
</event>
<event>
 7    1  0.2312612E-008  0.4614232E+02  0.7816164E-02  0.1320468E+00
        -11   -1    0    0    0    0  0.00000000000E+00  0.00000000000E+00  0.45593999997E+02  0.45594000000E+02  0.51100000000E-03 0.  1.
         11   -1    0    0    0    0 -0.00000000000E+00 -0.00000000000E+00 -0.45593999997E+02  0.45594000000E+02  0.51100000000E-03 0. -1.
    9900012    2    1    2    0    0 -0.99073279757E+01 -0.11495187588E+02  0.42412485674E+02  0.46142318450E+02  0.10000006280E+02 0.  0.
         12    1    1    2    0    0  0.99073279757E+01  0.11495187588E+02 -0.42412485674E+02  0.45045681550E+02  0.00000000000E+00 0. -1.
         11    1    3    3    0    0 -0.26709167126E+01 -0.60159828623E+01  0.90730534054E+01  0.11209199090E+02  0.51100000000E-03 0. -1.
        -11    1    3    3    0    0 -0.37808835709E+01 -0.43813610675E+01  0.12423822991E+02  0.13705574900E+02  0.51100000000E-03 0.  1.
         12    1    3    3    0    0 -0.34555276922E+01 -0.10978436586E+01  0.20915609278E+02  0.21227544460E+02  0.00000000000E+00 0. -1.
</event>
<event>
 7    1  0.2312612E-008  0.4614232E+02  0.7816164E-02  0.1320468E+00
        -11   -1    0    0    0    0  0.00000000000E+00  0.00000000000E+00  0.45593999997E+02  0.45594000000E+02  0.51100000000E-03 0.  1.
         11   -1    0    0    0    0 -0.00000000000E+00 -0.00000000000E+00 -0.45593999997E+02  0.45594000000E+02  0.51100000000E-03 0. -1.
    9900012    2    1    2    0    0 -0.10521050403E+02 -0.40076960151E+02  0.17670831087E+02  0.46142317545E+02  0.99999980313E+01 0.  0.
         12    1    1    2    0    0  0.10521050403E+02  0.40076960151E+02 -0.17670831087E+02  0.45045682455E+02  0.00000000000E+00 0. -1.
         11    1    3    3    0    0 -0.11964967028E+01 -0.26596637983E+01 -0.96270211622E+00  0.30711905680E+01  0.51100000000E-03 0. -1.
        -11    1    3    3    0    0 -0.17590555602E+01 -0.15955775659E+02  0.69722244809E+01  0.17501227609E+02  0.51100000000E-03 0.  1.
         12    1    3    3    0    0 -0.75654981402E+01 -0.21461520693E+02  0.11661308723E+02  0.25569899368E+02  0.00000000000E+00 0. -1.
</event>
<event>
 7    1  0.2312612E-008  0.4614232E+02  0.7816164E-02  0.1320468E+00
        -11   -1    0    0    0    0  0.00000000000E+00  0.00000000000E+00  0.45593999997E+02  0.45594000000E+02  0.51100000000E-03 0.  1.
         11   -1    0    0    0    0 -0.00000000000E+00 -0.00000000000E+00 -0.45593999997E+02  0.45594000000E+02  0.51100000000E-03 0. -1.
    9900012    2    1    2    0    0 -0.48381499772E+01 -0.43651436584E+02  0.10012888029E+02  0.46142317213E+02  0.99999950002E+01 0.  0.
         12    1    1    2    0    0  0.48381499772E+01  0.43651436584E+02 -0.10012888029E+02  0.45045682787E+02  0.00000000000E+00 0. -1.
         11    1    3    3    0    0  0.49549351193E+00 -0.11922932727E+01  0.13833090660E+01  0.18922529698E+01  0.51100000000E-03 0. -1.
        -11    1    3    3    0    0 -0.64167441941E+01 -0.35687857704E+02  0.90741403592E+01  0.37378306771E+02  0.51100000000E-03 0.  1.
         12    1    3    3    0    0  0.10831007050E+01 -0.67712856075E+01 -0.44456139621E+00  0.68717574717E+01  0.00000000000E+00 0. -1.
</event>
<event>
 7    1  0.2312612E-008  0.4614231E+02  0.7816164E-02  0.1320468E+00
        -11   -1    0    0    0    0  0.00000000000E+00  0.00000000000E+00  0.45593999997E+02  0.45594000000E+02  0.51100000000E-03 0. -1.
         11   -1    0    0    0    0 -0.00000000000E+00 -0.00000000000E+00 -0.45593999997E+02  0.45594000000E+02  0.51100000000E-03 0.  1.
    9900012    2    1    2    0    0 -0.14799447682E+02  0.19843293261E+02 -0.37634213219E+02  0.46142312707E+02  0.99999539079E+01 0.  0.
         12    1    1    2    0    0  0.14799447682E+02 -0.19843293261E+02  0.37634213219E+02  0.45045687293E+02  0.00000000000E+00 0. -1.
         11    1    3    3    0    0 -0.74926564608E+01  0.85546828272E+01 -0.22351925087E+02  0.25078497851E+02  0.51100000000E-03 0. -1.
        -11    1    3    3    0    0 -0.60927690812E+01  0.11011284375E+02 -0.11377247903E+02  0.16965022510E+02  0.51100000000E-03 0.  1.
        -12    1    3    3    0    0 -0.12140221396E+01  0.27732605874E+00 -0.39050402290E+01  0.40987923451E+01  0.00000000000E+00 0.  1.
</event>
<event>
 7    1  0.2312612E-008  0.4614232E+02  0.7816164E-02  0.1320468E+00
        -11   -1    0    0    0    0  0.00000000000E+00  0.00000000000E+00  0.45593999997E+02  0.45594000000E+02  0.51100000000E-03 0.  1.
         11   -1    0    0    0    0 -0.00000000000E+00 -0.00000000000E+00 -0.45593999997E+02  0.45594000000E+02  0.51100000000E-03 0. -1.
    9900012    2    1    2    0    0  0.33801720184E+02 -0.84963850456E+01  0.28537148221E+02  0.46142315691E+02  0.99999811271E+01 0.  0.
         12    1    1    2    0    0 -0.33801720184E+02  0.84963850456E+01 -0.28537148221E+02  0.45045684309E+02  0.00000000000E+00 0. -1.
         11    1    3    3    0    0  0.40254334721E+00 -0.19277575591E+01  0.98127945960E+00  0.22002727086E+01  0.51100000000E-03 0. -1.
        -11    1    3    3    0    0  0.20902631342E+02 -0.26117588574E+01  0.15763609188E+02  0.26310314636E+02  0.51100000000E-03 0.  1.
        -12    1    3    3    0    0  0.12496545494E+02 -0.39568686291E+01  0.11792259574E+02  0.17631728347E+02  0.00000000000E+00 0.  1.
</event>
<event>
 7    1  0.2312612E-008  0.4614232E+02  0.7816164E-02  0.1320468E+00
        -11   -1    0    0    0    0  0.00000000000E+00  0.00000000000E+00  0.45593999997E+02  0.45594000000E+02  0.51100000000E-03 0.  1.
         11   -1    0    0    0    0 -0.00000000000E+00 -0.00000000000E+00 -0.45593999997E+02  0.45594000000E+02  0.51100000000E-03 0. -1.
    9900012    2    1    2    0    0  0.60498108472E+01 -0.18884562371E+02  0.40446094785E+02  0.46142317736E+02  0.99999997720E+01 0.  0.
         12    1    1    2    0    0 -0.60498108472E+01  0.18884562371E+02 -0.40446094785E+02  0.45045682264E+02  0.00000000000E+00 0. -1.
         11    1    3    3    0    0 -0.14849126362E+01 -0.45746102749E+01  0.13137829523E+02  0.13990517844E+02  0.51100000000E-03 0. -1.
        -11    1    3    3    0    0  0.19153901230E+01 -0.34496580955E+01  0.11552205648E+02  0.12207469676E+02  0.51100000000E-03 0.  1.
        -12    1    3    3    0    0  0.56193333603E+01 -0.10860294001E+02  0.15756059614E+02  0.19944330216E+02  0.00000000000E+00 0.  1.
</event>
<event>
 7    1  0.2312612E-008  0.4614232E+02  0.7816164E-02  0.1320468E+00
        -11   -1    0    0    0    0  0.00000000000E+00  0.00000000000E+00  0.45593999997E+02  0.45594000000E+02  0.51100000000E-03 0.  1.
         11   -1    0    0    0    0 -0.00000000000E+00 -0.00000000000E+00 -0.45593999997E+02  0.45594000000E+02  0.51100000000E-03 0. -1.
    9900012    2    1    2    0    0  0.41303807765E+01 -0.29131759539E+02  0.34108560598E+02  0.46142319127E+02  0.10000012458E+02 0.  0.
         12    1    1    2    0    0 -0.41303807765E+01  0.29131759539E+02 -0.34108560598E+02  0.45045680873E+02  0.00000000000E+00 0. -1.
         11    1    3    3    0    0 -0.53825606978E+00 -0.80402891896E+01  0.10798330491E+02  0.13473674758E+02  0.51100000000E-03 0.  1.
        -11    1    3    3    0    0  0.64261575250E+01 -0.17880686580E+02  0.17683613261E+02  0.25956206027E+02  0.51100000000E-03 0. -1.
         12    1    3    3    0    0 -0.17575206787E+01 -0.32107837699E+01  0.56266168467E+01  0.67124383418E+01  0.00000000000E+00 0. -1.
</event>
<event>
 7    1  0.2312612E-008  0.4614231E+02  0.7816164E-02  0.1320468E+00
        -11   -1    0    0    0    0  0.00000000000E+00  0.00000000000E+00  0.45593999997E+02  0.45594000000E+02  0.51100000000E-03 0. -1.
         11   -1    0    0    0    0 -0.00000000000E+00 -0.00000000000E+00 -0.45593999997E+02  0.45594000000E+02  0.51100000000E-03 0.  1.
    9900012    2    1    2    0    0  0.57416663639E+01 -0.34550482841E+02 -0.28326871768E+02  0.46142309181E+02  0.99999217598E+01 0.  0.
         12    1    1    2    0    0 -0.57416663639E+01  0.34550482841E+02  0.28326871768E+02  0.45045690819E+02  0.00000000000E+00 0. -1.
         11    1    3    3    0    0 -0.22587169268E+01 -0.55863896987E+01 -0.58405432807E+01  0.83917517895E+01  0.51100000000E-03 0. -1.
        -11    1    3    3    0    0  0.25753943585E+01 -0.10406118157E+02 -0.10478182395E+02  0.14990405523E+02  0.51100000000E-03 0.  1.
         12    1    3    3    0    0  0.54249889322E+01 -0.18557974986E+02 -0.12008146092E+02  0.22760151868E+02  0.00000000000E+00 0. -1.
</event>
<event>
 7    1  0.2312612E-008  0.4614232E+02  0.7816164E-02  0.1320468E+00
        -11   -1    0    0    0    0  0.00000000000E+00  0.00000000000E+00  0.45593999997E+02  0.45594000000E+02  0.51100000000E-03 0.  1.
         11   -1    0    0    0    0 -0.00000000000E+00 -0.00000000000E+00 -0.45593999997E+02  0.45594000000E+02  0.51100000000E-03 0. -1.
    9900012    2    1    2    0    0  0.13521828541E+02  0.54129288245E+01  0.42625975967E+02  0.46142317935E+02  0.10000001581E+02 0.  0.
         12    1    1    2    0    0 -0.13521828541E+02 -0.54129288245E+01 -0.42625975967E+02  0.45045682065E+02  0.00000000000E+00 0. -1.
         11    1    3    3    0    0  0.37207290835E+01  0.30824762060E+01  0.70655667156E+01  0.85596564036E+01  0.51100000000E-03 0. -1.
        -11    1    3    3    0    0  0.10688270087E+02  0.12511831671E+01  0.31173357322E+02  0.32978520036E+02  0.51100000000E-03 0.  1.
         12    1    3    3    0    0 -0.88717062856E+00  0.10792694514E+01  0.43870519300E+01  0.46041414953E+01  0.00000000000E+00 0. -1.
</event>
<event>
 7    1  0.2312612E-008  0.4614232E+02  0.7816164E-02  0.1320468E+00
        -11   -1    0    0    0    0  0.00000000000E+00  0.00000000000E+00  0.45593999997E+02  0.45594000000E+02  0.51100000000E-03 0.  1.
         11   -1    0    0    0    0 -0.00000000000E+00 -0.00000000000E+00 -0.45593999997E+02  0.45594000000E+02  0.51100000000E-03 0. -1.
    9900012    2    1    2    0    0 -0.10646633117E+02  0.89110987387E+01  0.42852713581E+02  0.46142317202E+02  0.99999949045E+01 0.  0.
         12    1    1    2    0    0  0.10646633117E+02 -0.89110987387E+01 -0.42852713581E+02  0.45045682798E+02  0.00000000000E+00 0. -1.
         11    1    3    3    0    0 -0.50004323941E+00 -0.24940880500E+00  0.21809036539E+01  0.22513527049E+01  0.51100000000E-03 0. -1.
        -11    1    3    3    0    0 -0.10531051808E+02  0.79268837321E+01  0.40495722102E+02  0.42586876461E+02  0.51100000000E-03 0.  1.
         12    1    3    3    0    0  0.38446193045E+00  0.12336238117E+01  0.17608782515E+00  0.13040880364E+01  0.00000000000E+00 0. -1.
</event>
<event>
 7    1  0.2312612E-008  0.4614232E+02  0.7816164E-02  0.1320468E+00
        -11   -1    0    0    0    0  0.00000000000E+00  0.00000000000E+00  0.45593999997E+02  0.45594000000E+02  0.51100000000E-03 0. -1.
         11   -1    0    0    0    0 -0.00000000000E+00 -0.00000000000E+00 -0.45593999997E+02  0.45594000000E+02  0.51100000000E-03 0.  1.
    9900012    2    1    2    0    0  0.37461944143E+02 -0.24923660122E+02  0.21277922438E+01  0.46142316603E+02  0.99999894386E+01 0.  0.
         12    1    1    2    0    0 -0.37461944143E+02  0.24923660122E+02 -0.21277922438E+01  0.45045683397E+02  0.00000000000E+00 0. -1.
         11    1    3    3    0    0  0.64898109636E+01 -0.60435324430E+01 -0.87211012426E+00  0.89108084405E+01  0.51100000000E-03 0. -1.
        -11    1    3    3    0    0  0.17920376529E+02 -0.11352940884E+02 -0.21177507169E+01  0.21319334652E+02  0.51100000000E-03 0.  1.
         12    1    3    3    0    0  0.13051756651E+02 -0.75271867947E+01  0.51176530850E+01  0.15912173510E+02  0.00000000000E+00 0. -1.
</event>
<event>
 7    1  0.2312612E-008  0.4614232E+02  0.7816164E-02  0.1320468E+00
        -11   -1    0    0    0    0  0.00000000000E+00  0.00000000000E+00  0.45593999997E+02  0.45594000000E+02  0.51100000000E-03 0.  1.
         11   -1    0    0    0    0 -0.00000000000E+00 -0.00000000000E+00 -0.45593999997E+02  0.45594000000E+02  0.51100000000E-03 0. -1.
    9900012    2    1    2    0    0 -0.31667593047E+02 -0.22371804187E+02  0.22929880112E+02  0.46142317921E+02  0.10000001459E+02 0.  0.
         12    1    1    2    0    0  0.31667593047E+02  0.22371804187E+02 -0.22929880112E+02  0.45045682079E+02  0.00000000000E+00 0. -1.
         11    1    3    3    0    0 -0.24104928364E+02 -0.17953803102E+02  0.17264221918E+02  0.34661794183E+02  0.51100000000E-03 0. -1.
        -11    1    3    3    0    0 -0.63299068360E+01 -0.54593389330E+01  0.49554547376E+01  0.97174396862E+01  0.51100000000E-03 0.  1.
         12    1    3    3    0    0 -0.12327578474E+01  0.10413378486E+01  0.71020345706E+00  0.17630840523E+01  0.00000000000E+00 0. -1.
</event>
<event>
 7    1  0.2312612E-008  0.4614232E+02  0.7816164E-02  0.1320468E+00
        -11   -1    0    0    0    0  0.00000000000E+00  0.00000000000E+00  0.45593999997E+02  0.45594000000E+02  0.51100000000E-03 0.  1.
         11   -1    0    0    0    0 -0.00000000000E+00 -0.00000000000E+00 -0.45593999997E+02  0.45594000000E+02  0.51100000000E-03 0. -1.
    9900012    2    1    2    0    0  0.20179218687E+02  0.32455891980E+02  0.23843815820E+02  0.46142319365E+02  0.10000014623E+02 0.  0.
         12    1    1    2    0    0 -0.20179218687E+02 -0.32455891980E+02 -0.23843815820E+02  0.45045680635E+02  0.00000000000E+00 0. -1.
         11    1    3    3    0    0 -0.50254177438E-01 -0.38466779984E+00  0.75572829964E+00  0.84948238509E+00  0.51100000000E-03 0. -1.
        -11    1    3    3    0    0  0.92653704839E+01  0.18876123909E+02  0.10315304785E+02  0.23421371803E+02  0.51100000000E-03 0.  1.
         12    1    3    3    0    0  0.10964102381E+02  0.13964435871E+02  0.12772782735E+02  0.21871465177E+02  0.00000000000E+00 0. -1.
</event>
<event>
 7    1  0.2312612E-008  0.4614232E+02  0.7816164E-02  0.1320468E+00
        -11   -1    0    0    0    0  0.00000000000E+00  0.00000000000E+00  0.45593999997E+02  0.45594000000E+02  0.51100000000E-03 0.  1.
         11   -1    0    0    0    0 -0.00000000000E+00 -0.00000000000E+00 -0.45593999997E+02  0.45594000000E+02  0.51100000000E-03 0. -1.
    9900012    2    1    2    0    0 -0.44705828337E+02  0.24729820622E+01 -0.49382905695E+01  0.46142318283E+02  0.10000004762E+02 0.  0.
         12    1    1    2    0    0  0.44705828337E+02 -0.24729820622E+01  0.49382905695E+01  0.45045681717E+02  0.00000000000E+00 0. -1.
         11    1    3    3    0    0 -0.31761702906E+01 -0.22290550787E+01 -0.33145670108E+00  0.38944329581E+01  0.51100000000E-03 0. -1.
        -11    1    3    3    0    0 -0.21770178282E+01 -0.32237304326E+00  0.47559413238E+00  0.22515596913E+01  0.51100000000E-03 0.  1.
         12    1    3    3    0    0 -0.39352640218E+02  0.50244101841E+01 -0.50824280008E+01  0.39996325634E+02  0.00000000000E+00 0. -1.
</event>
<event>
 7    1  0.2312612E-008  0.4614232E+02  0.7816164E-02  0.1320468E+00
        -11   -1    0    0    0    0  0.00000000000E+00  0.00000000000E+00  0.45593999997E+02  0.45594000000E+02  0.51100000000E-03 0. -1.
         11   -1    0    0    0    0 -0.00000000000E+00 -0.00000000000E+00 -0.45593999997E+02  0.45594000000E+02  0.51100000000E-03 0.  1.
    9900012    2    1    2    0    0 -0.21266458023E+02 -0.39601845536E+02 -0.29232009597E+01  0.46142317515E+02  0.99999977545E+01 0.  0.
         12    1    1    2    0    0  0.21266458023E+02  0.39601845536E+02  0.29232009597E+01  0.45045682485E+02  0.00000000000E+00 0. -1.
         11    1    3    3    0    0 -0.14555687506E+01 -0.88191411757E+01 -0.21045898742E+01  0.91828770145E+01  0.51100000000E-03 0. -1.
        -11    1    3    3    0    0 -0.50118411836E+01 -0.45423006458E+01  0.66808886338E+00  0.67968662041E+01  0.51100000000E-03 0.  1.
        -12    1    3    3    0    0 -0.14799048089E+02 -0.26240403715E+02 -0.14866999489E+01  0.30162574296E+02  0.00000000000E+00 0.  1.
</event>
<event>
 7    1  0.2312612E-008  0.4614232E+02  0.7816164E-02  0.1320468E+00
        -11   -1    0    0    0    0  0.00000000000E+00  0.00000000000E+00  0.45593999997E+02  0.45594000000E+02  0.51100000000E-03 0.  1.
         11   -1    0    0    0    0 -0.00000000000E+00 -0.00000000000E+00 -0.45593999997E+02  0.45594000000E+02  0.51100000000E-03 0. -1.
    9900012    2    1    2    0    0 -0.61840814536E+01  0.93013727369E+01  0.43638917345E+02  0.46142317573E+02  0.99999982865E+01 0.  0.
         12    1    1    2    0    0  0.61840814536E+01 -0.93013727369E+01 -0.43638917345E+02  0.45045682427E+02  0.00000000000E+00 0. -1.
         11    1    3    3    0    0 -0.37529676733E+01  0.23648040709E+01  0.24269044133E+02  0.24671107961E+02  0.51100000000E-03 0. -1.
        -11    1    3    3    0    0  0.18416629384E+01  0.18613690916E+01  0.59662316784E+01  0.65155458693E+01  0.51100000000E-03 0.  1.
         12    1    3    3    0    0 -0.42727767186E+01  0.50751995744E+01  0.13403641534E+02  0.14955663743E+02  0.00000000000E+00 0. -1.
</event>
<event>
 7    1  0.2312612E-008  0.4614233E+02  0.7816164E-02  0.1320468E+00
        -11   -1    0    0    0    0  0.00000000000E+00  0.00000000000E+00  0.45593999997E+02  0.45594000000E+02  0.51100000000E-03 0.  1.
         11   -1    0    0    0    0 -0.00000000000E+00 -0.00000000000E+00 -0.45593999997E+02  0.45594000000E+02  0.51100000000E-03 0. -1.
    9900012    2    1    2    0    0 -0.27133541989E+02 -0.35130557859E+02  0.76633734801E+01  0.46142328849E+02  0.10000101106E+02 0.  0.
         12    1    1    2    0    0  0.27133541989E+02  0.35130557859E+02 -0.76633734801E+01  0.45045671151E+02  0.00000000000E+00 0. -1.
         11    1    3    3    0    0 -0.14218739589E+01 -0.37761340832E+01 -0.26412382045E+00  0.40435968917E+01  0.51100000000E-03 0. -1.
        -11    1    3    3    0    0 -0.26294910260E+01 -0.81984928792E+01  0.24133174775E+01  0.89416782572E+01  0.51100000000E-03 0.  1.
        -12    1    3    3    0    0 -0.23082177004E+02 -0.23155930897E+02  0.55141798230E+01  0.33157053700E+02  0.00000000000E+00 0.  1.
</event>
<event>
 7    1  0.2312612E-008  0.4614232E+02  0.7816164E-02  0.1320468E+00
        -11   -1    0    0    0    0  0.00000000000E+00  0.00000000000E+00  0.45593999997E+02  0.45594000000E+02  0.51100000000E-03 0.  1.
         11   -1    0    0    0    0 -0.00000000000E+00 -0.00000000000E+00 -0.45593999997E+02  0.45594000000E+02  0.51100000000E-03 0. -1.
    9900012    2    1    2    0    0 -0.15731020165E+02  0.41075134214E+02  0.97201786391E+01  0.46142317422E+02  0.99999969059E+01 0.  0.
         12    1    1    2    0    0  0.15731020165E+02 -0.41075134214E+02 -0.97201786391E+01  0.45045682578E+02  0.00000000000E+00 0. -1.
         11    1    3    3    0    0 -0.97169475410E+01  0.19697723970E+02  0.34029217328E+01  0.22226094477E+02  0.51100000000E-03 0.  1.
        -11    1    3    3    0    0  0.12475828369E+01  0.25375828402E+01  0.12950452762E+01  0.31101337808E+01  0.51100000000E-03 0. -1.
         12    1    3    3    0    0 -0.72616554613E+01  0.18839827404E+02  0.50222116302E+01  0.20806089164E+02  0.00000000000E+00 0. -1.
</event>
<event>
 7    1  0.2312612E-008  0.4614232E+02  0.7816164E-02  0.1320468E+00
        -11   -1    0    0    0    0  0.00000000000E+00  0.00000000000E+00  0.45593999997E+02  0.45594000000E+02  0.51100000000E-03 0.  1.
         11   -1    0    0    0    0 -0.00000000000E+00 -0.00000000000E+00 -0.45593999997E+02  0.45594000000E+02  0.51100000000E-03 0. -1.
    9900012    2    1    2    0    0 -0.29141234767E+02  0.59759419234E+01  0.33825878608E+02  0.46142317529E+02  0.99999978832E+01 0.  0.
         12    1    1    2    0    0  0.29141234767E+02 -0.59759419234E+01 -0.33825878608E+02  0.45045682471E+02  0.00000000000E+00 0. -1.
         11    1    3    3    0    0 -0.20161046805E+02  0.12493599120E+01  0.19682252721E+02  0.28203187424E+02  0.51100000000E-03 0. -1.
        -11    1    3    3    0    0 -0.11217570464E+01  0.87472610568E+00  0.14489356440E+00  0.14298528026E+01  0.51100000000E-03 0.  1.
        -12    1    3    3    0    0 -0.78584309166E+01  0.38518559057E+01  0.13998732323E+02  0.16509277302E+02  0.00000000000E+00 0.  1.
</event>
<event>
 7    1  0.2312612E-008  0.4614232E+02  0.7816164E-02  0.1320468E+00
        -11   -1    0    0    0    0  0.00000000000E+00  0.00000000000E+00  0.45593999997E+02  0.45594000000E+02  0.51100000000E-03 0.  1.
         11   -1    0    0    0    0 -0.00000000000E+00 -0.00000000000E+00 -0.45593999997E+02  0.45594000000E+02  0.51100000000E-03 0. -1.
    9900012    2    1    2    0    0  0.17044820086E+01  0.44410739327E+02 -0.73412875875E+01  0.46142317300E+02  0.99999957942E+01 0.  0.
         12    1    1    2    0    0 -0.17044820086E+01 -0.44410739327E+02  0.73412875875E+01  0.45045682700E+02  0.00000000000E+00 0. -1.
         11    1    3    3    0    0  0.16820987446E+01  0.15408754869E+01 -0.30307816961E+00  0.23012192617E+01  0.51100000000E-03 0. -1.
        -11    1    3    3    0    0  0.25461730720E+01  0.28081607352E+02 -0.33733562032E+01  0.28397873179E+02  0.51100000000E-03 0.  1.
         12    1    3    3    0    0 -0.25237898080E+01  0.14788256488E+02 -0.36648532147E+01  0.15443224859E+02  0.00000000000E+00 0. -1.
</event>
<event>
 7    1  0.2312612E-008  0.4614232E+02  0.7816164E-02  0.1320468E+00
        -11   -1    0    0    0    0  0.00000000000E+00  0.00000000000E+00  0.45593999997E+02  0.45594000000E+02  0.51100000000E-03 0. -1.
         11   -1    0    0    0    0 -0.00000000000E+00 -0.00000000000E+00 -0.45593999997E+02  0.45594000000E+02  0.51100000000E-03 0.  1.
    9900012    2    1    2    0    0 -0.37486287497E+02  0.19039246313E+02  0.16167833217E+02  0.46142317839E+02  0.10000000706E+02 0.  0.
         12    1    1    2    0    0  0.37486287497E+02 -0.19039246313E+02 -0.16167833217E+02  0.45045682161E+02  0.00000000000E+00 0. -1.
         11    1    3    3    0    0 -0.89528038785E+01  0.30818429428E+01  0.71311828140E+01  0.11853447676E+02  0.51100000000E-03 0. -1.
        -11    1    3    3    0    0 -0.13920473651E+02  0.55659656821E+01  0.57627333270E+01  0.16061402688E+02  0.51100000000E-03 0.  1.
         12    1    3    3    0    0 -0.14613009967E+02  0.10391437689E+02  0.32739170762E+01  0.18227467475E+02  0.00000000000E+00 0. -1.
</event>
<event>
 7    1  0.2312612E-008  0.4614232E+02  0.7816164E-02  0.1320468E+00
        -11   -1    0    0    0    0  0.00000000000E+00  0.00000000000E+00  0.45593999997E+02  0.45594000000E+02  0.51100000000E-03 0.  1.
         11   -1    0    0    0    0 -0.00000000000E+00 -0.00000000000E+00 -0.45593999997E+02  0.45594000000E+02  0.51100000000E-03 0. -1.
    9900012    2    1    2    0    0  0.29084934331E+02  0.85407227296E+01  0.33320205781E+02  0.46142318042E+02  0.10000002558E+02 0.  0.
         12    1    1    2    0    0 -0.29084934331E+02 -0.85407227296E+01 -0.33320205781E+02  0.45045681958E+02  0.00000000000E+00 0. -1.
         11    1    3    3    0    0  0.56018673353E+01  0.43670702959E+01  0.73815832180E+01  0.10244022241E+02  0.51100000000E-03 0. -1.
        -11    1    3    3    0    0  0.55575939876E+01  0.14748230387E+01  0.10985472179E+02  0.12399296479E+02  0.51100000000E-03 0.  1.
        -12    1    3    3    0    0  0.17925473009E+02  0.26988293951E+01  0.14953150384E+02  0.23498999321E+02  0.00000000000E+00 0.  1.
</event>
<event>
 7    1  0.2312612E-008  0.4614232E+02  0.7816164E-02  0.1320468E+00
        -11   -1    0    0    0    0  0.00000000000E+00  0.00000000000E+00  0.45593999997E+02  0.45594000000E+02  0.51100000000E-03 0.  1.
         11   -1    0    0    0    0 -0.00000000000E+00 -0.00000000000E+00 -0.45593999997E+02  0.45594000000E+02  0.51100000000E-03 0. -1.
    9900012    2    1    2    0    0  0.23275868302E+02  0.32070023883E+02  0.21421040320E+02  0.46142318237E+02  0.10000004341E+02 0.  0.
         12    1    1    2    0    0 -0.23275868302E+02 -0.32070023883E+02 -0.21421040320E+02  0.45045681763E+02  0.00000000000E+00 0. -1.
         11    1    3    3    0    0  0.14970271907E+02  0.18355871223E+02  0.15174062824E+02  0.28130041454E+02  0.51100000000E-03 0. -1.
        -11    1    3    3    0    0  0.39233238270E+01  0.42755894599E+01  0.47496483576E+01  0.74988195647E+01  0.51100000000E-03 0.  1.
         12    1    3    3    0    0  0.43822725687E+01  0.94385631998E+01  0.14973291381E+01  0.10513457219E+02  0.00000000000E+00 0. -1.
</event>
<event>
 7    1  0.2312612E-008  0.4614233E+02  0.7816164E-02  0.1320468E+00
        -11   -1    0    0    0    0  0.00000000000E+00  0.00000000000E+00  0.45593999997E+02  0.45594000000E+02  0.51100000000E-03 0.  1.
         11   -1    0    0    0    0 -0.00000000000E+00 -0.00000000000E+00 -0.45593999997E+02  0.45594000000E+02  0.51100000000E-03 0. -1.
    9900012    2    1    2    0    0 -0.74962551171E+01 -0.29593882334E+02  0.33122816319E+02  0.46142326809E+02  0.10000082501E+02 0.  0.
         12    1    1    2    0    0  0.74962551171E+01  0.29593882334E+02 -0.33122816319E+02  0.45045673191E+02  0.00000000000E+00 0. -1.
         11    1    3    3    0    0 -0.20024945676E+01 -0.18549409719E+02  0.15527458148E+02  0.24273288657E+02  0.51100000000E-03 0. -1.
        -11    1    3    3    0    0 -0.56344187397E+01 -0.11256236873E+02  0.16549232526E+02  0.20792465956E+02  0.51100000000E-03 0.  1.
         12    1    3    3    0    0  0.14065819016E+00  0.21176425809E+00  0.10461256443E+01  0.10765721951E+01  0.00000000000E+00 0. -1.
</event>
<event>
 7    1  0.2312612E-008  0.4614232E+02  0.7816164E-02  0.1320468E+00
        -11   -1    0    0    0    0  0.00000000000E+00  0.00000000000E+00  0.45593999997E+02  0.45594000000E+02  0.51100000000E-03 0. -1.
         11   -1    0    0    0    0 -0.00000000000E+00 -0.00000000000E+00 -0.45593999997E+02  0.45594000000E+02  0.51100000000E-03 0.  1.
    9900012    2    1    2    0    0  0.27250835887E+02  0.29704068791E+02 -0.20104072019E+02  0.46142317954E+02  0.10000001758E+02 0.  0.
         12    1    1    2    0    0 -0.27250835887E+02 -0.29704068791E+02  0.20104072019E+02  0.45045682046E+02  0.00000000000E+00 0. -1.
         11    1    3    3    0    0  0.60540987272E+01  0.20522232695E+01 -0.15104273717E+01  0.65684947175E+01  0.51100000000E-03 0. -1.
        -11    1    3    3    0    0  0.85105559558E+01  0.92523593638E+01 -0.72222681961E+01  0.14498167975E+02  0.51100000000E-03 0.  1.
         12    1    3    3    0    0  0.12686181204E+02  0.18399486158E+02 -0.11371376451E+02  0.25075655261E+02  0.00000000000E+00 0. -1.
</event>
<event>
 7    1  0.2312612E-008  0.4614232E+02  0.7816164E-02  0.1320468E+00
        -11   -1    0    0    0    0  0.00000000000E+00  0.00000000000E+00  0.45593999997E+02  0.45594000000E+02  0.51100000000E-03 0.  1.
         11   -1    0    0    0    0 -0.00000000000E+00 -0.00000000000E+00 -0.45593999997E+02  0.45594000000E+02  0.51100000000E-03 0. -1.
    9900012    2    1    2    0    0 -0.30289089187E+02  0.18784574144E+02  0.27546761140E+02  0.46142320974E+02  0.10000029301E+02 0.  0.
         12    1    1    2    0    0  0.30289089187E+02 -0.18784574144E+02 -0.27546761140E+02  0.45045679026E+02  0.00000000000E+00 0. -1.
         11    1    3    3    0    0 -0.17463064844E+02  0.11837520694E+02  0.12735089908E+02  0.24642809198E+02  0.51100000000E-03 0. -1.
        -11    1    3    3    0    0 -0.12384024381E+02  0.76536923909E+01  0.14644229446E+02  0.20649371017E+02  0.51100000000E-03 0.  1.
        -12    1    3    3    0    0 -0.44199996252E+00 -0.70663894040E+00  0.16744178536E+00  0.85014075920E+00  0.00000000000E+00 0.  1.
</event>
<event>
 7    1  0.2312612E-008  0.4614232E+02  0.7816164E-02  0.1320468E+00
        -11   -1    0    0    0    0  0.00000000000E+00  0.00000000000E+00  0.45593999997E+02  0.45594000000E+02  0.51100000000E-03 0.  1.
         11   -1    0    0    0    0 -0.00000000000E+00 -0.00000000000E+00 -0.45593999997E+02  0.45594000000E+02  0.51100000000E-03 0. -1.
    9900012    2    1    2    0    0  0.27217833038E+02 -0.16828154028E+02  0.31703569219E+02  0.46142317582E+02  0.99999983699E+01 0.  0.
         12    1    1    2    0    0 -0.27217833038E+02  0.16828154028E+02 -0.31703569219E+02  0.45045682418E+02  0.00000000000E+00 0. -1.
         11    1    3    3    0    0  0.76291642456E+01 -0.27742858926E+01  0.11367893984E+02  0.13968887686E+02  0.51100000000E-03 0. -1.
        -11    1    3    3    0    0  0.15023305418E+01 -0.38756339458E+01  0.29068245417E+01  0.50721952561E+01  0.51100000000E-03 0.  1.
        -12    1    3    3    0    0  0.18086338250E+02 -0.10178234190E+02  0.17428850693E+02  0.27101234640E+02  0.00000000000E+00 0.  1.
</event>
<event>
 7    1  0.2312612E-008  0.4614232E+02  0.7816164E-02  0.1320468E+00
        -11   -1    0    0    0    0  0.00000000000E+00  0.00000000000E+00  0.45593999997E+02  0.45594000000E+02  0.51100000000E-03 0. -1.
         11   -1    0    0    0    0 -0.00000000000E+00 -0.00000000000E+00 -0.45593999997E+02  0.45594000000E+02  0.51100000000E-03 0.  1.
    9900012    2    1    2    0    0 -0.11721874286E+02  0.15653468085E+02 -0.40579306232E+02  0.46142317697E+02  0.99999994170E+01 0.  0.
         12    1    1    2    0    0  0.11721874286E+02 -0.15653468085E+02  0.40579306232E+02  0.45045682303E+02  0.00000000000E+00 0. -1.
         11    1    3    3    0    0 -0.17358792360E+00  0.65581078928E+01 -0.10246417585E+02  0.12166675202E+02  0.51100000000E-03 0. -1.
        -11    1    3    3    0    0 -0.18531689966E+01  0.13390649418E+01 -0.90647953531E+01  0.93486814740E+01  0.51100000000E-03 0.  1.
         12    1    3    3    0    0 -0.96951173657E+01  0.77562952501E+01 -0.21268093294E+02  0.24626961021E+02  0.00000000000E+00 0. -1.
</event>
<event>
 7    1  0.2312612E-008  0.4614232E+02  0.7816164E-02  0.1320468E+00
        -11   -1    0    0    0    0  0.00000000000E+00  0.00000000000E+00  0.45593999997E+02  0.45594000000E+02  0.51100000000E-03 0. -1.
         11   -1    0    0    0    0 -0.00000000000E+00 -0.00000000000E+00 -0.45593999997E+02  0.45594000000E+02  0.51100000000E-03 0.  1.
    9900012    2    1    2    0    0 -0.12192620567E+02  0.41055892348E+02 -0.13959484372E+02  0.46142317668E+02  0.99999991548E+01 0.  0.
         12    1    1    2    0    0  0.12192620567E+02 -0.41055892348E+02  0.13959484372E+02  0.45045682332E+02  0.00000000000E+00 0. -1.
         11    1    3    3    0    0 -0.49625874377E+01  0.84351191472E+01 -0.19978133271E+01  0.99884817392E+01  0.51100000000E-03 0. -1.
        -11    1    3    3    0    0 -0.21338800520E+01  0.41281951586E+01 -0.40066156459E+01  0.61358298982E+01  0.51100000000E-03 0.  1.
        -12    1    3    3    0    0 -0.50961530774E+01  0.28492578042E+02 -0.79550553993E+01  0.30018006031E+02  0.00000000000E+00 0.  1.
</event>
<event>
 7    1  0.2312612E-008  0.4614232E+02  0.7816164E-02  0.1320468E+00
        -11   -1    0    0    0    0  0.00000000000E+00  0.00000000000E+00  0.45593999997E+02  0.45594000000E+02  0.51100000000E-03 0.  1.
         11   -1    0    0    0    0 -0.00000000000E+00 -0.00000000000E+00 -0.45593999997E+02  0.45594000000E+02  0.51100000000E-03 0. -1.
    9900012    2    1    2    0    0  0.22882842281E+02  0.96512474756E+00  0.38788624727E+02  0.46142319354E+02  0.10000014523E+02 0.  0.
         12    1    1    2    0    0 -0.22882842281E+02 -0.96512474756E+00 -0.38788624727E+02  0.45045680646E+02  0.00000000000E+00 0. -1.
         11    1    3    3    0    0  0.16481761798E+01 -0.18640912860E+01  0.85678087038E+01  0.89218085211E+01  0.51100000000E-03 0. -1.
        -11    1    3    3    0    0  0.21477135940E+01  0.25868885106E+00  0.53040016237E+01  0.57281783395E+01  0.51100000000E-03 0.  1.
        -12    1    3    3    0    0  0.19086952508E+02  0.25705271825E+01  0.24916814400E+02  0.31492332493E+02  0.00000000000E+00 0.  1.
</event>
<event>
 7    1  0.2312612E-008  0.4614232E+02  0.7816164E-02  0.1320468E+00
        -11   -1    0    0    0    0  0.00000000000E+00  0.00000000000E+00  0.45593999997E+02  0.45594000000E+02  0.51100000000E-03 0.  1.
         11   -1    0    0    0    0 -0.00000000000E+00 -0.00000000000E+00 -0.45593999997E+02  0.45594000000E+02  0.51100000000E-03 0. -1.
    9900012    2    1    2    0    0 -0.39156064157E+02  0.48928367707E+01 -0.21725014213E+02  0.46142318137E+02  0.10000003431E+02 0.  0.
         12    1    1    2    0    0  0.39156064157E+02 -0.48928367707E+01  0.21725014213E+02  0.45045681863E+02  0.00000000000E+00 0. -1.
         11    1    3    3    0    0 -0.11982977287E+02 -0.15805073605E+01 -0.39131594332E+01  0.12704430927E+02  0.51100000000E-03 0.  1.
        -11    1    3    3    0    0 -0.17927769745E+02  0.60492253229E+01 -0.10470756984E+02  0.21624865482E+02  0.51100000000E-03 0. -1.
        -12    1    3    3    0    0 -0.92453171255E+01  0.42411880829E+00 -0.73410977959E+01  0.11813021729E+02  0.00000000000E+00 0.  1.
</event>
<event>
 7    1  0.2312612E-008  0.4614232E+02  0.7816164E-02  0.1320468E+00
        -11   -1    0    0    0    0  0.00000000000E+00  0.00000000000E+00  0.45593999997E+02  0.45594000000E+02  0.51100000000E-03 0. -1.
         11   -1    0    0    0    0 -0.00000000000E+00 -0.00000000000E+00 -0.45593999997E+02  0.45594000000E+02  0.51100000000E-03 0.  1.
    9900012    2    1    2    0    0 -0.31016673427E+02 -0.64954041129E+01 -0.32013891070E+02  0.46142317338E+02  0.99999961387E+01 0.  0.
         12    1    1    2    0    0  0.31016673427E+02  0.64954041129E+01  0.32013891070E+02  0.45045682662E+02  0.00000000000E+00 0. -1.
         11    1    3    3    0    0 -0.18311469274E+02 -0.34109523888E+01 -0.22084177803E+02  0.28890403470E+02  0.51100000000E-03 0. -1.
        -11    1    3    3    0    0 -0.76996177567E+01  0.57872812737E+00 -0.68714896030E+01  0.10336169961E+02  0.51100000000E-03 0.  1.
         12    1    3    3    0    0 -0.50055863962E+01 -0.36631798515E+01 -0.30582236639E+01  0.69157439060E+01  0.00000000000E+00 0. -1.
</event>
<event>
 7    1  0.2312612E-008  0.4614232E+02  0.7816164E-02  0.1320468E+00
        -11   -1    0    0    0    0  0.00000000000E+00  0.00000000000E+00  0.45593999997E+02  0.45594000000E+02  0.51100000000E-03 0. -1.
         11   -1    0    0    0    0 -0.00000000000E+00 -0.00000000000E+00 -0.45593999997E+02  0.45594000000E+02  0.51100000000E-03 0.  1.
    9900012    2    1    2    0    0  0.35307608827E+02 -0.12308475546E+02 -0.25119468831E+02  0.46142317347E+02  0.99999962212E+01 0.  0.
         12    1    1    2    0    0 -0.35307608827E+02  0.12308475546E+02  0.25119468831E+02  0.45045682653E+02  0.00000000000E+00 0. -1.
         11    1    3    3    0    0  0.42250608116E+01 -0.94658812073E-02 -0.38494443980E+01  0.57157196309E+01  0.51100000000E-03 0. -1.
        -11    1    3    3    0    0  0.13982287654E+02 -0.22067713835E+01 -0.11795368655E+02  0.18425659553E+02  0.51100000000E-03 0.  1.
        -12    1    3    3    0    0  0.17100260361E+02 -0.10092238281E+02 -0.94746557784E+01  0.22000938163E+02  0.00000000000E+00 0.  1.
</event>
<event>
 7    1  0.2312612E-008  0.4614232E+02  0.7816164E-02  0.1320468E+00
        -11   -1    0    0    0    0  0.00000000000E+00  0.00000000000E+00  0.45593999997E+02  0.45594000000E+02  0.51100000000E-03 0.  1.
         11   -1    0    0    0    0 -0.00000000000E+00 -0.00000000000E+00 -0.45593999997E+02  0.45594000000E+02  0.51100000000E-03 0. -1.
    9900012    2    1    2    0    0  0.13587995377E+02 -0.17881697045E+02  0.39047726398E+02  0.46142316029E+02  0.99999842073E+01 0.  0.
         12    1    1    2    0    0 -0.13587995377E+02  0.17881697045E+02 -0.39047726398E+02  0.45045683971E+02  0.00000000000E+00 0. -1.
         11    1    3    3    0    0 -0.68777109365E+00  0.38888853458E+00  0.91179855453E+00  0.12064991648E+01  0.51100000000E-03 0. -1.
        -11    1    3    3    0    0  0.12693512554E+02 -0.12825092593E+02  0.27707260544E+02  0.33065095616E+02  0.51100000000E-03 0.  1.
        -12    1    3    3    0    0  0.15822539164E+01 -0.54454929862E+01  0.10428667299E+02  0.11870721249E+02  0.00000000000E+00 0.  1.
</event>
<event>
 7    1  0.2312612E-008  0.4614232E+02  0.7816164E-02  0.1320468E+00
        -11   -1    0    0    0    0  0.00000000000E+00  0.00000000000E+00  0.45593999997E+02  0.45594000000E+02  0.51100000000E-03 0.  1.
         11   -1    0    0    0    0 -0.00000000000E+00 -0.00000000000E+00 -0.45593999997E+02  0.45594000000E+02  0.51100000000E-03 0. -1.
    9900012    2    1    2    0    0 -0.32541830331E+02 -0.28357193220E+02 -0.12884577064E+02  0.46142318134E+02  0.10000003403E+02 0.  0.
         12    1    1    2    0    0  0.32541830331E+02  0.28357193220E+02  0.12884577064E+02  0.45045681866E+02  0.00000000000E+00 0. -1.
         11    1    3    3    0    0 -0.19960645103E+02 -0.12623749959E+02 -0.63911038747E+01  0.24466970081E+02  0.51100000000E-03 0. -1.
        -11    1    3    3    0    0 -0.74282487742E+01 -0.57320243428E+01 -0.22321746437E+01  0.96445625520E+01  0.51100000000E-03 0.  1.
         12    1    3    3    0    0 -0.51529364539E+01 -0.10001418918E+02 -0.42612985457E+01  0.12030785501E+02  0.00000000000E+00 0. -1.
</event>
<event>
 7    1  0.2312612E-008  0.4614232E+02  0.7816164E-02  0.1320468E+00
        -11   -1    0    0    0    0  0.00000000000E+00  0.00000000000E+00  0.45593999997E+02  0.45594000000E+02  0.51100000000E-03 0.  1.
         11   -1    0    0    0    0 -0.00000000000E+00 -0.00000000000E+00 -0.45593999997E+02  0.45594000000E+02  0.51100000000E-03 0. -1.
    9900012    2    1    2    0    0  0.33669125735E+02  0.64057223308E+01  0.29231316762E+02  0.46142321118E+02  0.10000030612E+02 0.  0.
         12    1    1    2    0    0 -0.33669125735E+02 -0.64057223308E+01 -0.29231316762E+02  0.45045678882E+02  0.00000000000E+00 0. -1.
         11    1    3    3    0    0  0.64583102494E+01 -0.57838764697E+00  0.94096930420E+01  0.11427450589E+02  0.51100000000E-03 0. -1.
        -11    1    3    3    0    0  0.52826821722E+01 -0.29861031236E-01  0.53671039163E+01  0.75308317816E+01  0.51100000000E-03 0.  1.
        -12    1    3    3    0    0  0.21928133313E+02  0.70139710090E+01  0.14454519803E+02  0.27184038748E+02  0.00000000000E+00 0.  1.
</event>
<event>
 7    1  0.2312612E-008  0.4614232E+02  0.7816164E-02  0.1320468E+00
        -11   -1    0    0    0    0  0.00000000000E+00  0.00000000000E+00  0.45593999997E+02  0.45594000000E+02  0.51100000000E-03 0.  1.
         11   -1    0    0    0    0 -0.00000000000E+00 -0.00000000000E+00 -0.45593999997E+02  0.45594000000E+02  0.51100000000E-03 0. -1.
    9900012    2    1    2    0    0  0.38198694936E+02  0.20330021035E+02  0.12516523218E+02  0.46142318702E+02  0.10000008584E+02 0.  0.
         12    1    1    2    0    0 -0.38198694936E+02 -0.20330021035E+02 -0.12516523218E+02  0.45045681298E+02  0.00000000000E+00 0. -1.
         11    1    3    3    0    0  0.13978826482E+02  0.10308740727E+02  0.27520634619E+01  0.17585550282E+02  0.51100000000E-03 0. -1.
        -11    1    3    3    0    0  0.55870306085E+01  0.25570147350E+01  0.50125890597E+01  0.79296459390E+01  0.51100000000E-03 0.  1.
        -12    1    3    3    0    0  0.18632837846E+02  0.74642655736E+01  0.47518706966E+01  0.20627122481E+02  0.00000000000E+00 0.  1.
</event>
<event>
 7    1  0.2312612E-008  0.4614233E+02  0.7816164E-02  0.1320468E+00
        -11   -1    0    0    0    0  0.00000000000E+00  0.00000000000E+00  0.45593999997E+02  0.45594000000E+02  0.51100000000E-03 0.  1.
         11   -1    0    0    0    0 -0.00000000000E+00 -0.00000000000E+00 -0.45593999997E+02  0.45594000000E+02  0.51100000000E-03 0. -1.
    9900012    2    1    2    0    0 -0.34801845059E+02  0.15293853660E+02  0.24166956121E+02  0.46142332645E+02  0.10000135726E+02 0.  0.
         12    1    1    2    0    0  0.34801845059E+02 -0.15293853660E+02 -0.24166956121E+02  0.45045667355E+02  0.00000000000E+00 0. -1.
         11    1    3    3    0    0 -0.47642113921E+01  0.26136596296E+01  0.52567780534E+01  0.75605980327E+01  0.51100000000E-03 0.  1.
        -11    1    3    3    0    0 -0.12712991475E+02  0.32425023325E+01  0.35870251902E+01  0.13601497109E+02  0.51100000000E-03 0. -1.
         12    1    3    3    0    0 -0.17324642191E+02  0.94376916976E+01  0.15323152878E+02  0.24980237504E+02  0.00000000000E+00 0. -1.
</event>
<event>
 7    1  0.2312612E-008  0.4614232E+02  0.7816164E-02  0.1320468E+00
        -11   -1    0    0    0    0  0.00000000000E+00  0.00000000000E+00  0.45593999997E+02  0.45594000000E+02  0.51100000000E-03 0.  1.
         11   -1    0    0    0    0 -0.00000000000E+00 -0.00000000000E+00 -0.45593999997E+02  0.45594000000E+02  0.51100000000E-03 0. -1.
    9900012    2    1    2    0    0 -0.35090125993E+02  0.25098135922E+02 -0.12956855995E+02  0.46142317785E+02  0.10000000216E+02 0.  0.
         12    1    1    2    0    0  0.35090125993E+02 -0.25098135922E+02  0.12956855995E+02  0.45045682215E+02  0.00000000000E+00 0. -1.
         11    1    3    3    0    0 -0.11666974745E+02  0.77868922159E+01 -0.22378731609E+01  0.14204297471E+02  0.51100000000E-03 0. -1.
        -11    1    3    3    0    0 -0.14766046377E+02  0.15045255719E+02 -0.84086757727E+01  0.22695851466E+02  0.51100000000E-03 0.  1.
         12    1    3    3    0    0 -0.86571048703E+01  0.22659879867E+01 -0.23103070618E+01  0.92421688478E+01  0.00000000000E+00 0. -1.
</event>
<event>
 7    1  0.2312612E-008  0.4614232E+02  0.7816164E-02  0.1320468E+00
        -11   -1    0    0    0    0  0.00000000000E+00  0.00000000000E+00  0.45593999997E+02  0.45594000000E+02  0.51100000000E-03 0.  1.
         11   -1    0    0    0    0 -0.00000000000E+00 -0.00000000000E+00 -0.45593999997E+02  0.45594000000E+02  0.51100000000E-03 0. -1.
    9900012    2    1    2    0    0  0.32985190045E+02 -0.19563593965E+02  0.23629568731E+02  0.46142317748E+02  0.99999998799E+01 0.  0.
         12    1    1    2    0    0 -0.32985190045E+02  0.19563593965E+02 -0.23629568731E+02  0.45045682252E+02  0.00000000000E+00 0. -1.
         11    1    3    3    0    0  0.10141489000E+02 -0.31764841369E+01  0.59376467128E+01  0.12173557383E+02  0.51100000000E-03 0. -1.
        -11    1    3    3    0    0  0.73758649388E+01 -0.92164105539E+01  0.89177909659E+01  0.14794343617E+02  0.51100000000E-03 0.  1.
        -12    1    3    3    0    0  0.15467836106E+02 -0.71706992746E+01  0.87741310525E+01  0.19174416747E+02  0.00000000000E+00 0.  1.
</event>
<event>
 7    1  0.2312612E-008  0.4614232E+02  0.7816164E-02  0.1320468E+00
        -11   -1    0    0    0    0  0.00000000000E+00  0.00000000000E+00  0.45593999997E+02  0.45594000000E+02  0.51100000000E-03 0.  1.
         11   -1    0    0    0    0 -0.00000000000E+00 -0.00000000000E+00 -0.45593999997E+02  0.45594000000E+02  0.51100000000E-03 0. -1.
    9900012    2    1    2    0    0  0.27871220037E+02  0.33587463358E+02  0.11144094125E+02  0.46142318353E+02  0.10000005398E+02 0.  0.
         12    1    1    2    0    0 -0.27871220037E+02 -0.33587463358E+02 -0.11144094125E+02  0.45045681647E+02  0.00000000000E+00 0. -1.
         11    1    3    3    0    0  0.12264755215E+02  0.16148881077E+02  0.31840844876E+01  0.20526786763E+02  0.51100000000E-03 0. -1.
        -11    1    3    3    0    0  0.96668339907E+01  0.57809696019E+01  0.37428929878E+01  0.11869142223E+02  0.51100000000E-03 0.  1.
        -12    1    3    3    0    0  0.59396308315E+01  0.11657612679E+02  0.42171166492E+01  0.13746389367E+02  0.00000000000E+00 0.  1.
</event>
<event>
 7    1  0.2312612E-008  0.4614232E+02  0.7816164E-02  0.1320468E+00
        -11   -1    0    0    0    0  0.00000000000E+00  0.00000000000E+00  0.45593999997E+02  0.45594000000E+02  0.51100000000E-03 0.  1.
         11   -1    0    0    0    0 -0.00000000000E+00 -0.00000000000E+00 -0.45593999997E+02  0.45594000000E+02  0.51100000000E-03 0. -1.
    9900012    2    1    2    0    0  0.15288999097E+02 -0.38406319712E+02  0.17897335744E+02  0.46142317477E+02  0.99999974135E+01 0.  0.
         12    1    1    2    0    0 -0.15288999097E+02  0.38406319712E+02 -0.17897335744E+02  0.45045682523E+02  0.00000000000E+00 0. -1.
         11    1    3    3    0    0 -0.63209939199E+00 -0.36536881199E+00 -0.11200380294E+00  0.73864004977E+00  0.51100000000E-03 0. -1.
        -11    1    3    3    0    0  0.13052196319E+01 -0.17292947072E+01  0.24794030200E+01  0.32926430217E+01  0.51100000000E-03 0.  1.
        -12    1    3    3    0    0  0.14615878857E+02 -0.36311656192E+02  0.15529936527E+02  0.42111034406E+02  0.00000000000E+00 0.  1.
</event>
<event>
 7    1  0.2312612E-008  0.4614232E+02  0.7816164E-02  0.1320468E+00
        -11   -1    0    0    0    0  0.00000000000E+00  0.00000000000E+00  0.45593999997E+02  0.45594000000E+02  0.51100000000E-03 0.  1.
         11   -1    0    0    0    0 -0.00000000000E+00 -0.00000000000E+00 -0.45593999997E+02  0.45594000000E+02  0.51100000000E-03 0. -1.
    9900012    2    1    2    0    0 -0.38192504413E+02  0.21813903867E+02  0.97262390801E+01  0.46142317388E+02  0.99999966019E+01 0.  0.
         12    1    1    2    0    0  0.38192504413E+02 -0.21813903867E+02 -0.97262390801E+01  0.45045682612E+02  0.00000000000E+00 0. -1.
         11    1    3    3    0    0 -0.18911476380E+02  0.98171337460E+01  0.51407736905E+01  0.21919115134E+02  0.51100000000E-03 0.  1.
        -11    1    3    3    0    0 -0.18050747806E+02  0.82875740000E+01  0.41482173319E+01  0.20290911425E+02  0.51100000000E-03 0. -1.
         12    1    3    3    0    0 -0.12302802271E+01  0.37091961210E+01  0.43724805767E+00  0.39322908292E+01  0.00000000000E+00 0. -1.
</event>
<event>
 7    1  0.2312612E-008  0.4614232E+02  0.7816164E-02  0.1320468E+00
        -11   -1    0    0    0    0  0.00000000000E+00  0.00000000000E+00  0.45593999997E+02  0.45594000000E+02  0.51100000000E-03 0. -1.
         11   -1    0    0    0    0 -0.00000000000E+00 -0.00000000000E+00 -0.45593999997E+02  0.45594000000E+02  0.51100000000E-03 0.  1.
    9900012    2    1    2    0    0  0.82613800940E+01  0.15756300903E+02 -0.41383593525E+02  0.46142320604E+02  0.10000025920E+02 0.  0.
         12    1    1    2    0    0 -0.82613800940E+01 -0.15756300903E+02  0.41383593525E+02  0.45045679396E+02  0.00000000000E+00 0. -1.
         11    1    3    3    0    0 -0.73981837761E+00  0.37619416012E+01 -0.36747340580E+01  0.53106691199E+01  0.51100000000E-03 0. -1.
        -11    1    3    3    0    0  0.74518562614E+01  0.62998085828E+01 -0.23227926954E+02  0.25194331520E+02  0.51100000000E-03 0.  1.
        -12    1    3    3    0    0  0.15493422101E+01  0.56945507193E+01 -0.14480932514E+02  0.15637319963E+02  0.00000000000E+00 0.  1.
</event>
<event>
 7    1  0.2312612E-008  0.4614232E+02  0.7816164E-02  0.1320468E+00
        -11   -1    0    0    0    0  0.00000000000E+00  0.00000000000E+00  0.45593999997E+02  0.45594000000E+02  0.51100000000E-03 0.  1.
         11   -1    0    0    0    0 -0.00000000000E+00 -0.00000000000E+00 -0.45593999997E+02  0.45594000000E+02  0.51100000000E-03 0. -1.
    9900012    2    1    2    0    0  0.12789771651E+02 -0.35030141690E+01  0.43049554473E+02  0.46142317549E+02  0.99999980673E+01 0.  0.
         12    1    1    2    0    0 -0.12789771651E+02  0.35030141690E+01 -0.43049554473E+02  0.45045682451E+02  0.00000000000E+00 0. -1.
         11    1    3    3    0    0  0.20031569327E+00  0.79141341233E+00  0.25268354373E+01  0.26554395407E+01  0.51100000000E-03 0. -1.
        -11    1    3    3    0    0  0.35269376124E+01  0.17659498483E+01  0.52427076677E+01  0.65607813360E+01  0.51100000000E-03 0.  1.
        -12    1    3    3    0    0  0.90625183454E+01 -0.60603774296E+01  0.35280011368E+02  0.36926096672E+02  0.00000000000E+00 0.  1.
</event>
<event>
 7    1  0.2312612E-008  0.4614232E+02  0.7816164E-02  0.1320468E+00
        -11   -1    0    0    0    0  0.00000000000E+00  0.00000000000E+00  0.45593999997E+02  0.45594000000E+02  0.51100000000E-03 0.  1.
         11   -1    0    0    0    0 -0.00000000000E+00 -0.00000000000E+00 -0.45593999997E+02  0.45594000000E+02  0.51100000000E-03 0. -1.
    9900012    2    1    2    0    0  0.17084206412E+02 -0.39419152966E+02 -0.13541559230E+02  0.46142317014E+02  0.99999931862E+01 0.  0.
         12    1    1    2    0    0 -0.17084206412E+02  0.39419152966E+02  0.13541559230E+02  0.45045682986E+02  0.00000000000E+00 0. -1.
         11    1    3    3    0    0  0.30854862483E+01 -0.57973139971E+01 -0.37420839644E+01  0.75585889971E+01  0.51100000000E-03 0. -1.
        -11    1    3    3    0    0  0.33362635686E+01 -0.79977185873E+01 -0.60703743671E+01  0.10580340373E+02  0.51100000000E-03 0.  1.
        -12    1    3    3    0    0  0.10662456595E+02 -0.25624120382E+02 -0.37291008983E+01  0.28003387643E+02  0.00000000000E+00 0.  1.
</event>
<event>
 7    1  0.2312612E-008  0.4614232E+02  0.7816164E-02  0.1320468E+00
        -11   -1    0    0    0    0  0.00000000000E+00  0.00000000000E+00  0.45593999997E+02  0.45594000000E+02  0.51100000000E-03 0.  1.
         11   -1    0    0    0    0 -0.00000000000E+00 -0.00000000000E+00 -0.45593999997E+02  0.45594000000E+02  0.51100000000E-03 0. -1.
    9900012    2    1    2    0    0 -0.39061139597E+02 -0.28206479214E+01  0.22257240468E+02  0.46142318358E+02  0.10000005443E+02 0.  0.
         12    1    1    2    0    0  0.39061139597E+02  0.28206479214E+01 -0.22257240468E+02  0.45045681642E+02  0.00000000000E+00 0. -1.
         11    1    3    3    0    0 -0.72970276047E+01  0.18103831624E+01  0.44462335227E+01  0.87345916824E+01  0.51100000000E-03 0. -1.
        -11    1    3    3    0    0 -0.23510509357E+02 -0.53235988055E+01  0.10255050485E+02  0.26196389354E+02  0.51100000000E-03 0.  1.
         12    1    3    3    0    0 -0.82536026358E+01  0.69256772175E+00  0.75559564602E+01  0.11211337322E+02  0.00000000000E+00 0. -1.
</event>
<event>
 7    1  0.2312612E-008  0.4614232E+02  0.7816164E-02  0.1320468E+00
        -11   -1    0    0    0    0  0.00000000000E+00  0.00000000000E+00  0.45593999997E+02  0.45594000000E+02  0.51100000000E-03 0.  1.
         11   -1    0    0    0    0 -0.00000000000E+00 -0.00000000000E+00 -0.45593999997E+02  0.45594000000E+02  0.51100000000E-03 0. -1.
    9900012    2    1    2    0    0 -0.29213453913E+02  0.32688103828E+02 -0.10352565102E+02  0.46142316238E+02  0.99999861114E+01 0.  0.
         12    1    1    2    0    0  0.29213453913E+02 -0.32688103828E+02  0.10352565102E+02  0.45045683762E+02  0.00000000000E+00 0. -1.
         11    1    3    3    0    0 -0.12345201839E+02  0.16861298013E+02 -0.84668101031E+01  0.22547599711E+02  0.51100000000E-03 0. -1.
        -11    1    3    3    0    0 -0.86615943216E+01  0.10799618787E+02 -0.18775423136E+01  0.13970688871E+02  0.51100000000E-03 0.  1.
        -12    1    3    3    0    0 -0.82066577521E+01  0.50271870271E+01 -0.82126856771E-02  0.96240276555E+01  0.00000000000E+00 0.  1.
</event>
<event>
 7    1  0.2312612E-008  0.4614232E+02  0.7816164E-02  0.1320468E+00
        -11   -1    0    0    0    0  0.00000000000E+00  0.00000000000E+00  0.45593999997E+02  0.45594000000E+02  0.51100000000E-03 0.  1.
         11   -1    0    0    0    0 -0.00000000000E+00 -0.00000000000E+00 -0.45593999997E+02  0.45594000000E+02  0.51100000000E-03 0. -1.
    9900012    2    1    2    0    0  0.25802884675E+02 -0.33970832530E+01  0.36766617624E+02  0.46142320921E+02  0.10000028813E+02 0.  0.
         12    1    1    2    0    0 -0.25802884675E+02  0.33970832530E+01 -0.36766617624E+02  0.45045679079E+02  0.00000000000E+00 0. -1.
         11    1    3    3    0    0  0.10221664375E+01  0.41264600079E+00  0.58654585672E+00  0.12486541759E+01  0.51100000000E-03 0. -1.
        -11    1    3    3    0    0  0.13990417348E+02  0.15974275552E+01  0.15435009564E+02  0.20893134587E+02  0.51100000000E-03 0.  1.
         12    1    3    3    0    0  0.10790300890E+02 -0.54071568090E+01  0.20745062204E+02  0.24000532158E+02  0.00000000000E+00 0. -1.
</event>
<event>
 7    1  0.2312612E-008  0.4614232E+02  0.7816164E-02  0.1320468E+00
        -11   -1    0    0    0    0  0.00000000000E+00  0.00000000000E+00  0.45593999997E+02  0.45594000000E+02  0.51100000000E-03 0. -1.
         11   -1    0    0    0    0 -0.00000000000E+00 -0.00000000000E+00 -0.45593999997E+02  0.45594000000E+02  0.51100000000E-03 0.  1.
    9900012    2    1    2    0    0 -0.36748589783E+02  0.25384691077E+02 -0.58542370665E+01  0.46142317813E+02  0.10000000471E+02 0.  0.
         12    1    1    2    0    0  0.36748589783E+02 -0.25384691077E+02  0.58542370665E+01  0.45045682187E+02  0.00000000000E+00 0. -1.
         11    1    3    3    0    0 -0.56957519460E+01  0.74890979120E+01  0.44537088308E+00  0.94194762727E+01  0.51100000000E-03 0. -1.
        -11    1    3    3    0    0 -0.29316560126E+02  0.16256345082E+02 -0.47029450398E+01  0.33850364035E+02  0.51100000000E-03 0.  1.
        -12    1    3    3    0    0 -0.17362777110E+01  0.16392480832E+01 -0.15966629098E+01  0.28724775048E+01  0.00000000000E+00 0.  1.
</event>
<event>
 7    1  0.2312612E-008  0.4614232E+02  0.7816164E-02  0.1320468E+00
        -11   -1    0    0    0    0  0.00000000000E+00  0.00000000000E+00  0.45593999997E+02  0.45594000000E+02  0.51100000000E-03 0.  1.
         11   -1    0    0    0    0 -0.00000000000E+00 -0.00000000000E+00 -0.45593999997E+02  0.45594000000E+02  0.51100000000E-03 0. -1.
    9900012    2    1    2    0    0 -0.25841080382E+02  0.31550175809E+01  0.36761363659E+02  0.46142318416E+02  0.10000005975E+02 0.  0.
         12    1    1    2    0    0  0.25841080382E+02 -0.31550175809E+01 -0.36761363659E+02  0.45045681584E+02  0.00000000000E+00 0. -1.
         11    1    3    3    0    0 -0.42152015282E+01  0.34915236102E+00  0.35534911538E+01  0.55242312529E+01  0.51100000000E-03 0. -1.
        -11    1    3    3    0    0 -0.82163005988E+01 -0.14675187237E+01  0.70971772019E+01  0.10955871998E+02  0.51100000000E-03 0.  1.
         12    1    3    3    0    0 -0.13409578255E+02  0.42733839436E+01  0.26110695304E+02  0.29662215166E+02  0.00000000000E+00 0. -1.
</event>
<event>
 7    1  0.2312612E-008  0.4614232E+02  0.7816164E-02  0.1320468E+00
        -11   -1    0    0    0    0  0.00000000000E+00  0.00000000000E+00  0.45593999997E+02  0.45594000000E+02  0.51100000000E-03 0.  1.
         11   -1    0    0    0    0 -0.00000000000E+00 -0.00000000000E+00 -0.45593999997E+02  0.45594000000E+02  0.51100000000E-03 0. -1.
    9900012    2    1    2    0    0 -0.11910535298E+02 -0.15830761978E+02  0.40455401968E+02  0.46142318472E+02  0.10000006482E+02 0.  0.
         12    1    1    2    0    0  0.11910535298E+02  0.15830761978E+02 -0.40455401968E+02  0.45045681528E+02  0.00000000000E+00 0. -1.
         11    1    3    3    0    0 -0.88468195500E+01 -0.74524375542E+01  0.17612093062E+02  0.21071090716E+02  0.51100000000E-03 0. -1.
        -11    1    3    3    0    0 -0.31005603914E+01 -0.68395588778E+01  0.22140109177E+02  0.23378996451E+02  0.51100000000E-03 0.  1.
         12    1    3    3    0    0  0.36844642940E-01 -0.15387655462E+01  0.70319972860E+00  0.16922313057E+01  0.00000000000E+00 0. -1.
</event>
<event>
 7    1  0.2312612E-008  0.4614232E+02  0.7816164E-02  0.1320468E+00
        -11   -1    0    0    0    0  0.00000000000E+00  0.00000000000E+00  0.45593999997E+02  0.45594000000E+02  0.51100000000E-03 0.  1.
         11   -1    0    0    0    0 -0.00000000000E+00 -0.00000000000E+00 -0.45593999997E+02  0.45594000000E+02  0.51100000000E-03 0. -1.
    9900012    2    1    2    0    0  0.28224854405E+02 -0.84312858530E+01  0.34079092948E+02  0.46142316928E+02  0.99999924008E+01 0.  0.
         12    1    1    2    0    0 -0.28224854405E+02  0.84312858530E+01 -0.34079092948E+02  0.45045683072E+02  0.00000000000E+00 0. -1.
         11    1    3    3    0    0  0.62202029972E+01  0.48928087228E+00  0.80851869221E+01  0.10212764999E+02  0.51100000000E-03 0. -1.
        -11    1    3    3    0    0  0.14886254334E+02 -0.23348164528E+01  0.14831557127E+02  0.21143013576E+02  0.51100000000E-03 0.  1.
        -12    1    3    3    0    0  0.71183970735E+01 -0.65857502725E+01  0.11162348898E+02  0.14786538353E+02  0.00000000000E+00 0.  1.
</event>
<event>
 7    1  0.2312612E-008  0.4614232E+02  0.7816164E-02  0.1320468E+00
        -11   -1    0    0    0    0  0.00000000000E+00  0.00000000000E+00  0.45593999997E+02  0.45594000000E+02  0.51100000000E-03 0. -1.
         11   -1    0    0    0    0 -0.00000000000E+00 -0.00000000000E+00 -0.45593999997E+02  0.45594000000E+02  0.51100000000E-03 0.  1.
    9900012    2    1    2    0    0 -0.38355352976E+02 -0.46505404579E+01 -0.23159294188E+02  0.46142317235E+02  0.99999952070E+01 0.  0.
         12    1    1    2    0    0  0.38355352976E+02  0.46505404579E+01  0.23159294188E+02  0.45045682765E+02  0.00000000000E+00 0. -1.
         11    1    3    3    0    0 -0.40190999022E+01  0.90713002410E+00 -0.33695448887E+01  0.53225822607E+01  0.51100000000E-03 0. -1.
        -11    1    3    3    0    0 -0.15783239769E+02 -0.24893749690E+01 -0.13716726088E+02  0.21058400228E+02  0.51100000000E-03 0.  1.
         12    1    3    3    0    0 -0.18553013305E+02 -0.30682955131E+01 -0.60730232111E+01  0.19761334747E+02  0.00000000000E+00 0. -1.
</event>
<event>
 7    1  0.2312612E-008  0.4614232E+02  0.7816164E-02  0.1320468E+00
        -11   -1    0    0    0    0  0.00000000000E+00  0.00000000000E+00  0.45593999997E+02  0.45594000000E+02  0.51100000000E-03 0.  1.
         11   -1    0    0    0    0 -0.00000000000E+00 -0.00000000000E+00 -0.45593999997E+02  0.45594000000E+02  0.51100000000E-03 0. -1.
    9900012    2    1    2    0    0  0.20609393130E+02  0.13590844534E+02  0.37678313849E+02  0.46142317911E+02  0.10000001370E+02 0.  0.
         12    1    1    2    0    0 -0.20609393130E+02 -0.13590844534E+02 -0.37678313849E+02  0.45045682089E+02  0.00000000000E+00 0. -1.
         11    1    3    3    0    0  0.29719838507E+01 -0.74755173269E+00  0.35986401719E+01  0.47267042376E+01  0.51100000000E-03 0. -1.
        -11    1    3    3    0    0  0.79532477857E+00  0.12265857164E+01  0.35541783870E+00  0.15044521010E+01  0.51100000000E-03 0.  1.
        -12    1    3    3    0    0  0.16842084501E+02  0.13111810551E+02  0.33724255838E+02  0.39911161573E+02  0.00000000000E+00 0.  1.
</event>
<event>
 7    1  0.2312612E-008  0.4614231E+02  0.7816164E-02  0.1320468E+00
        -11   -1    0    0    0    0  0.00000000000E+00  0.00000000000E+00  0.45593999997E+02  0.45594000000E+02  0.51100000000E-03 0.  1.
         11   -1    0    0    0    0 -0.00000000000E+00 -0.00000000000E+00 -0.45593999997E+02  0.45594000000E+02  0.51100000000E-03 0. -1.
    9900012    2    1    2    0    0 -0.14699672239E+02  0.41645651575E+01  0.42375579922E+02  0.46142314961E+02  0.99999744691E+01 0.  0.
         12    1    1    2    0    0  0.14699672239E+02 -0.41645651575E+01 -0.42375579922E+02  0.45045685039E+02  0.00000000000E+00 0. -1.
         11    1    3    3    0    0 -0.50323482832E+01  0.12412407746E+01  0.61165680023E+01  0.80173319934E+01  0.51100000000E-03 0. -1.
        -11    1    3    3    0    0 -0.35764626422E+01 -0.10773123361E+01  0.65979567082E+01  0.75818678362E+01  0.51100000000E-03 0.  1.
        -12    1    3    3    0    0 -0.60908613139E+01  0.40006367191E+01  0.29661055211E+02  0.30543115132E+02  0.00000000000E+00 0.  1.
</event>
<event>
 7    1  0.2312612E-008  0.4614232E+02  0.7816164E-02  0.1320468E+00
        -11   -1    0    0    0    0  0.00000000000E+00  0.00000000000E+00  0.45593999997E+02  0.45594000000E+02  0.51100000000E-03 0.  1.
         11   -1    0    0    0    0 -0.00000000000E+00 -0.00000000000E+00 -0.45593999997E+02  0.45594000000E+02  0.51100000000E-03 0. -1.
    9900012    2    1    2    0    0  0.21663302004E+02 -0.66662684439E+01  0.38927826889E+02  0.46142317687E+02  0.99999993261E+01 0.  0.
         12    1    1    2    0    0 -0.21663302004E+02  0.66662684439E+01 -0.38927826889E+02  0.45045682313E+02  0.00000000000E+00 0. -1.
         11    1    3    3    0    0  0.81122214361E+01 -0.53704219596E+01  0.13260836407E+02  0.16446864477E+02  0.51100000000E-03 0.  1.
        -11    1    3    3    0    0  0.12324516510E+02 -0.21694383534E+01  0.25170794723E+02  0.28109946233E+02  0.51100000000E-03 0. -1.
        -12    1    3    3    0    0  0.12265640587E+01  0.87359186914E+00  0.49619575960E+00  0.15855069775E+01  0.00000000000E+00 0.  1.
</event>
<event>
 7    1  0.2312612E-008  0.4614232E+02  0.7816164E-02  0.1320468E+00
        -11   -1    0    0    0    0  0.00000000000E+00  0.00000000000E+00  0.45593999997E+02  0.45594000000E+02  0.51100000000E-03 0. -1.
         11   -1    0    0    0    0 -0.00000000000E+00 -0.00000000000E+00 -0.45593999997E+02  0.45594000000E+02  0.51100000000E-03 0.  1.
    9900012    2    1    2    0    0 -0.49579654946E+01 -0.44681009191E+02 -0.28529903138E+01  0.46142316989E+02  0.99999929582E+01 0.  0.
         12    1    1    2    0    0  0.49579654946E+01  0.44681009191E+02  0.28529903138E+01  0.45045683011E+02  0.00000000000E+00 0. -1.
         11    1    3    3    0    0  0.11055136973E+01 -0.23427847720E+02  0.92595061368E-01  0.23454099502E+02  0.51100000000E-03 0. -1.
        -11    1    3    3    0    0  0.36925778554E+00 -0.48006499153E+01 -0.28102697153E+00  0.48230247088E+01  0.51100000000E-03 0.  1.
        -12    1    3    3    0    0 -0.64327369775E+01 -0.16452511556E+02 -0.26645584037E+01  0.17865192779E+02  0.00000000000E+00 0.  1.
</event>
<event>
 7    1  0.2312612E-008  0.4614232E+02  0.7816164E-02  0.1320468E+00
        -11   -1    0    0    0    0  0.00000000000E+00  0.00000000000E+00  0.45593999997E+02  0.45594000000E+02  0.51100000000E-03 0. -1.
         11   -1    0    0    0    0 -0.00000000000E+00 -0.00000000000E+00 -0.45593999997E+02  0.45594000000E+02  0.51100000000E-03 0.  1.
    9900012    2    1    2    0    0 -0.39262898654E+02  0.16305483882E+02 -0.14888564761E+02  0.46142319009E+02  0.10000011379E+02 0.  0.
         12    1    1    2    0    0  0.39262898654E+02 -0.16305483882E+02  0.14888564761E+02  0.45045680991E+02  0.00000000000E+00 0. -1.
         11    1    3    3    0    0 -0.67919347786E+01  0.29510145976E+01 -0.19331763089E+01  0.76534982913E+01  0.51100000000E-03 0. -1.
        -11    1    3    3    0    0 -0.25870693542E+02  0.70613938237E+01 -0.74354496249E+01  0.27828797647E+02  0.51100000000E-03 0.  1.
         12    1    3    3    0    0 -0.66002703330E+01  0.62930754603E+01 -0.55199388268E+01  0.10660023071E+02  0.00000000000E+00 0. -1.
</event>
<event>
 7    1  0.2312612E-008  0.4614232E+02  0.7816164E-02  0.1320468E+00
        -11   -1    0    0    0    0  0.00000000000E+00  0.00000000000E+00  0.45593999997E+02  0.45594000000E+02  0.51100000000E-03 0.  1.
         11   -1    0    0    0    0 -0.00000000000E+00 -0.00000000000E+00 -0.45593999997E+02  0.45594000000E+02  0.51100000000E-03 0. -1.
    9900012    2    1    2    0    0 -0.82188331571E+01  0.18497880533E+02  0.40241678177E+02  0.46142318019E+02  0.10000002349E+02 0.  0.
         12    1    1    2    0    0  0.82188331571E+01 -0.18497880533E+02 -0.40241678177E+02  0.45045681981E+02  0.00000000000E+00 0. -1.
         11    1    3    3    0    0 -0.65760939750E+01  0.18306403629E+02  0.32699711182E+02  0.38047871654E+02  0.51100000000E-03 0. -1.
        -11    1    3    3    0    0 -0.10653897162E+01  0.95403128183E+00  0.19330382754E+01  0.24045515527E+01  0.51100000000E-03 0.  1.
         12    1    3    3    0    0 -0.57734946589E+00 -0.76255437813E+00  0.56089287199E+01  0.56898948119E+01  0.00000000000E+00 0. -1.
</event>
<event>
 7    1  0.2312612E-008  0.4614232E+02  0.7816164E-02  0.1320468E+00
        -11   -1    0    0    0    0  0.00000000000E+00  0.00000000000E+00  0.45593999997E+02  0.45594000000E+02  0.51100000000E-03 0. -1.
         11   -1    0    0    0    0 -0.00000000000E+00 -0.00000000000E+00 -0.45593999997E+02  0.45594000000E+02  0.51100000000E-03 0.  1.
    9900012    2    1    2    0    0 -0.10544202052E+02  0.41250278835E+02 -0.14708763032E+02  0.46142318622E+02  0.10000007846E+02 0.  0.
         12    1    1    2    0    0  0.10544202052E+02 -0.41250278835E+02  0.14708763032E+02  0.45045681378E+02  0.00000000000E+00 0. -1.
         11    1    3    3    0    0 -0.75202663218E+01  0.19696149479E+02 -0.57763275651E+01  0.21859978734E+02  0.51100000000E-03 0. -1.
        -11    1    3    3    0    0 -0.47802593262E+01  0.17868955758E+02 -0.73462551734E+01  0.19902711485E+02  0.51100000000E-03 0.  1.
         12    1    3    3    0    0  0.17563235958E+01  0.36851735981E+01 -0.15861802937E+01  0.43796284026E+01  0.00000000000E+00 0. -1.
</event>
<event>
 7    1  0.2312612E-008  0.4614232E+02  0.7816164E-02  0.1320468E+00
        -11   -1    0    0    0    0  0.00000000000E+00  0.00000000000E+00  0.45593999997E+02  0.45594000000E+02  0.51100000000E-03 0. -1.
         11   -1    0    0    0    0 -0.00000000000E+00 -0.00000000000E+00 -0.45593999997E+02  0.45594000000E+02  0.51100000000E-03 0.  1.
    9900012    2    1    2    0    0  0.17967354373E+02 -0.40303852846E+02 -0.90491477022E+01  0.46142318170E+02  0.10000003727E+02 0.  0.
         12    1    1    2    0    0 -0.17967354373E+02  0.40303852846E+02  0.90491477022E+01  0.45045681830E+02  0.00000000000E+00 0. -1.
         11    1    3    3    0    0  0.44719684348E+01 -0.93934820599E+01 -0.42805423245E+00  0.10412455886E+02  0.51100000000E-03 0. -1.
        -11    1    3    3    0    0  0.10030368497E+02 -0.26366879598E+02 -0.42346526957E+01  0.28526354755E+02  0.51100000000E-03 0.  1.
         12    1    3    3    0    0  0.34650174420E+01 -0.45434911880E+01 -0.43864407740E+01  0.72035075285E+01  0.00000000000E+00 0. -1.
</event>
<event>
 7    1  0.2312612E-008  0.4614232E+02  0.7816164E-02  0.1320468E+00
        -11   -1    0    0    0    0  0.00000000000E+00  0.00000000000E+00  0.45593999997E+02  0.45594000000E+02  0.51100000000E-03 0. -1.
         11   -1    0    0    0    0 -0.00000000000E+00 -0.00000000000E+00 -0.45593999997E+02  0.45594000000E+02  0.51100000000E-03 0.  1.
    9900012    2    1    2    0    0  0.43512556417E+01  0.15295932789E+02 -0.42145160613E+02  0.46142317092E+02  0.99999938985E+01 0.  0.
         12    1    1    2    0    0 -0.43512556417E+01 -0.15295932789E+02  0.42145160613E+02  0.45045682908E+02  0.00000000000E+00 0. -1.
         11    1    3    3    0    0 -0.20078984927E+01  0.45051352412E+01 -0.17712143057E+02  0.18386079294E+02  0.51100000000E-03 0. -1.
        -11    1    3    3    0    0  0.27619486253E+00  0.41391448255E+00 -0.41130311393E+01  0.41430223527E+01  0.51100000000E-03 0.  1.
        -12    1    3    3    0    0  0.60829592719E+01  0.10376883066E+02 -0.20319986417E+02  0.23613215445E+02  0.00000000000E+00 0.  1.
</event>
<event>
 7    1  0.2312612E-008  0.4614232E+02  0.7816164E-02  0.1320468E+00
        -11   -1    0    0    0    0  0.00000000000E+00  0.00000000000E+00  0.45593999997E+02  0.45594000000E+02  0.51100000000E-03 0.  1.
         11   -1    0    0    0    0 -0.00000000000E+00 -0.00000000000E+00 -0.45593999997E+02  0.45594000000E+02  0.51100000000E-03 0. -1.
    9900012    2    1    2    0    0 -0.94623596026E+01 -0.38214142609E+02  0.21891927595E+02  0.46142318316E+02  0.10000005059E+02 0.  0.
         12    1    1    2    0    0  0.94623596026E+01  0.38214142609E+02 -0.21891927595E+02  0.45045681684E+02  0.00000000000E+00 0. -1.
         11    1    3    3    0    0  0.15408902477E+00  0.40653522499E+00 -0.62148021001E-01  0.43917758862E+00  0.51100000000E-03 0. -1.
        -11    1    3    3    0    0 -0.78744144066E+00 -0.74745099908E+01  0.59720509274E+01  0.95996747948E+01  0.51100000000E-03 0.  1.
        -12    1    3    3    0    0 -0.88290071867E+01 -0.31146167843E+02  0.15982024689E+02  0.36103465933E+02  0.00000000000E+00 0.  1.
</event>
<event>
 7    1  0.2312612E-008  0.4614232E+02  0.7816164E-02  0.1320468E+00
        -11   -1    0    0    0    0  0.00000000000E+00  0.00000000000E+00  0.45593999997E+02  0.45594000000E+02  0.51100000000E-03 0.  1.
         11   -1    0    0    0    0 -0.00000000000E+00 -0.00000000000E+00 -0.45593999997E+02  0.45594000000E+02  0.51100000000E-03 0. -1.
    9900012    2    1    2    0    0 -0.44917054237E+02  0.31969032892E+01  0.11625842046E+01  0.46142317032E+02  0.99999933550E+01 0.  0.
         12    1    1    2    0    0  0.44917054237E+02 -0.31969032892E+01 -0.11625842046E+01  0.45045682968E+02  0.00000000000E+00 0. -1.
         11    1    3    3    0    0 -0.64607800200E+01 -0.23542600057E+01 -0.30513253307E+00  0.68831188254E+01  0.51100000000E-03 0. -1.
        -11    1    3    3    0    0 -0.69460756134E+01  0.25667377342E+00  0.22252099286E+01  0.72983153768E+01  0.51100000000E-03 0.  1.
         12    1    3    3    0    0 -0.31510198604E+02  0.52944895215E+01 -0.75749319097E+00  0.31960882830E+02  0.00000000000E+00 0. -1.
</event>
<event>
 7    1  0.2312612E-008  0.4614232E+02  0.7816164E-02  0.1320468E+00
        -11   -1    0    0    0    0  0.00000000000E+00  0.00000000000E+00  0.45593999997E+02  0.45594000000E+02  0.51100000000E-03 0. -1.
         11   -1    0    0    0    0 -0.00000000000E+00 -0.00000000000E+00 -0.45593999997E+02  0.45594000000E+02  0.51100000000E-03 0.  1.
    9900012    2    1    2    0    0  0.42195552157E+02  0.12326126109E+02 -0.98344042457E+01  0.46142317482E+02  0.99999974538E+01 0.  0.
         12    1    1    2    0    0 -0.42195552157E+02 -0.12326126109E+02  0.98344042457E+01  0.45045682518E+02  0.00000000000E+00 0. -1.
         11    1    3    3    0    0  0.21217007543E+01  0.47807645806E-01 -0.34591355178E+00  0.21502455926E+01  0.51100000000E-03 0. -1.
        -11    1    3    3    0    0  0.40093326277E+01  0.37519092271E+01 -0.33391248463E+01  0.64266107684E+01  0.51100000000E-03 0.  1.
        -12    1    3    3    0    0  0.36064518775E+02  0.85264092363E+01 -0.61493658477E+01  0.37565461121E+02  0.00000000000E+00 0.  1.
</event>
<event>
 7    1  0.2312612E-008  0.4614232E+02  0.7816164E-02  0.1320468E+00
        -11   -1    0    0    0    0  0.00000000000E+00  0.00000000000E+00  0.45593999997E+02  0.45594000000E+02  0.51100000000E-03 0. -1.
         11   -1    0    0    0    0 -0.00000000000E+00 -0.00000000000E+00 -0.45593999997E+02  0.45594000000E+02  0.51100000000E-03 0.  1.
    9900012    2    1    2    0    0 -0.37837944793E+02 -0.48796517648E+01 -0.23949780171E+02  0.46142322763E+02  0.10000045610E+02 0.  0.
         12    1    1    2    0    0  0.37837944793E+02  0.48796517648E+01  0.23949780171E+02  0.45045677237E+02  0.00000000000E+00 0. -1.
         11    1    3    3    0    0 -0.20248638207E+01 -0.36919696772E+00  0.49810927546E+00  0.21176621555E+01  0.51100000000E-03 0. -1.
        -11    1    3    3    0    0 -0.21887197382E+02 -0.48355685812E-02 -0.16139215671E+02  0.27194185322E+02  0.51100000000E-03 0.  1.
         12    1    3    3    0    0 -0.13925883591E+02 -0.45056192285E+01 -0.83086737750E+01  0.16830475285E+02  0.00000000000E+00 0. -1.
</event>
<event>
 7    1  0.2312612E-008  0.4614232E+02  0.7816164E-02  0.1320468E+00
        -11   -1    0    0    0    0  0.00000000000E+00  0.00000000000E+00  0.45593999997E+02  0.45594000000E+02  0.51100000000E-03 0. -1.
         11   -1    0    0    0    0 -0.00000000000E+00 -0.00000000000E+00 -0.45593999997E+02  0.45594000000E+02  0.51100000000E-03 0.  1.
    9900012    2    1    2    0    0 -0.30826379080E+02 -0.85440075532E+01 -0.31715104920E+02  0.46142316607E+02  0.99999894768E+01 0.  0.
         12    1    1    2    0    0  0.30826379080E+02  0.85440075532E+01  0.31715104920E+02  0.45045683393E+02  0.00000000000E+00 0. -1.
         11    1    3    3    0    0 -0.73263196347E+01 -0.10173133208E+01 -0.57881277438E+01  0.93921408008E+01  0.51100000000E-03 0. -1.
        -11    1    3    3    0    0 -0.15721249480E+02 -0.82846751748E+01 -0.21005528622E+02  0.27514101129E+02  0.51100000000E-03 0.  1.
         12    1    3    3    0    0 -0.77788099648E+01  0.75798094237E+00 -0.49214485546E+01  0.92360746777E+01  0.00000000000E+00 0. -1.
</event>
<event>
 7    1  0.2312612E-008  0.4614232E+02  0.7816164E-02  0.1320468E+00
        -11   -1    0    0    0    0  0.00000000000E+00  0.00000000000E+00  0.45593999997E+02  0.45594000000E+02  0.51100000000E-03 0.  1.
         11   -1    0    0    0    0 -0.00000000000E+00 -0.00000000000E+00 -0.45593999997E+02  0.45594000000E+02  0.51100000000E-03 0. -1.
    9900012    2    1    2    0    0 -0.22944642899E+02 -0.38352914245E+02  0.56312150168E+01  0.46142320391E+02  0.10000023983E+02 0.  0.
         12    1    1    2    0    0  0.22944642899E+02  0.38352914245E+02 -0.56312150168E+01  0.45045679609E+02  0.00000000000E+00 0. -1.
         11    1    3    3    0    0 -0.73466334693E+01 -0.12112780343E+02 -0.74874624900E+00  0.14186369944E+02  0.51100000000E-03 0. -1.
        -11    1    3    3    0    0 -0.24546837141E+01 -0.96667037351E+01  0.36851619614E+01  0.10632546834E+02  0.51100000000E-03 0.  1.
        -12    1    3    3    0    0 -0.13143325716E+02 -0.16573430166E+02  0.26947993044E+01  0.21323403613E+02  0.00000000000E+00 0.  1.
</event>
<event>
 7    1  0.2312612E-008  0.4614232E+02  0.7816164E-02  0.1320468E+00
        -11   -1    0    0    0    0  0.00000000000E+00  0.00000000000E+00  0.45593999997E+02  0.45594000000E+02  0.51100000000E-03 0.  1.
         11   -1    0    0    0    0 -0.00000000000E+00 -0.00000000000E+00 -0.45593999997E+02  0.45594000000E+02  0.51100000000E-03 0. -1.
    9900012    2    1    2    0    0 -0.11415465179E+02 -0.34037123250E+02  0.27207990245E+02  0.46142319435E+02  0.10000015263E+02 0.  0.
         12    1    1    2    0    0  0.11415465179E+02  0.34037123250E+02 -0.27207990245E+02  0.45045680565E+02  0.00000000000E+00 0. -1.
         11    1    3    3    0    0  0.25489044707E+00 -0.39163560603E+01  0.33155360964E+01  0.51376642357E+01  0.51100000000E-03 0. -1.
        -11    1    3    3    0    0 -0.11722108121E+02 -0.19891479950E+02  0.16174797311E+02  0.28190474663E+02  0.51100000000E-03 0.  1.
        -12    1    3    3    0    0  0.51752494869E-01 -0.10229287240E+02  0.77176568374E+01  0.12814180536E+02  0.00000000000E+00 0.  1.
</event>
<event>
 7    1  0.2312612E-008  0.4614232E+02  0.7816164E-02  0.1320468E+00
        -11   -1    0    0    0    0  0.00000000000E+00  0.00000000000E+00  0.45593999997E+02  0.45594000000E+02  0.51100000000E-03 0. -1.
         11   -1    0    0    0    0 -0.00000000000E+00 -0.00000000000E+00 -0.45593999997E+02  0.45594000000E+02  0.51100000000E-03 0.  1.
    9900012    2    1    2    0    0 -0.34188132493E+01  0.35932909302E+02 -0.26949048574E+02  0.46142317921E+02  0.10000001455E+02 0.  0.
         12    1    1    2    0    0  0.34188132493E+01 -0.35932909302E+02  0.26949048574E+02  0.45045682079E+02  0.00000000000E+00 0. -1.
         11    1    3    3    0    0 -0.39660337280E+01  0.15371625127E+02 -0.13735364882E+02  0.20992296951E+02  0.51100000000E-03 0. -1.
        -11    1    3    3    0    0 -0.18844289639E+01  0.32605023100E+01 -0.35951654789E+01  0.52064539675E+01  0.51100000000E-03 0.  1.
         12    1    3    3    0    0  0.24316494426E+01  0.17300781865E+02 -0.96185182137E+01  0.19943567002E+02  0.00000000000E+00 0. -1.
</event>
<event>
 7    1  0.2312612E-008  0.4614232E+02  0.7816164E-02  0.1320468E+00
        -11   -1    0    0    0    0  0.00000000000E+00  0.00000000000E+00  0.45593999997E+02  0.45594000000E+02  0.51100000000E-03 0. -1.
         11   -1    0    0    0    0 -0.00000000000E+00 -0.00000000000E+00 -0.45593999997E+02  0.45594000000E+02  0.51100000000E-03 0.  1.
    9900012    2    1    2    0    0 -0.37301351442E+02  0.36886125081E+01 -0.24982328138E+02  0.46142318733E+02  0.10000008861E+02 0.  0.
         12    1    1    2    0    0  0.37301351442E+02 -0.36886125081E+01  0.24982328138E+02  0.45045681267E+02  0.00000000000E+00 0. -1.
         11    1    3    3    0    0 -0.32764948158E+02  0.38146351587E+01 -0.20235063168E+02  0.38698204750E+02  0.51100000000E-03 0. -1.
        -11    1    3    3    0    0 -0.47381593250E+01 -0.11542235246E+00 -0.51466513169E+01  0.69965345813E+01  0.51100000000E-03 0.  1.
         12    1    3    3    0    0  0.20175604138E+00 -0.10600298115E-01  0.39938634681E+00  0.44757940142E+00  0.00000000000E+00 0. -1.
</event>
<event>
 7    1  0.2312612E-008  0.4614232E+02  0.7816164E-02  0.1320468E+00
        -11   -1    0    0    0    0  0.00000000000E+00  0.00000000000E+00  0.45593999997E+02  0.45594000000E+02  0.51100000000E-03 0.  1.
         11   -1    0    0    0    0 -0.00000000000E+00 -0.00000000000E+00 -0.45593999997E+02  0.45594000000E+02  0.51100000000E-03 0. -1.
    9900012    2    1    2    0    0  0.27738392933E+02  0.25378313948E+02  0.24812018348E+02  0.46142317456E+02  0.99999972216E+01 0.  0.
         12    1    1    2    0    0 -0.27738392933E+02 -0.25378313948E+02 -0.24812018348E+02  0.45045682544E+02  0.00000000000E+00 0. -1.
         11    1    3    3    0    0  0.12332774056E+01  0.30286151240E+00  0.17031136002E+01  0.21244515648E+01  0.51100000000E-03 0. -1.
        -11    1    3    3    0    0  0.10375621475E+02  0.15666304246E+02  0.11544074572E+02  0.22053395831E+02  0.51100000000E-03 0.  1.
        -12    1    3    3    0    0  0.16129494052E+02  0.94091481893E+01  0.11564830176E+02  0.21964470060E+02  0.00000000000E+00 0.  1.
</event>
<event>
 7    1  0.2312612E-008  0.4614232E+02  0.7816164E-02  0.1320468E+00
        -11   -1    0    0    0    0  0.00000000000E+00  0.00000000000E+00  0.45593999997E+02  0.45594000000E+02  0.51100000000E-03 0.  1.
         11   -1    0    0    0    0 -0.00000000000E+00 -0.00000000000E+00 -0.45593999997E+02  0.45594000000E+02  0.51100000000E-03 0. -1.
    9900012    2    1    2    0    0 -0.93358161843E+01 -0.15197023433E+02  0.41364312714E+02  0.46142319282E+02  0.10000013868E+02 0.  0.
         12    1    1    2    0    0  0.93358161843E+01  0.15197023433E+02 -0.41364312714E+02  0.45045680718E+02  0.00000000000E+00 0. -1.
         11    1    3    3    0    0 -0.12723400114E+01  0.64727327833E-01  0.82963892146E+01  0.83936352668E+01  0.51100000000E-03 0. -1.
        -11    1    3    3    0    0 -0.11339131590E+01 -0.55876636735E+01  0.15629236972E+02  0.16636730237E+02  0.51100000000E-03 0.  1.
         12    1    3    3    0    0 -0.69295630139E+01 -0.96740870871E+01  0.17438686528E+02  0.21111953778E+02  0.00000000000E+00 0. -1.
</event>
<event>
 7    1  0.2312612E-008  0.4614232E+02  0.7816164E-02  0.1320468E+00
        -11   -1    0    0    0    0  0.00000000000E+00  0.00000000000E+00  0.45593999997E+02  0.45594000000E+02  0.51100000000E-03 0. -1.
         11   -1    0    0    0    0 -0.00000000000E+00 -0.00000000000E+00 -0.45593999997E+02  0.45594000000E+02  0.51100000000E-03 0.  1.
    9900012    2    1    2    0    0  0.19851904998E+01  0.13495002356E+02 -0.42930844326E+02  0.46142318027E+02  0.10000002424E+02 0.  0.
         12    1    1    2    0    0 -0.19851904998E+01 -0.13495002356E+02  0.42930844326E+02  0.45045681973E+02  0.00000000000E+00 0. -1.
         11    1    3    3    0    0 -0.24288669459E+01  0.49779232154E+01 -0.10747736443E+02  0.12091027793E+02  0.51100000000E-03 0. -1.
        -11    1    3    3    0    0  0.30012558421E+01  0.90150631862E+01 -0.25777828754E+02  0.27473175215E+02  0.51100000000E-03 0.  1.
        -12    1    3    3    0    0  0.14128016037E+01 -0.49798404614E+00 -0.64052791285E+01  0.65781150184E+01  0.00000000000E+00 0.  1.
</event>
<event>
 7    1  0.2312612E-008  0.4614231E+02  0.7816164E-02  0.1320468E+00
        -11   -1    0    0    0    0  0.00000000000E+00  0.00000000000E+00  0.45593999997E+02  0.45594000000E+02  0.51100000000E-03 0.  1.
         11   -1    0    0    0    0 -0.00000000000E+00 -0.00000000000E+00 -0.45593999997E+02  0.45594000000E+02  0.51100000000E-03 0. -1.
    9900012    2    1    2    0    0 -0.25509156942E+01  0.43656222742E+02  0.10804664882E+02  0.46142314988E+02  0.99999747104E+01 0.  0.
         12    1    1    2    0    0  0.25509156942E+01 -0.43656222742E+02 -0.10804664882E+02  0.45045685012E+02  0.00000000000E+00 0. -1.
         11    1    3    3    0    0  0.25386044662E+00  0.73249275434E+01  0.37424830037E+01  0.82295314530E+01  0.51100000000E-03 0. -1.
        -11    1    3    3    0    0  0.14144121572E+01  0.26106157818E+02  0.41231679016E+01  0.26467575476E+02  0.51100000000E-03 0.  1.
        -12    1    3    3    0    0 -0.42191882980E+01  0.10225137381E+02  0.29390139763E+01  0.11445208059E+02  0.00000000000E+00 0.  1.
</event>
<event>
 7    1  0.2312612E-008  0.4614232E+02  0.7816164E-02  0.1320468E+00
        -11   -1    0    0    0    0  0.00000000000E+00  0.00000000000E+00  0.45593999997E+02  0.45594000000E+02  0.51100000000E-03 0.  1.
         11   -1    0    0    0    0 -0.00000000000E+00 -0.00000000000E+00 -0.45593999997E+02  0.45594000000E+02  0.51100000000E-03 0. -1.
    9900012    2    1    2    0    0 -0.25249183805E+01  0.44126860338E+02  0.86924381647E+01  0.46142317662E+02  0.99999990924E+01 0.  0.
         12    1    1    2    0    0  0.25249183805E+01 -0.44126860338E+02 -0.86924381647E+01  0.45045682338E+02  0.00000000000E+00 0. -1.
         11    1    3    3    0    0 -0.30776154921E+01  0.23680775327E+02  0.41728893202E+00  0.23883571079E+02  0.51100000000E-03 0. -1.
        -11    1    3    3    0    0  0.16177162127E+01  0.14534772760E+02  0.52948726093E+01  0.15553530182E+02  0.51100000000E-03 0.  1.
         12    1    3    3    0    0 -0.10650191012E+01  0.59113122513E+01  0.29802766234E+01  0.67052163999E+01  0.00000000000E+00 0. -1.
</event>
<event>
 7    1  0.2312612E-008  0.4614232E+02  0.7816164E-02  0.1320468E+00
        -11   -1    0    0    0    0  0.00000000000E+00  0.00000000000E+00  0.45593999997E+02  0.45594000000E+02  0.51100000000E-03 0.  1.
         11   -1    0    0    0    0 -0.00000000000E+00 -0.00000000000E+00 -0.45593999997E+02  0.45594000000E+02  0.51100000000E-03 0. -1.
    9900012    2    1    2    0    0  0.34232971829E+02  0.23865724113E+02  0.16960081686E+02  0.46142317427E+02  0.99999969522E+01 0.  0.
         12    1    1    2    0    0 -0.34232971829E+02 -0.23865724113E+02 -0.16960081686E+02  0.45045682573E+02  0.00000000000E+00 0. -1.
         11    1    3    3    0    0  0.38441811928E+00  0.15687567939E+01  0.40577931882E-01  0.16156800422E+01  0.51100000000E-03 0. -1.
        -11    1    3    3    0    0  0.55265111872E+01  0.51387985806E+01  0.49404832807E+00  0.75626490574E+01  0.51100000000E-03 0.  1.
        -12    1    3    3    0    0  0.28322042523E+02  0.17158168738E+02  0.16425455426E+02  0.36963988327E+02  0.00000000000E+00 0.  1.
</event>
<event>
 7    1  0.2312612E-008  0.4614232E+02  0.7816164E-02  0.1320468E+00
        -11   -1    0    0    0    0  0.00000000000E+00  0.00000000000E+00  0.45593999997E+02  0.45594000000E+02  0.51100000000E-03 0.  1.
         11   -1    0    0    0    0 -0.00000000000E+00 -0.00000000000E+00 -0.45593999997E+02  0.45594000000E+02  0.51100000000E-03 0. -1.
    9900012    2    1    2    0    0 -0.30373141065E+02 -0.91945930833E+01  0.31969442011E+02  0.46142318047E+02  0.10000002603E+02 0.  0.
         12    1    1    2    0    0  0.30373141065E+02  0.91945930833E+01 -0.31969442011E+02  0.45045681953E+02  0.00000000000E+00 0. -1.
         11    1    3    3    0    0 -0.81342951721E+01 -0.37799200407E+01  0.11402605331E+02  0.14507720774E+02  0.51100000000E-03 0. -1.
        -11    1    3    3    0    0 -0.16231137707E+02 -0.45252831099E+00  0.14253831666E+02  0.21606164180E+02  0.51100000000E-03 0.  1.
         12    1    3    3    0    0 -0.60077081858E+01 -0.49621447316E+01  0.63130050139E+01  0.10028433092E+02  0.00000000000E+00 0. -1.
</event>
<event>
 7    1  0.2312612E-008  0.4614232E+02  0.7816164E-02  0.1320468E+00
        -11   -1    0    0    0    0  0.00000000000E+00  0.00000000000E+00  0.45593999997E+02  0.45594000000E+02  0.51100000000E-03 0.  1.
         11   -1    0    0    0    0 -0.00000000000E+00 -0.00000000000E+00 -0.45593999997E+02  0.45594000000E+02  0.51100000000E-03 0. -1.
    9900012    2    1    2    0    0  0.33527905625E+02 -0.24245279229E+02  0.17808969151E+02  0.46142318712E+02  0.10000008669E+02 0.  0.
         12    1    1    2    0    0 -0.33527905625E+02  0.24245279229E+02 -0.17808969151E+02  0.45045681288E+02  0.00000000000E+00 0. -1.
         11    1    3    3    0    0  0.18239241888E+02 -0.13575831005E+02  0.10177540253E+02  0.24910950564E+02  0.51100000000E-03 0. -1.
        -11    1    3    3    0    0  0.10691012858E+02 -0.34298832116E+01  0.40164423968E+01  0.11924498503E+02  0.51100000000E-03 0.  1.
         12    1    3    3    0    0  0.45976508788E+01 -0.72395650122E+01  0.36149865015E+01  0.93068696443E+01  0.00000000000E+00 0. -1.
</event>
<event>
 7    1  0.2312612E-008  0.4614232E+02  0.7816164E-02  0.1320468E+00
        -11   -1    0    0    0    0  0.00000000000E+00  0.00000000000E+00  0.45593999997E+02  0.45594000000E+02  0.51100000000E-03 0.  1.
         11   -1    0    0    0    0 -0.00000000000E+00 -0.00000000000E+00 -0.45593999997E+02  0.45594000000E+02  0.51100000000E-03 0. -1.
    9900012    2    1    2    0    0  0.14576074222E+02 -0.41948614384E+02 -0.75475354120E+01  0.46142317862E+02  0.10000000923E+02 0.  0.
         12    1    1    2    0    0 -0.14576074222E+02  0.41948614384E+02  0.75475354120E+01  0.45045682138E+02  0.00000000000E+00 0. -1.
         11    1    3    3    0    0  0.16093714886E-01  0.35233897983E+00  0.18429503070E+00  0.39795311763E+00  0.51100000000E-03 0. -1.
        -11    1    3    3    0    0  0.37533802673E+01 -0.14895493573E+02 -0.30802329364E+00  0.15364194441E+02  0.51100000000E-03 0.  1.
         12    1    3    3    0    0  0.10806600240E+02 -0.27405459790E+02 -0.74238071491E+01  0.30380170303E+02  0.00000000000E+00 0. -1.
</event>
<event>
 7    1  0.2312612E-008  0.4614232E+02  0.7816164E-02  0.1320468E+00
        -11   -1    0    0    0    0  0.00000000000E+00  0.00000000000E+00  0.45593999997E+02  0.45594000000E+02  0.51100000000E-03 0. -1.
         11   -1    0    0    0    0 -0.00000000000E+00 -0.00000000000E+00 -0.45593999997E+02  0.45594000000E+02  0.51100000000E-03 0.  1.
    9900012    2    1    2    0    0 -0.41327526529E+02 -0.29313965590E+01  0.17679249319E+02  0.46142318839E+02  0.10000009831E+02 0.  0.
         12    1    1    2    0    0  0.41327526529E+02  0.29313965590E+01 -0.17679249319E+02  0.45045681161E+02  0.00000000000E+00 0. -1.
         11    1    3    3    0    0 -0.17564654609E+02  0.10239448503E+01  0.86266596070E+01  0.19595530378E+02  0.51100000000E-03 0. -1.
        -11    1    3    3    0    0 -0.40218231465E+01 -0.13396465734E-01  0.42495275017E+01  0.58509593347E+01  0.51100000000E-03 0.  1.
        -12    1    3    3    0    0 -0.19741048774E+02 -0.39419449436E+01  0.48030622099E+01  0.20695829126E+02  0.00000000000E+00 0.  1.
</event>
<event>
 7    1  0.2312612E-008  0.4614232E+02  0.7816164E-02  0.1320468E+00
        -11   -1    0    0    0    0  0.00000000000E+00  0.00000000000E+00  0.45593999997E+02  0.45594000000E+02  0.51100000000E-03 0.  1.
         11   -1    0    0    0    0 -0.00000000000E+00 -0.00000000000E+00 -0.45593999997E+02  0.45594000000E+02  0.51100000000E-03 0. -1.
    9900012    2    1    2    0    0  0.84710144493E+01  0.88165808903E+01  0.43354622732E+02  0.46142317670E+02  0.99999991670E+01 0.  0.
         12    1    1    2    0    0 -0.84710144493E+01 -0.88165808903E+01 -0.43354622732E+02  0.45045682330E+02  0.00000000000E+00 0. -1.
         11    1    3    3    0    0  0.69786899877E+01  0.32454580874E+00  0.16878756631E+02  0.18267453835E+02  0.51100000000E-03 0. -1.
        -11    1    3    3    0    0  0.14112643333E+00  0.19857204801E+01  0.78722520442E+01  0.81200588054E+01  0.51100000000E-03 0.  1.
         12    1    3    3    0    0  0.13511980282E+01  0.65063146015E+01  0.18603614056E+02  0.19754805029E+02  0.00000000000E+00 0. -1.
</event>
<event>
 7    1  0.2312612E-008  0.4614232E+02  0.7816164E-02  0.1320468E+00
        -11   -1    0    0    0    0  0.00000000000E+00  0.00000000000E+00  0.45593999997E+02  0.45594000000E+02  0.51100000000E-03 0.  1.
         11   -1    0    0    0    0 -0.00000000000E+00 -0.00000000000E+00 -0.45593999997E+02  0.45594000000E+02  0.51100000000E-03 0. -1.
    9900012    2    1    2    0    0 -0.13918205220E+02  0.26635472894E+02  0.33555160749E+02  0.46142315792E+02  0.99999820448E+01 0.  0.
         12    1    1    2    0    0  0.13918205220E+02 -0.26635472894E+02 -0.33555160749E+02  0.45045684208E+02  0.00000000000E+00 0. -1.
         11    1    3    3    0    0 -0.85262065332E+00 -0.33582277968E+00  0.28981265659E+01  0.30395520675E+01  0.51100000000E-03 0. -1.
        -11    1    3    3    0    0 -0.50258389636E+01  0.84451007807E+01  0.12855437052E+02  0.16181503223E+02  0.51100000000E-03 0.  1.
        -12    1    3    3    0    0 -0.80397456026E+01  0.18526194893E+02  0.17801597131E+02  0.26921260502E+02  0.00000000000E+00 0.  1.
</event>
<event>
 7    1  0.2312612E-008  0.4614232E+02  0.7816164E-02  0.1320468E+00
        -11   -1    0    0    0    0  0.00000000000E+00  0.00000000000E+00  0.45593999997E+02  0.45594000000E+02  0.51100000000E-03 0.  1.
         11   -1    0    0    0    0 -0.00000000000E+00 -0.00000000000E+00 -0.45593999997E+02  0.45594000000E+02  0.51100000000E-03 0. -1.
    9900012    2    1    2    0    0 -0.38145028659E+02 -0.13156094702E+02  0.20024672521E+02  0.46142317091E+02  0.99999938861E+01 0.  0.
         12    1    1    2    0    0  0.38145028659E+02  0.13156094702E+02 -0.20024672521E+02  0.45045682909E+02  0.00000000000E+00 0. -1.
         11    1    3    3    0    0 -0.27737833543E+01 -0.23499420882E+01  0.15571266514E+01  0.39548382501E+01  0.51100000000E-03 0. -1.
        -11    1    3    3    0    0 -0.31526371261E+02 -0.10878946555E+02  0.13681391218E+02  0.36047801999E+02  0.51100000000E-03 0.  1.
         12    1    3    3    0    0 -0.38448740437E+01  0.72793941939E-01  0.47861546514E+01  0.61396768414E+01  0.00000000000E+00 0. -1.
</event>
<event>
 7    1  0.2312612E-008  0.4614232E+02  0.7816164E-02  0.1320468E+00
        -11   -1    0    0    0    0  0.00000000000E+00  0.00000000000E+00  0.45593999997E+02  0.45594000000E+02  0.51100000000E-03 0.  1.
         11   -1    0    0    0    0 -0.00000000000E+00 -0.00000000000E+00 -0.45593999997E+02  0.45594000000E+02  0.51100000000E-03 0. -1.
    9900012    2    1    2    0    0 -0.88633777717E+01  0.86219556133E+00  0.44156660673E+02  0.46142317316E+02  0.99999959371E+01 0.  0.
         12    1    1    2    0    0  0.88633777717E+01 -0.86219556133E+00 -0.44156660673E+02  0.45045682684E+02  0.00000000000E+00 0. -1.
         11    1    3    3    0    0 -0.55590119750E+01  0.14177721708E+01  0.18223485656E+02  0.19105185730E+02  0.51100000000E-03 0. -1.
        -11    1    3    3    0    0 -0.41242637912E+01 -0.77742524320E+00  0.25844594164E+02  0.26183143233E+02  0.51100000000E-03 0.  1.
         12    1    3    3    0    0  0.81989799450E+00  0.22184863372E+00  0.88580853159E-01  0.85398835192E+00  0.00000000000E+00 0. -1.
</event>
<event>
 7    1  0.2312612E-008  0.4614232E+02  0.7816164E-02  0.1320468E+00
        -11   -1    0    0    0    0  0.00000000000E+00  0.00000000000E+00  0.45593999997E+02  0.45594000000E+02  0.51100000000E-03 0. -1.
         11   -1    0    0    0    0 -0.00000000000E+00 -0.00000000000E+00 -0.45593999997E+02  0.45594000000E+02  0.51100000000E-03 0.  1.
    9900012    2    1    2    0    0  0.26402619759E+02  0.20211274258E+02 -0.30389464501E+02  0.46142317744E+02  0.99999998413E+01 0.  0.
         12    1    1    2    0    0 -0.26402619759E+02 -0.20211274258E+02  0.30389464501E+02  0.45045682256E+02  0.00000000000E+00 0. -1.
         11    1    3    3    0    0  0.14698710582E+02  0.82454971838E+01 -0.17094147949E+02  0.24005212162E+02  0.51100000000E-03 0. -1.
        -11    1    3    3    0    0  0.64737493658E+01  0.85879288844E+01 -0.11298431008E+02  0.15598605607E+02  0.51100000000E-03 0.  1.
        -12    1    3    3    0    0  0.52301598111E+01  0.33778481902E+01 -0.19968855441E+01  0.65384999750E+01  0.00000000000E+00 0.  1.
</event>
<event>
 7    1  0.2312612E-008  0.4614232E+02  0.7816164E-02  0.1320468E+00
        -11   -1    0    0    0    0  0.00000000000E+00  0.00000000000E+00  0.45593999997E+02  0.45594000000E+02  0.51100000000E-03 0. -1.
         11   -1    0    0    0    0 -0.00000000000E+00 -0.00000000000E+00 -0.45593999997E+02  0.45594000000E+02  0.51100000000E-03 0.  1.
    9900012    2    1    2    0    0  0.41489705744E+02  0.16981064490E+02 -0.44001517475E+01  0.46142316862E+02  0.99999918007E+01 0.  0.
         12    1    1    2    0    0 -0.41489705744E+02 -0.16981064490E+02  0.44001517475E+01  0.45045683138E+02  0.00000000000E+00 0. -1.
         11    1    3    3    0    0  0.47528576112E+01  0.62946404185E+00  0.14642397183E+01  0.50129710418E+01  0.51100000000E-03 0. -1.
        -11    1    3    3    0    0  0.21175396719E+02  0.10160191733E+02 -0.32452211218E+00  0.23488981185E+02  0.51100000000E-03 0.  1.
        -12    1    3    3    0    0  0.15561451414E+02  0.61914087149E+01 -0.55398693536E+01  0.17640364635E+02  0.00000000000E+00 0.  1.
</event>
<event>
 7    1  0.2312612E-008  0.4614232E+02  0.7816164E-02  0.1320468E+00
        -11   -1    0    0    0    0  0.00000000000E+00  0.00000000000E+00  0.45593999997E+02  0.45594000000E+02  0.51100000000E-03 0. -1.
         11   -1    0    0    0    0 -0.00000000000E+00 -0.00000000000E+00 -0.45593999997E+02  0.45594000000E+02  0.51100000000E-03 0.  1.
    9900012    2    1    2    0    0 -0.36275058701E+02 -0.14994589837E+02 -0.22099679858E+02  0.46142318098E+02  0.10000003074E+02 0.  0.
         12    1    1    2    0    0  0.36275058701E+02  0.14994589837E+02  0.22099679858E+02  0.45045681902E+02  0.00000000000E+00 0. -1.
         11    1    3    3    0    0 -0.62304745296E+01 -0.25862837373E+01 -0.40970325426E+00  0.67583676617E+01  0.51100000000E-03 0. -1.
        -11    1    3    3    0    0 -0.13388774229E+02 -0.80553389584E+01 -0.94447768135E+01  0.18257918019E+02  0.51100000000E-03 0.  1.
         12    1    3    3    0    0 -0.16655809943E+02 -0.43529671417E+01 -0.12245199790E+02  0.21126032417E+02  0.00000000000E+00 0. -1.
</event>
<event>
 7    1  0.2312612E-008  0.4614232E+02  0.7816164E-02  0.1320468E+00
        -11   -1    0    0    0    0  0.00000000000E+00  0.00000000000E+00  0.45593999997E+02  0.45594000000E+02  0.51100000000E-03 0. -1.
         11   -1    0    0    0    0 -0.00000000000E+00 -0.00000000000E+00 -0.45593999997E+02  0.45594000000E+02  0.51100000000E-03 0.  1.
    9900012    2    1    2    0    0 -0.43215189376E+02 -0.48027472478E+01 -0.11768366872E+02  0.46142318378E+02  0.10000005625E+02 0.  0.
         12    1    1    2    0    0  0.43215189376E+02  0.48027472478E+01  0.11768366872E+02  0.45045681622E+02  0.00000000000E+00 0. -1.
         11    1    3    3    0    0 -0.23749457185E+02 -0.16950421943E+01 -0.10430933145E+02  0.25994504249E+02  0.51100000000E-03 0. -1.
        -11    1    3    3    0    0 -0.58315223920E+01 -0.24900548795E+01 -0.14262854018E+01  0.64993320442E+01  0.51100000000E-03 0.  1.
         12    1    3    3    0    0 -0.13634209800E+02 -0.61765017395E+00  0.88851675141E-01  0.13648482085E+02  0.00000000000E+00 0. -1.
</event>
<event>
 7    1  0.2312612E-008  0.4614232E+02  0.7816164E-02  0.1320468E+00
        -11   -1    0    0    0    0  0.00000000000E+00  0.00000000000E+00  0.45593999997E+02  0.45594000000E+02  0.51100000000E-03 0.  1.
         11   -1    0    0    0    0 -0.00000000000E+00 -0.00000000000E+00 -0.45593999997E+02  0.45594000000E+02  0.51100000000E-03 0. -1.
    9900012    2    1    2    0    0  0.41601953377E-01 -0.84604636900E+01  0.44244008176E+02  0.46142318342E+02  0.10000005300E+02 0.  0.
         12    1    1    2    0    0 -0.41601953377E-01  0.84604636900E+01 -0.44244008176E+02  0.45045681658E+02  0.00000000000E+00 0. -1.
         11    1    3    3    0    0 -0.58825200839E+00 -0.17362450781E+01  0.17269581270E+01  0.25185257652E+01  0.51100000000E-03 0. -1.
        -11    1    3    3    0    0 -0.19324409701E+00 -0.63987651155E+01  0.18243032172E+02  0.19333643252E+02  0.51100000000E-03 0.  1.
         12    1    3    3    0    0  0.82309805878E+00 -0.32545349651E+00  0.24274017876E+02  0.24290149325E+02  0.00000000000E+00 0. -1.
</event>
<event>
 7    1  0.2312612E-008  0.4614232E+02  0.7816164E-02  0.1320468E+00
        -11   -1    0    0    0    0  0.00000000000E+00  0.00000000000E+00  0.45593999997E+02  0.45594000000E+02  0.51100000000E-03 0.  1.
         11   -1    0    0    0    0 -0.00000000000E+00 -0.00000000000E+00 -0.45593999997E+02  0.45594000000E+02  0.51100000000E-03 0. -1.
    9900012    2    1    2    0    0  0.32032475247E+02 -0.30929132040E+02 -0.68134291604E+01  0.46142317675E+02  0.99999992129E+01 0.  0.
         12    1    1    2    0    0 -0.32032475247E+02  0.30929132040E+02  0.68134291604E+01  0.45045682325E+02  0.00000000000E+00 0. -1.
         11    1    3    3    0    0  0.16838198198E+01 -0.46837731601E+01 -0.82372142044E+00  0.50449477143E+01  0.51100000000E-03 0. -1.
        -11    1    3    3    0    0  0.25988034952E+01 -0.41551269499E+01 -0.23715490752E+01  0.54445481772E+01  0.51100000000E-03 0.  1.
        -12    1    3    3    0    0  0.27749851932E+02 -0.22090231930E+02 -0.36181586647E+01  0.35652821783E+02  0.00000000000E+00 0.  1.
</event>
<event>
 7    1  0.2312612E-008  0.4614232E+02  0.7816164E-02  0.1320468E+00
        -11   -1    0    0    0    0  0.00000000000E+00  0.00000000000E+00  0.45593999997E+02  0.45594000000E+02  0.51100000000E-03 0.  1.
         11   -1    0    0    0    0 -0.00000000000E+00 -0.00000000000E+00 -0.45593999997E+02  0.45594000000E+02  0.51100000000E-03 0. -1.
    9900012    2    1    2    0    0 -0.25710037406E+02 -0.35969239805E+02  0.86209748286E+01  0.46142318269E+02  0.10000004631E+02 0.  0.
         12    1    1    2    0    0  0.25710037406E+02  0.35969239805E+02 -0.86209748286E+01  0.45045681731E+02  0.00000000000E+00 0. -1.
         11    1    3    3    0    0 -0.13557011119E+02 -0.19725169008E+02  0.52474472780E+01  0.24503276231E+02  0.51100000000E-03 0.  1.
        -11    1    3    3    0    0  0.51763434385E+00 -0.11217054452E+01  0.13129435384E+01  0.18027727022E+01  0.51100000000E-03 0. -1.
         12    1    3    3    0    0 -0.12670660631E+02 -0.15122365352E+02  0.20605840123E+01  0.19836269336E+02  0.00000000000E+00 0. -1.
</event>
<event>
 7    1  0.2312612E-008  0.4614232E+02  0.7816164E-02  0.1320468E+00
        -11   -1    0    0    0    0  0.00000000000E+00  0.00000000000E+00  0.45593999997E+02  0.45594000000E+02  0.51100000000E-03 0.  1.
         11   -1    0    0    0    0 -0.00000000000E+00 -0.00000000000E+00 -0.45593999997E+02  0.45594000000E+02  0.51100000000E-03 0. -1.
    9900012    2    1    2    0    0 -0.10212235070E+02  0.36022216815E+02  0.25044432434E+02  0.46142318239E+02  0.10000004357E+02 0.  0.
         12    1    1    2    0    0  0.10212235070E+02 -0.36022216815E+02 -0.25044432434E+02  0.45045681761E+02  0.00000000000E+00 0. -1.
         11    1    3    3    0    0 -0.68791957910E+00  0.11980466347E+02  0.51354039918E+01  0.13052861053E+02  0.51100000000E-03 0. -1.
        -11    1    3    3    0    0 -0.35600551096E+00 -0.27005948689E+00  0.33478719019E+00  0.55835004623E+00  0.51100000000E-03 0.  1.
         12    1    3    3    0    0 -0.91683099796E+01  0.24311809954E+02  0.19574241253E+02  0.32531107140E+02  0.00000000000E+00 0. -1.
</event>
<event>
 7    1  0.2312612E-008  0.4614232E+02  0.7816164E-02  0.1320468E+00
        -11   -1    0    0    0    0  0.00000000000E+00  0.00000000000E+00  0.45593999997E+02  0.45594000000E+02  0.51100000000E-03 0.  1.
         11   -1    0    0    0    0 -0.00000000000E+00 -0.00000000000E+00 -0.45593999997E+02  0.45594000000E+02  0.51100000000E-03 0. -1.
    9900012    2    1    2    0    0  0.24882590665E+01 -0.22192182431E+02  0.39120696545E+02  0.46142319936E+02  0.10000019835E+02 0.  0.
         12    1    1    2    0    0 -0.24882590665E+01  0.22192182431E+02 -0.39120696545E+02  0.45045680064E+02  0.00000000000E+00 0. -1.
         11    1    3    3    0    0  0.10365375032E+00  0.20923228708E+00  0.29470624722E+01  0.29562983148E+01  0.51100000000E-03 0. -1.
        -11    1    3    3    0    0 -0.90094873073E+00 -0.18169083427E+02  0.28975975437E+02  0.34213074314E+02  0.51100000000E-03 0.  1.
         12    1    3    3    0    0  0.32855540469E+01 -0.42323312909E+01  0.71976586359E+01  0.89729473079E+01  0.00000000000E+00 0. -1.
</event>
<event>
 7    1  0.2312612E-008  0.4614232E+02  0.7816164E-02  0.1320468E+00
        -11   -1    0    0    0    0  0.00000000000E+00  0.00000000000E+00  0.45593999997E+02  0.45594000000E+02  0.51100000000E-03 0.  1.
         11   -1    0    0    0    0 -0.00000000000E+00 -0.00000000000E+00 -0.45593999997E+02  0.45594000000E+02  0.51100000000E-03 0. -1.
    9900012    2    1    2    0    0  0.28291586856E+02  0.68383462141E+01  0.34379304448E+02  0.46142318297E+02  0.10000004884E+02 0.  0.
         12    1    1    2    0    0 -0.28291586856E+02 -0.68383462141E+01 -0.34379304448E+02  0.45045681703E+02  0.00000000000E+00 0. -1.
         11    1    3    3    0    0  0.49545050485E+01  0.41053916486E+00  0.90662280302E+01  0.10339833347E+02  0.51100000000E-03 0. -1.
        -11    1    3    3    0    0  0.20633255505E+02  0.35651436277E+01  0.23475979170E+02  0.31457321565E+02  0.51100000000E-03 0.  1.
        -12    1    3    3    0    0  0.27038263027E+01  0.28626634215E+01  0.18370972480E+01  0.43451633845E+01  0.00000000000E+00 0.  1.
</event>
<event>
 7    1  0.2312612E-008  0.4614232E+02  0.7816164E-02  0.1320468E+00
        -11   -1    0    0    0    0  0.00000000000E+00  0.00000000000E+00  0.45593999997E+02  0.45594000000E+02  0.51100000000E-03 0.  1.
         11   -1    0    0    0    0 -0.00000000000E+00 -0.00000000000E+00 -0.45593999997E+02  0.45594000000E+02  0.51100000000E-03 0. -1.
    9900012    2    1    2    0    0  0.15604759210E+02  0.12825447658E+02  0.40263044944E+02  0.46142318678E+02  0.10000008360E+02 0.  0.
         12    1    1    2    0    0 -0.15604759210E+02 -0.12825447658E+02 -0.40263044944E+02  0.45045681322E+02  0.00000000000E+00 0. -1.
         11    1    3    3    0    0  0.10315273708E+02  0.88334451709E+01  0.20856939482E+02  0.24888683173E+02  0.51100000000E-03 0. -1.
        -11    1    3    3    0    0  0.60849012090E+01  0.42338091445E+01  0.14578112155E+02  0.16354587028E+02  0.51100000000E-03 0.  1.
         12    1    3    3    0    0 -0.79541570749E+00 -0.24180665744E+00  0.48279933069E+01  0.48990484768E+01  0.00000000000E+00 0. -1.
</event>
<event>
 7    1  0.2312612E-008  0.4614232E+02  0.7816164E-02  0.1320468E+00
        -11   -1    0    0    0    0  0.00000000000E+00  0.00000000000E+00  0.45593999997E+02  0.45594000000E+02  0.51100000000E-03 0.  1.
         11   -1    0    0    0    0 -0.00000000000E+00 -0.00000000000E+00 -0.45593999997E+02  0.45594000000E+02  0.51100000000E-03 0. -1.
    9900012    2    1    2    0    0 -0.44390176716E+02 -0.75587026609E+01 -0.12213787740E+01  0.46142317178E+02  0.99999946864E+01 0.  0.
         12    1    1    2    0    0  0.44390176716E+02  0.75587026609E+01  0.12213787740E+01  0.45045682822E+02  0.00000000000E+00 0. -1.
         11    1    3    3    0    0 -0.23986985490E+01 -0.21828124213E+01 -0.95106989739E-01  0.32446063546E+01  0.51100000000E-03 0. -1.
        -11    1    3    3    0    0 -0.38781002503E+02 -0.65119571303E+01 -0.20234547386E+01  0.39375958529E+02  0.51100000000E-03 0.  1.
        -12    1    3    3    0    0 -0.32104756639E+01  0.11360668907E+01  0.89718295439E+00  0.35217522943E+01  0.00000000000E+00 0.  1.
</event>
<event>
 7    1  0.2312612E-008  0.4614231E+02  0.7816164E-02  0.1320468E+00
        -11   -1    0    0    0    0  0.00000000000E+00  0.00000000000E+00  0.45593999997E+02  0.45594000000E+02  0.51100000000E-03 0. -1.
         11   -1    0    0    0    0 -0.00000000000E+00 -0.00000000000E+00 -0.45593999997E+02  0.45594000000E+02  0.51100000000E-03 0.  1.
    9900012    2    1    2    0    0 -0.18808843980E+02  0.82825996924E+00 -0.40922551193E+02  0.46142314051E+02  0.99999661694E+01 0.  0.
         12    1    1    2    0    0  0.18808843980E+02 -0.82825996924E+00  0.40922551193E+02  0.45045685949E+02  0.00000000000E+00 0. -1.
         11    1    3    3    0    0 -0.95245996914E+01  0.91528331175E+00 -0.10887488291E+02  0.14494590176E+02  0.51100000000E-03 0. -1.
        -11    1    3    3    0    0 -0.28550512882E+01  0.16222042121E+01 -0.86756009383E+01  0.92762555089E+01  0.51100000000E-03 0.  1.
        -12    1    3    3    0    0 -0.64291930001E+01 -0.17092275546E+01 -0.21359461964E+02  0.22371468366E+02  0.00000000000E+00 0.  1.
</event>
<event>
 7    1  0.2312612E-008  0.4614232E+02  0.7816164E-02  0.1320468E+00
        -11   -1    0    0    0    0  0.00000000000E+00  0.00000000000E+00  0.45593999997E+02  0.45594000000E+02  0.51100000000E-03 0. -1.
         11   -1    0    0    0    0 -0.00000000000E+00 -0.00000000000E+00 -0.45593999997E+02  0.45594000000E+02  0.51100000000E-03 0.  1.
    9900012    2    1    2    0    0  0.13090267966E+02  0.40812504978E+02 -0.13859932005E+02  0.46142318818E+02  0.10000009634E+02 0.  0.
         12    1    1    2    0    0 -0.13090267966E+02 -0.40812504978E+02  0.13859932005E+02  0.45045681182E+02  0.00000000000E+00 0. -1.
         11    1    3    3    0    0  0.22639588909E+01  0.11232677569E+02 -0.18802751525E+01  0.11611803914E+02  0.51100000000E-03 0. -1.
        -11    1    3    3    0    0  0.75965218409E+01  0.27050623050E+02 -0.91592220254E+01  0.29552236800E+02  0.51100000000E-03 0.  1.
         12    1    3    3    0    0  0.32297872338E+01  0.25292043584E+01 -0.28204348268E+01  0.49782781034E+01  0.00000000000E+00 0. -1.
</event>
<event>
 7    1  0.2312612E-008  0.4614232E+02  0.7816164E-02  0.1320468E+00
        -11   -1    0    0    0    0  0.00000000000E+00  0.00000000000E+00  0.45593999997E+02  0.45594000000E+02  0.51100000000E-03 0.  1.
         11   -1    0    0    0    0 -0.00000000000E+00 -0.00000000000E+00 -0.45593999997E+02  0.45594000000E+02  0.51100000000E-03 0. -1.
    9900012    2    1    2    0    0 -0.31400104163E+02  0.27748839609E+02  0.16527222524E+02  0.46142315129E+02  0.99999760021E+01 0.  0.
         12    1    1    2    0    0  0.31400104163E+02 -0.27748839609E+02 -0.16527222524E+02  0.45045684871E+02  0.00000000000E+00 0. -1.
         11    1    3    3    0    0 -0.11856480129E+01  0.40136510487E+01  0.49353951196E+00  0.42141117050E+01  0.51100000000E-03 0. -1.
        -11    1    3    3    0    0 -0.13706865012E+02  0.11051321047E+02  0.46928775049E+01  0.18221771178E+02  0.51100000000E-03 0.  1.
         12    1    3    3    0    0 -0.16507591138E+02  0.12683867513E+02  0.11340805508E+02  0.23706432246E+02  0.00000000000E+00 0. -1.
</event>
<event>
 7    1  0.2312612E-008  0.4614232E+02  0.7816164E-02  0.1320468E+00
        -11   -1    0    0    0    0  0.00000000000E+00  0.00000000000E+00  0.45593999997E+02  0.45594000000E+02  0.51100000000E-03 0. -1.
         11   -1    0    0    0    0 -0.00000000000E+00 -0.00000000000E+00 -0.45593999997E+02  0.45594000000E+02  0.51100000000E-03 0.  1.
    9900012    2    1    2    0    0  0.27041065462E+02  0.93071602622E+01 -0.34803319577E+02  0.46142317554E+02  0.99999981117E+01 0.  0.
         12    1    1    2    0    0 -0.27041065462E+02 -0.93071602622E+01  0.34803319577E+02  0.45045682446E+02  0.00000000000E+00 0. -1.
         11    1    3    3    0    0  0.87770762889E+01  0.18598581421E+01 -0.12101418911E+02  0.15064543817E+02  0.51100000000E-03 0. -1.
        -11    1    3    3    0    0  0.68847483147E+01  0.55490616960E+01 -0.14272775808E+02  0.16789996265E+02  0.51100000000E-03 0.  1.
         12    1    3    3    0    0  0.11379240858E+02  0.18982404240E+01 -0.84291248580E+01  0.14287777472E+02  0.00000000000E+00 0. -1.
</event>
<event>
 7    1  0.2312612E-008  0.4614232E+02  0.7816164E-02  0.1320468E+00
        -11   -1    0    0    0    0  0.00000000000E+00  0.00000000000E+00  0.45593999997E+02  0.45594000000E+02  0.51100000000E-03 0.  1.
         11   -1    0    0    0    0 -0.00000000000E+00 -0.00000000000E+00 -0.45593999997E+02  0.45594000000E+02  0.51100000000E-03 0. -1.
    9900012    2    1    2    0    0  0.12890103576E+02  0.18091771793E+02  0.39187325144E+02  0.46142318423E+02  0.10000006034E+02 0.  0.
         12    1    1    2    0    0 -0.12890103576E+02 -0.18091771793E+02 -0.39187325144E+02  0.45045681577E+02  0.00000000000E+00 0. -1.
         11    1    3    3    0    0 -0.12690644387E+01  0.33885398088E+01  0.56467517012E+01  0.67066035831E+01  0.51100000000E-03 0. -1.
        -11    1    3    3    0    0  0.19358381844E+01  0.39285277813E+01  0.58669225237E+01  0.73213100034E+01  0.51100000000E-03 0.  1.
        -12    1    3    3    0    0  0.12223329830E+02  0.10774704203E+02  0.27673650919E+02  0.32114404836E+02  0.00000000000E+00 0.  1.
</event>
<event>
 7    1  0.2312612E-008  0.4614232E+02  0.7816164E-02  0.1320468E+00
        -11   -1    0    0    0    0  0.00000000000E+00  0.00000000000E+00  0.45593999997E+02  0.45594000000E+02  0.51100000000E-03 0. -1.
         11   -1    0    0    0    0 -0.00000000000E+00 -0.00000000000E+00 -0.45593999997E+02  0.45594000000E+02  0.51100000000E-03 0.  1.
    9900012    2    1    2    0    0  0.33394135228E+01  0.42885615697E+02  0.13371078131E+02  0.46142318223E+02  0.10000004209E+02 0.  0.
         12    1    1    2    0    0 -0.33394135228E+01 -0.42885615697E+02 -0.13371078131E+02  0.45045681777E+02  0.00000000000E+00 0. -1.
         11    1    3    3    0    0 -0.71163571746E-01  0.23245350903E+01  0.22987677830E-01  0.23257378043E+01  0.51100000000E-03 0. -1.
        -11    1    3    3    0    0  0.24947727417E+01  0.22644493113E+02  0.26654948970E+01  0.22936909615E+02  0.51100000000E-03 0.  1.
         12    1    3    3    0    0  0.91580435281E+00  0.17916587493E+02  0.10682595556E+02  0.20879670803E+02  0.00000000000E+00 0. -1.
</event>
<event>
 7    1  0.2312612E-008  0.4614232E+02  0.7816164E-02  0.1320468E+00
        -11   -1    0    0    0    0  0.00000000000E+00  0.00000000000E+00  0.45593999997E+02  0.45594000000E+02  0.51100000000E-03 0.  1.
         11   -1    0    0    0    0 -0.00000000000E+00 -0.00000000000E+00 -0.45593999997E+02  0.45594000000E+02  0.51100000000E-03 0. -1.
    9900012    2    1    2    0    0 -0.24914553568E+01  0.39252802537E+02  0.21957312914E+02  0.46142318218E+02  0.10000004167E+02 0.  0.
         12    1    1    2    0    0  0.24914553568E+01 -0.39252802537E+02 -0.21957312914E+02  0.45045681782E+02  0.00000000000E+00 0. -1.
         11    1    3    3    0    0 -0.28384789820E+01  0.13390589110E+02  0.58334913113E+01  0.14879329984E+02  0.51100000000E-03 0. -1.
        -11    1    3    3    0    0 -0.32604945488E+01  0.10469368780E+02  0.62056259446E+01  0.12599535745E+02  0.51100000000E-03 0.  1.
        -12    1    3    3    0    0  0.36075181740E+01  0.15392844647E+02  0.99181956584E+01  0.18663452489E+02  0.00000000000E+00 0.  1.
</event>
<event>
 7    1  0.2312612E-008  0.4614232E+02  0.7816164E-02  0.1320468E+00
        -11   -1    0    0    0    0  0.00000000000E+00  0.00000000000E+00  0.45593999997E+02  0.45594000000E+02  0.51100000000E-03 0.  1.
         11   -1    0    0    0    0 -0.00000000000E+00 -0.00000000000E+00 -0.45593999997E+02  0.45594000000E+02  0.51100000000E-03 0. -1.
    9900012    2    1    2    0    0  0.33664127500E+02  0.29760793430E+02  0.31835797162E+01  0.46142317790E+02  0.10000000266E+02 0.  0.
         12    1    1    2    0    0 -0.33664127500E+02 -0.29760793430E+02 -0.31835797162E+01  0.45045682210E+02  0.00000000000E+00 0. -1.
         11    1    3    3    0    0  0.12679028274E+02  0.11061042345E+02 -0.40891781546E+00  0.16830675262E+02  0.51100000000E-03 0. -1.
        -11    1    3    3    0    0  0.13734329209E+02  0.86096725560E+01 -0.53576375553E+00  0.16218671444E+02  0.51100000000E-03 0.  1.
         12    1    3    3    0    0  0.72507700172E+01  0.10090078529E+02  0.41282612872E+01  0.13092971084E+02  0.00000000000E+00 0. -1.
</event>
<event>
 7    1  0.2312612E-008  0.4614232E+02  0.7816164E-02  0.1320468E+00
        -11   -1    0    0    0    0  0.00000000000E+00  0.00000000000E+00  0.45593999997E+02  0.45594000000E+02  0.51100000000E-03 0.  1.
         11   -1    0    0    0    0 -0.00000000000E+00 -0.00000000000E+00 -0.45593999997E+02  0.45594000000E+02  0.51100000000E-03 0. -1.
    9900012    2    1    2    0    0 -0.22686205838E+02 -0.33145512941E+02 -0.20391775412E+02  0.46142317988E+02  0.10000002072E+02 0.  0.
         12    1    1    2    0    0  0.22686205838E+02  0.33145512941E+02  0.20391775412E+02  0.45045682012E+02  0.00000000000E+00 0. -1.
         11    1    3    3    0    0 -0.21912350209E+00 -0.12203618061E+01  0.31806299836E-01  0.12402862366E+01  0.51100000000E-03 0. -1.
        -11    1    3    3    0    0 -0.16164672588E+02 -0.18185695786E+02 -0.89518182299E+01  0.25925879368E+02  0.51100000000E-03 0.  1.
         12    1    3    3    0    0 -0.63024097474E+01 -0.13739455349E+02 -0.11471763482E+02  0.18976152384E+02  0.00000000000E+00 0. -1.
</event>
<event>
 7    1  0.2312612E-008  0.4614232E+02  0.7816164E-02  0.1320468E+00
        -11   -1    0    0    0    0  0.00000000000E+00  0.00000000000E+00  0.45593999997E+02  0.45594000000E+02  0.51100000000E-03 0.  1.
         11   -1    0    0    0    0 -0.00000000000E+00 -0.00000000000E+00 -0.45593999997E+02  0.45594000000E+02  0.51100000000E-03 0. -1.
    9900012    2    1    2    0    0 -0.13757615766E+02  0.24461769659E+02  0.35234404906E+02  0.46142318126E+02  0.10000003324E+02 0.  0.
         12    1    1    2    0    0  0.13757615766E+02 -0.24461769659E+02 -0.35234404906E+02  0.45045681874E+02  0.00000000000E+00 0. -1.
         11    1    3    3    0    0  0.42429228844E+00  0.22007949239E+01  0.22683094864E+00  0.22527704684E+01  0.51100000000E-03 0. -1.
        -11    1    3    3    0    0 -0.76813792921E+01  0.12875101793E+02  0.18370604864E+02  0.23711831590E+02  0.51100000000E-03 0.  1.
         12    1    3    3    0    0 -0.65005287626E+01  0.93858729426E+01  0.16636969093E+02  0.20177716067E+02  0.00000000000E+00 0. -1.
</event>
<event>
 7    1  0.2312612E-008  0.4614232E+02  0.7816164E-02  0.1320468E+00
        -11   -1    0    0    0    0  0.00000000000E+00  0.00000000000E+00  0.45593999997E+02  0.45594000000E+02  0.51100000000E-03 0.  1.
         11   -1    0    0    0    0 -0.00000000000E+00 -0.00000000000E+00 -0.45593999997E+02  0.45594000000E+02  0.51100000000E-03 0. -1.
    9900012    2    1    2    0    0 -0.10633057032E+02  0.29844462028E+02  0.32021238456E+02  0.46142317323E+02  0.99999960068E+01 0.  0.
         12    1    1    2    0    0  0.10633057032E+02 -0.29844462028E+02 -0.32021238456E+02  0.45045682677E+02  0.00000000000E+00 0. -1.
         11    1    3    3    0    0 -0.36404459964E+01  0.58396743431E+01  0.84500090558E+01  0.10897582153E+02  0.51100000000E-03 0. -1.
        -11    1    3    3    0    0 -0.74839935838E+01  0.18239256287E+02  0.21313262847E+02  0.29033356735E+02  0.51100000000E-03 0.  1.
         12    1    3    3    0    0  0.49138254870E+00  0.57655313970E+01  0.22579665536E+01  0.62113784345E+01  0.00000000000E+00 0. -1.
</event>
<event>
 7    1  0.2312612E-008  0.4614232E+02  0.7816164E-02  0.1320468E+00
        -11   -1    0    0    0    0  0.00000000000E+00  0.00000000000E+00  0.45593999997E+02  0.45594000000E+02  0.51100000000E-03 0. -1.
         11   -1    0    0    0    0 -0.00000000000E+00 -0.00000000000E+00 -0.45593999997E+02  0.45594000000E+02  0.51100000000E-03 0.  1.
    9900012    2    1    2    0    0  0.81309956972E+01  0.18040541150E+02 -0.40466521669E+02  0.46142316611E+02  0.99999895147E+01 0.  0.
         12    1    1    2    0    0 -0.81309956972E+01 -0.18040541150E+02  0.40466521669E+02  0.45045683389E+02  0.00000000000E+00 0. -1.
         11    1    3    3    0    0 -0.19081743818E+01  0.41204305963E+01 -0.79723035683E+01  0.91747862218E+01  0.51100000000E-03 0. -1.
        -11    1    3    3    0    0  0.51124951030E+01  0.54677810709E+01 -0.17849079072E+02  0.19355202401E+02  0.51100000000E-03 0.  1.
         12    1    3    3    0    0  0.49266749759E+01  0.84523294828E+01 -0.14645139028E+02  0.17612327988E+02  0.00000000000E+00 0. -1.
</event>
<event>
 7    1  0.2312612E-008  0.4614232E+02  0.7816164E-02  0.1320468E+00
        -11   -1    0    0    0    0  0.00000000000E+00  0.00000000000E+00  0.45593999997E+02  0.45594000000E+02  0.51100000000E-03 0.  1.
         11   -1    0    0    0    0 -0.00000000000E+00 -0.00000000000E+00 -0.45593999997E+02  0.45594000000E+02  0.51100000000E-03 0. -1.
    9900012    2    1    2    0    0  0.25231608473E+02 -0.28697094944E+02  0.23852806294E+02  0.46142315496E+02  0.99999793438E+01 0.  0.
         12    1    1    2    0    0 -0.25231608473E+02  0.28697094944E+02 -0.23852806294E+02  0.45045684504E+02  0.00000000000E+00 0. -1.
         11    1    3    3    0    0  0.39960083198E+01 -0.67158090917E+01  0.18829582375E+01  0.80383895299E+01  0.51100000000E-03 0. -1.
        -11    1    3    3    0    0  0.71868946565E+00 -0.33236632616E+01  0.23476555029E+01  0.41321590780E+01  0.51100000000E-03 0.  1.
        -12    1    3    3    0    0  0.20516910687E+02 -0.18657622591E+02  0.19622192553E+02  0.33971766888E+02  0.00000000000E+00 0.  1.
</event>
<event>
 7    1  0.2312612E-008  0.4614231E+02  0.7816164E-02  0.1320468E+00
        -11   -1    0    0    0    0  0.00000000000E+00  0.00000000000E+00  0.45593999997E+02  0.45594000000E+02  0.51100000000E-03 0.  1.
         11   -1    0    0    0    0 -0.00000000000E+00 -0.00000000000E+00 -0.45593999997E+02  0.45594000000E+02  0.51100000000E-03 0. -1.
    9900012    2    1    2    0    0  0.25322839169E+01 -0.35576850429E+02  0.27513440485E+02  0.46142310355E+02  0.99999324608E+01 0.  0.
         12    1    1    2    0    0 -0.25322839169E+01  0.35576850429E+02 -0.27513440485E+02  0.45045689645E+02  0.00000000000E+00 0. -1.
         11    1    3    3    0    0 -0.31568261378E+01 -0.14265975530E+02  0.11218950722E+02  0.18421413210E+02  0.51100000000E-03 0. -1.
        -11    1    3    3    0    0  0.30740454025E+01 -0.14610546584E+02  0.87880807801E+01  0.17324785444E+02  0.51100000000E-03 0.  1.
        -12    1    3    3    0    0  0.26150646521E+01 -0.67003283145E+01  0.75064089838E+01  0.10396111700E+02  0.00000000000E+00 0.  1.
</event>
<event>
 7    1  0.2312612E-008  0.4614232E+02  0.7816164E-02  0.1320468E+00
        -11   -1    0    0    0    0  0.00000000000E+00  0.00000000000E+00  0.45593999997E+02  0.45594000000E+02  0.51100000000E-03 0.  1.
         11   -1    0    0    0    0 -0.00000000000E+00 -0.00000000000E+00 -0.45593999997E+02  0.45594000000E+02  0.51100000000E-03 0. -1.
    9900012    2    1    2    0    0 -0.28111303516E+02 -0.81627568564E+01  0.34237955272E+02  0.46142316899E+02  0.99999921387E+01 0.  0.
         12    1    1    2    0    0  0.28111303516E+02  0.81627568564E+01 -0.34237955272E+02  0.45045683101E+02  0.00000000000E+00 0. -1.
         11    1    3    3    0    0 -0.35272268579E+01 -0.14138541842E+01  0.19854504999E+01  0.42874615928E+01  0.51100000000E-03 0. -1.
        -11    1    3    3    0    0 -0.17053074697E+02 -0.81841474651E+01  0.24494873590E+02  0.30948125288E+02  0.51100000000E-03 0.  1.
         12    1    3    3    0    0 -0.75310019611E+01  0.14352447929E+01  0.77576311813E+01  0.10906730019E+02  0.00000000000E+00 0. -1.
</event>
<event>
 7    1  0.2312612E-008  0.4614232E+02  0.7816164E-02  0.1320468E+00
        -11   -1    0    0    0    0  0.00000000000E+00  0.00000000000E+00  0.45593999997E+02  0.45594000000E+02  0.51100000000E-03 0.  1.
         11   -1    0    0    0    0 -0.00000000000E+00 -0.00000000000E+00 -0.45593999997E+02  0.45594000000E+02  0.51100000000E-03 0. -1.
    9900012    2    1    2    0    0 -0.34393557272E+02  0.83966590593E+01  0.27851263188E+02  0.46142317340E+02  0.99999961582E+01 0.  0.
         12    1    1    2    0    0  0.34393557272E+02 -0.83966590593E+01 -0.27851263188E+02  0.45045682660E+02  0.00000000000E+00 0. -1.
         11    1    3    3    0    0 -0.72770240622E+01  0.17486832164E+01  0.67015710823E+01  0.10046095133E+02  0.51100000000E-03 0. -1.
        -11    1    3    3    0    0 -0.83191673942E+01 -0.19046779311E+00  0.10618573565E+02  0.13490697867E+02  0.51100000000E-03 0.  1.
         12    1    3    3    0    0 -0.18797365816E+02  0.68384436360E+01  0.10531118540E+02  0.22605524340E+02  0.00000000000E+00 0. -1.
</event>
<event>
 7    1  0.2312612E-008  0.4614232E+02  0.7816164E-02  0.1320468E+00
        -11   -1    0    0    0    0  0.00000000000E+00  0.00000000000E+00  0.45593999997E+02  0.45594000000E+02  0.51100000000E-03 0.  1.
         11   -1    0    0    0    0 -0.00000000000E+00 -0.00000000000E+00 -0.45593999997E+02  0.45594000000E+02  0.51100000000E-03 0. -1.
    9900012    2    1    2    0    0 -0.10718390498E+02  0.40101381334E+02  0.17495956330E+02  0.46142321321E+02  0.10000032459E+02 0.  0.
         12    1    1    2    0    0  0.10718390498E+02 -0.40101381334E+02 -0.17495956330E+02  0.45045678679E+02  0.00000000000E+00 0. -1.
         11    1    3    3    0    0  0.10510436855E+00  0.56521161943E+00 -0.50670284526E+00  0.76632834839E+00  0.51100000000E-03 0. -1.
        -11    1    3    3    0    0 -0.20051454089E+01  0.21242412673E+02  0.96353928782E+01  0.23411567663E+02  0.51100000000E-03 0.  1.
        -12    1    3    3    0    0 -0.88183494575E+01  0.18293757042E+02  0.83672662968E+01  0.21964425309E+02  0.00000000000E+00 0.  1.
</event>
<event>
 7    1  0.2312612E-008  0.4614232E+02  0.7816164E-02  0.1320468E+00
        -11   -1    0    0    0    0  0.00000000000E+00  0.00000000000E+00  0.45593999997E+02  0.45594000000E+02  0.51100000000E-03 0. -1.
         11   -1    0    0    0    0 -0.00000000000E+00 -0.00000000000E+00 -0.45593999997E+02  0.45594000000E+02  0.51100000000E-03 0.  1.
    9900012    2    1    2    0    0  0.39128340330E+02  0.64679940768E+01 -0.21360042830E+02  0.46142318808E+02  0.10000009547E+02 0.  0.
         12    1    1    2    0    0 -0.39128340330E+02 -0.64679940768E+01  0.21360042830E+02  0.45045681192E+02  0.00000000000E+00 0. -1.
         11    1    3    3    0    0  0.72314416626E+01  0.28108828492E+01 -0.35495487024E+01  0.85319462706E+01  0.51100000000E-03 0. -1.
        -11    1    3    3    0    0  0.12138833261E+02  0.19082323343E+01 -0.24666721048E+01  0.12533040138E+02  0.51100000000E-03 0.  1.
         12    1    3    3    0    0  0.19758065406E+02  0.17488788933E+01 -0.15343822023E+02  0.25077332399E+02  0.00000000000E+00 0. -1.
</event>
<event>
 7    1  0.2312612E-008  0.4614232E+02  0.7816164E-02  0.1320468E+00
        -11   -1    0    0    0    0  0.00000000000E+00  0.00000000000E+00  0.45593999997E+02  0.45594000000E+02  0.51100000000E-03 0.  1.
         11   -1    0    0    0    0 -0.00000000000E+00 -0.00000000000E+00 -0.45593999997E+02  0.45594000000E+02  0.51100000000E-03 0. -1.
    9900012    2    1    2    0    0  0.25564846095E+01 -0.19851490512E+02  0.40354628969E+02  0.46142319093E+02  0.10000012150E+02 0.  0.
         12    1    1    2    0    0 -0.25564846095E+01  0.19851490512E+02 -0.40354628969E+02  0.45045680907E+02  0.00000000000E+00 0. -1.
         11    1    3    3    0    0  0.43136252105E+01 -0.62778082004E+01  0.15545233838E+02  0.17311052354E+02  0.51100000000E-03 0. -1.
        -11    1    3    3    0    0 -0.53372635565E+00 -0.54842525783E+01  0.51697911923E+01  0.75557019130E+01  0.51100000000E-03 0.  1.
         12    1    3    3    0    0 -0.12234142453E+01 -0.80894297332E+01  0.19639603939E+02  0.21275564827E+02  0.00000000000E+00 0. -1.
</event>
<event>
 7    1  0.2312612E-008  0.4614232E+02  0.7816164E-02  0.1320468E+00
        -11   -1    0    0    0    0  0.00000000000E+00  0.00000000000E+00  0.45593999997E+02  0.45594000000E+02  0.51100000000E-03 0.  1.
         11   -1    0    0    0    0 -0.00000000000E+00 -0.00000000000E+00 -0.45593999997E+02  0.45594000000E+02  0.51100000000E-03 0. -1.
    9900012    2    1    2    0    0  0.33502914237E+02 -0.26487184601E+02 -0.14321213404E+02  0.46142319144E+02  0.10000012606E+02 0.  0.
         12    1    1    2    0    0 -0.33502914237E+02  0.26487184601E+02  0.14321213404E+02  0.45045680856E+02  0.00000000000E+00 0. -1.
         11    1    3    3    0    0  0.55486131140E+01 -0.55659610039E+01 -0.51492299070E+01  0.93958287704E+01  0.51100000000E-03 0. -1.
        -11    1    3    3    0    0  0.11540453599E+02 -0.12710848557E+02 -0.55207086832E+01  0.18034022428E+02  0.51100000000E-03 0.  1.
        -12    1    3    3    0    0  0.16413847524E+02 -0.82103750409E+01 -0.36512748133E+01  0.18712467945E+02  0.00000000000E+00 0.  1.
</event>
<event>
 7    1  0.2312612E-008  0.4614232E+02  0.7816164E-02  0.1320468E+00
        -11   -1    0    0    0    0  0.00000000000E+00  0.00000000000E+00  0.45593999997E+02  0.45594000000E+02  0.51100000000E-03 0. -1.
         11   -1    0    0    0    0 -0.00000000000E+00 -0.00000000000E+00 -0.45593999997E+02  0.45594000000E+02  0.51100000000E-03 0.  1.
    9900012    2    1    2    0    0  0.24532299312E+02  0.33881815029E+02 -0.16712340796E+02  0.46142318363E+02  0.10000005493E+02 0.  0.
         12    1    1    2    0    0 -0.24532299312E+02 -0.33881815029E+02  0.16712340796E+02  0.45045681637E+02  0.00000000000E+00 0. -1.
         11    1    3    3    0    0  0.32707174232E+01  0.51012465479E+01 -0.16725491537E+01  0.62863128889E+01  0.51100000000E-03 0. -1.
        -11    1    3    3    0    0  0.58815314384E+01  0.26447903437E+01 -0.13732054481E+01  0.65934074262E+01  0.51100000000E-03 0.  1.
        -12    1    3    3    0    0  0.15380050451E+02  0.26135778137E+02 -0.13666586195E+02  0.33262598048E+02  0.00000000000E+00 0.  1.
</event>
<event>
 7    1  0.2312612E-008  0.4614232E+02  0.7816164E-02  0.1320468E+00
        -11   -1    0    0    0    0  0.00000000000E+00  0.00000000000E+00  0.45593999997E+02  0.45594000000E+02  0.51100000000E-03 0. -1.
         11   -1    0    0    0    0 -0.00000000000E+00 -0.00000000000E+00 -0.45593999997E+02  0.45594000000E+02  0.51100000000E-03 0.  1.
    9900012    2    1    2    0    0 -0.21184141340E+01  0.12304309921E+02 -0.43280823932E+02  0.46142318284E+02  0.10000004764E+02 0.  0.
         12    1    1    2    0    0  0.21184141340E+01 -0.12304309921E+02  0.43280823932E+02  0.45045681716E+02  0.00000000000E+00 0. -1.
         11    1    3    3    0    0  0.17902797716E+01  0.36157616294E+00 -0.61132420339E+01  0.63802482246E+01  0.51100000000E-03 0. -1.
        -11    1    3    3    0    0 -0.23414248718E+01  0.10036605558E+01 -0.35118052704E+01  0.43384768595E+01  0.51100000000E-03 0.  1.
        -12    1    3    3    0    0 -0.15672690338E+01  0.10939073202E+02 -0.33655776628E+02  0.35423593199E+02  0.00000000000E+00 0.  1.
</event>
<event>
 7    1  0.2312612E-008  0.4614232E+02  0.7816164E-02  0.1320468E+00
        -11   -1    0    0    0    0  0.00000000000E+00  0.00000000000E+00  0.45593999997E+02  0.45594000000E+02  0.51100000000E-03 0. -1.
         11   -1    0    0    0    0 -0.00000000000E+00 -0.00000000000E+00 -0.45593999997E+02  0.45594000000E+02  0.51100000000E-03 0.  1.
    9900012    2    1    2    0    0  0.21744523042E+02 -0.38427115058E+02 -0.89244586380E+01  0.46142318565E+02  0.10000007328E+02 0.  0.
         12    1    1    2    0    0 -0.21744523042E+02  0.38427115058E+02  0.89244586380E+01  0.45045681435E+02  0.00000000000E+00 0. -1.
         11    1    3    3    0    0  0.19126663024E+01 -0.14450841277E+01  0.10731351311E+01  0.26264386136E+01  0.51100000000E-03 0. -1.
        -11    1    3    3    0    0  0.46816919627E+01 -0.45600874208E+01 -0.21344134382E+01  0.68751987539E+01  0.51100000000E-03 0.  1.
         12    1    3    3    0    0  0.15150164777E+02 -0.32421943509E+02 -0.78631803308E+01  0.36640681197E+02  0.00000000000E+00 0. -1.
</event>
<event>
 7    1  0.2312612E-008  0.4614232E+02  0.7816164E-02  0.1320468E+00
        -11   -1    0    0    0    0  0.00000000000E+00  0.00000000000E+00  0.45593999997E+02  0.45594000000E+02  0.51100000000E-03 0.  1.
         11   -1    0    0    0    0 -0.00000000000E+00 -0.00000000000E+00 -0.45593999997E+02  0.45594000000E+02  0.51100000000E-03 0. -1.
    9900012    2    1    2    0    0  0.17652215686E+02 -0.51672659203E+00  0.41439664566E+02  0.46142317361E+02  0.99999963552E+01 0.  0.
         12    1    1    2    0    0 -0.17652215686E+02  0.51672659203E+00 -0.41439664566E+02  0.45045682639E+02  0.00000000000E+00 0. -1.
         11    1    3    3    0    0  0.52126359920E+01 -0.50437408806E+00  0.37679387081E+01  0.64516144937E+01  0.51100000000E-03 0. -1.
        -11    1    3    3    0    0  0.12054479136E+02 -0.59392208531E-01  0.37009285958E+02  0.38923016868E+02  0.51100000000E-03 0.  1.
         12    1    3    3    0    0  0.38510055812E+00  0.47039704555E-01  0.66243990007E+00  0.76768600018E+00  0.00000000000E+00 0. -1.
</event>
<event>
 7    1  0.2312612E-008  0.4614232E+02  0.7816164E-02  0.1320468E+00
        -11   -1    0    0    0    0  0.00000000000E+00  0.00000000000E+00  0.45593999997E+02  0.45594000000E+02  0.51100000000E-03 0.  1.
         11   -1    0    0    0    0 -0.00000000000E+00 -0.00000000000E+00 -0.45593999997E+02  0.45594000000E+02  0.51100000000E-03 0. -1.
    9900012    2    1    2    0    0  0.10031880019E+02  0.40960837031E+02  0.15833025382E+02  0.46142317857E+02  0.10000000874E+02 0.  0.
         12    1    1    2    0    0 -0.10031880019E+02 -0.40960837031E+02 -0.15833025382E+02  0.45045682143E+02  0.00000000000E+00 0. -1.
         11    1    3    3    0    0  0.24852581570E+01  0.14329707152E+02  0.84814796761E+01  0.16836048020E+02  0.51100000000E-03 0. -1.
        -11    1    3    3    0    0  0.81948486761E+01  0.20212105920E+02  0.45875097569E+01  0.22287440781E+02  0.51100000000E-03 0.  1.
        -12    1    3    3    0    0 -0.64822681421E+00  0.64190239586E+01  0.27640359490E+01  0.70188290555E+01  0.00000000000E+00 0.  1.
</event>
<event>
 7    1  0.2312612E-008  0.4614232E+02  0.7816164E-02  0.1320468E+00
        -11   -1    0    0    0    0  0.00000000000E+00  0.00000000000E+00  0.45593999997E+02  0.45594000000E+02  0.51100000000E-03 0. -1.
         11   -1    0    0    0    0 -0.00000000000E+00 -0.00000000000E+00 -0.45593999997E+02  0.45594000000E+02  0.51100000000E-03 0.  1.
    9900012    2    1    2    0    0  0.41026059696E+01  0.21120324012E+02 -0.39575421969E+02  0.46142317786E+02  0.10000000227E+02 0.  0.
         12    1    1    2    0    0 -0.41026059696E+01 -0.21120324012E+02  0.39575421969E+02  0.45045682214E+02  0.00000000000E+00 0. -1.
         11    1    3    3    0    0 -0.17512759515E+01  0.14570261017E+01 -0.14906933042E+01  0.27225097442E+01  0.51100000000E-03 0. -1.
        -11    1    3    3    0    0  0.23780369259E+01  0.10418729469E+02 -0.23374689042E+02  0.25701771756E+02  0.51100000000E-03 0.  1.
        -12    1    3    3    0    0  0.34758449952E+01  0.92445684414E+01 -0.14710039623E+02  0.17718036285E+02  0.00000000000E+00 0.  1.
</event>
<event>
 7    1  0.2312612E-008  0.4614232E+02  0.7816164E-02  0.1320468E+00
        -11   -1    0    0    0    0  0.00000000000E+00  0.00000000000E+00  0.45593999997E+02  0.45594000000E+02  0.51100000000E-03 0.  1.
         11   -1    0    0    0    0 -0.00000000000E+00 -0.00000000000E+00 -0.45593999997E+02  0.45594000000E+02  0.51100000000E-03 0. -1.
    9900012    2    1    2    0    0 -0.14300379328E+02  0.33751697221E+02  0.26180824660E+02  0.46142317697E+02  0.99999994156E+01 0.  0.
         12    1    1    2    0    0  0.14300379328E+02 -0.33751697221E+02 -0.26180824660E+02  0.45045682303E+02  0.00000000000E+00 0. -1.
         11    1    3    3    0    0 -0.21045544814E+01  0.50142386260E+01  0.53619449753E+01  0.76368968006E+01  0.51100000000E-03 0. -1.
        -11    1    3    3    0    0 -0.10826706584E+02  0.28894417739E+02  0.20622921196E+02  0.37113472363E+02  0.51100000000E-03 0.  1.
         12    1    3    3    0    0 -0.13691182626E+01 -0.15695914375E+00  0.19595848915E+00  0.13919485333E+01  0.00000000000E+00 0. -1.
</event>
<event>
 7    1  0.2312612E-008  0.4614232E+02  0.7816164E-02  0.1320468E+00
        -11   -1    0    0    0    0  0.00000000000E+00  0.00000000000E+00  0.45593999997E+02  0.45594000000E+02  0.51100000000E-03 0. -1.
         11   -1    0    0    0    0 -0.00000000000E+00 -0.00000000000E+00 -0.45593999997E+02  0.45594000000E+02  0.51100000000E-03 0.  1.
    9900012    2    1    2    0    0 -0.27453781800E+02  0.51498546316E+01 -0.35339529584E+02  0.46142317753E+02  0.99999999245E+01 0.  0.
         12    1    1    2    0    0  0.27453781800E+02 -0.51498546316E+01  0.35339529584E+02  0.45045682247E+02  0.00000000000E+00 0. -1.
         11    1    3    3    0    0 -0.60364382639E+01  0.90249612929E+00 -0.31640484294E+01  0.68749028285E+01  0.51100000000E-03 0. -1.
        -11    1    3    3    0    0 -0.32652240513E+01  0.15428823636E+01 -0.90538552962E+01  0.97475366159E+01  0.51100000000E-03 0.  1.
        -12    1    3    3    0    0 -0.18152119485E+02  0.27044761387E+01 -0.23121625859E+02  0.29519878308E+02  0.00000000000E+00 0.  1.
</event>
<event>
 7    1  0.2312612E-008  0.4614232E+02  0.7816164E-02  0.1320468E+00
        -11   -1    0    0    0    0  0.00000000000E+00  0.00000000000E+00  0.45593999997E+02  0.45594000000E+02  0.51100000000E-03 0.  1.
         11   -1    0    0    0    0 -0.00000000000E+00 -0.00000000000E+00 -0.45593999997E+02  0.45594000000E+02  0.51100000000E-03 0. -1.
    9900012    2    1    2    0    0  0.23569309921E+02 -0.25609329308E+02  0.28596560745E+02  0.46142318695E+02  0.10000008517E+02 0.  0.
         12    1    1    2    0    0 -0.23569309921E+02  0.25609329308E+02 -0.28596560745E+02  0.45045681305E+02  0.00000000000E+00 0. -1.
         11    1    3    3    0    0  0.21998376604E+01  0.77329179961E-01  0.71518862729E+00  0.23144676640E+01  0.51100000000E-03 0. -1.
        -11    1    3    3    0    0  0.64708643953E+00  0.17126352937E+00  0.41352618741E+00  0.78680126176E+00  0.51100000000E-03 0.  1.
        -12    1    3    3    0    0  0.20722385821E+02 -0.25857922017E+02  0.27467845930E+02  0.43041049769E+02  0.00000000000E+00 0.  1.
</event>
<event>
 7    1  0.2312612E-008  0.4614232E+02  0.7816164E-02  0.1320468E+00
        -11   -1    0    0    0    0  0.00000000000E+00  0.00000000000E+00  0.45593999997E+02  0.45594000000E+02  0.51100000000E-03 0. -1.
         11   -1    0    0    0    0 -0.00000000000E+00 -0.00000000000E+00 -0.45593999997E+02  0.45594000000E+02  0.51100000000E-03 0.  1.
    9900012    2    1    2    0    0 -0.13820233699E+02 -0.42687080080E+02 -0.39909638777E+01  0.46142318099E+02  0.10000003082E+02 0.  0.
         12    1    1    2    0    0  0.13820233699E+02  0.42687080080E+02  0.39909638777E+01  0.45045681901E+02  0.00000000000E+00 0. -1.
         11    1    3    3    0    0  0.12871090876E+01 -0.26421935243E+01 -0.25653927312E+00  0.29501947534E+01  0.51100000000E-03 0. -1.
        -11    1    3    3    0    0 -0.62265320629E+01 -0.22327137034E+02 -0.11774112979E+01  0.23208986348E+02  0.51100000000E-03 0.  1.
        -12    1    3    3    0    0 -0.88808107240E+01 -0.17717749521E+02 -0.25570133067E+01  0.19983136998E+02  0.00000000000E+00 0.  1.
</event>
<event>
 7    1  0.2312612E-008  0.4614232E+02  0.7816164E-02  0.1320468E+00
        -11   -1    0    0    0    0  0.00000000000E+00  0.00000000000E+00  0.45593999997E+02  0.45594000000E+02  0.51100000000E-03 0.  1.
         11   -1    0    0    0    0 -0.00000000000E+00 -0.00000000000E+00 -0.45593999997E+02  0.45594000000E+02  0.51100000000E-03 0. -1.
    9900012    2    1    2    0    0 -0.39958710755E+02  0.28075539069E+01  0.20604192071E+02  0.46142315911E+02  0.99999831273E+01 0.  0.
         12    1    1    2    0    0  0.39958710755E+02 -0.28075539069E+01 -0.20604192071E+02  0.45045684089E+02  0.00000000000E+00 0. -1.
         11    1    3    3    0    0 -0.16542350975E+02  0.22087241630E+01  0.88359832028E+01  0.18883920081E+02  0.51100000000E-03 0. -1.
        -11    1    3    3    0    0 -0.10305055527E+02  0.38033710784E+01  0.65394803835E+01  0.12783763332E+02  0.51100000000E-03 0.  1.
         12    1    3    3    0    0 -0.13111304252E+02 -0.32045413344E+01  0.52287284852E+01  0.14474632497E+02  0.00000000000E+00 0. -1.
</event>
<event>
 7    1  0.2312612E-008  0.4614232E+02  0.7816164E-02  0.1320468E+00
        -11   -1    0    0    0    0  0.00000000000E+00  0.00000000000E+00  0.45593999997E+02  0.45594000000E+02  0.51100000000E-03 0. -1.
         11   -1    0    0    0    0 -0.00000000000E+00 -0.00000000000E+00 -0.45593999997E+02  0.45594000000E+02  0.51100000000E-03 0.  1.
    9900012    2    1    2    0    0 -0.50124025535E+00 -0.32148648130E+02 -0.31548800379E+02  0.46142316258E+02  0.99999862974E+01 0.  0.
         12    1    1    2    0    0  0.50124025535E+00  0.32148648130E+02  0.31548800379E+02  0.45045683742E+02  0.00000000000E+00 0. -1.
         11    1    3    3    0    0 -0.35900788033E+01 -0.12378764173E+02 -0.10265582117E+02  0.16477397996E+02  0.51100000000E-03 0.  1.
        -11    1    3    3    0    0  0.10510779944E+00  0.13491881716E+00  0.17488869992E+00  0.24461613849E+00  0.51100000000E-03 0. -1.
        -12    1    3    3    0    0  0.29837307485E+01 -0.19904802775E+02 -0.21458106961E+02  0.29420302124E+02  0.00000000000E+00 0.  1.
</event>
<event>
 7    1  0.2312612E-008  0.4614232E+02  0.7816164E-02  0.1320468E+00
        -11   -1    0    0    0    0  0.00000000000E+00  0.00000000000E+00  0.45593999997E+02  0.45594000000E+02  0.51100000000E-03 0.  1.
         11   -1    0    0    0    0 -0.00000000000E+00 -0.00000000000E+00 -0.45593999997E+02  0.45594000000E+02  0.51100000000E-03 0. -1.
    9900012    2    1    2    0    0  0.89837275998E+01  0.42119491094E+02 -0.13204343637E+02  0.46142316716E+02  0.99999904708E+01 0.  0.
         12    1    1    2    0    0 -0.89837275998E+01 -0.42119491094E+02  0.13204343637E+02  0.45045683284E+02  0.00000000000E+00 0. -1.
         11    1    3    3    0    0  0.56618458723E+01  0.19125359596E+02 -0.33837253698E+01  0.20230805125E+02  0.51100000000E-03 0. -1.
        -11    1    3    3    0    0  0.42492398585E+01  0.20059462875E+02 -0.68092925393E+01  0.21605660262E+02  0.51100000000E-03 0.  1.
         12    1    3    3    0    0 -0.92735813105E+00  0.29346686237E+01 -0.30113257279E+01  0.43058513298E+01  0.00000000000E+00 0. -1.
</event>
<event>
 7    1  0.2312612E-008  0.4614232E+02  0.7816164E-02  0.1320468E+00
        -11   -1    0    0    0    0  0.00000000000E+00  0.00000000000E+00  0.45593999997E+02  0.45594000000E+02  0.51100000000E-03 0. -1.
         11   -1    0    0    0    0 -0.00000000000E+00 -0.00000000000E+00 -0.45593999997E+02  0.45594000000E+02  0.51100000000E-03 0.  1.
    9900012    2    1    2    0    0  0.21786296334E+02  0.17211680911E+02 -0.35471521167E+02  0.46142317836E+02  0.10000000685E+02 0.  0.
         12    1    1    2    0    0 -0.21786296334E+02 -0.17211680911E+02  0.35471521167E+02  0.45045682164E+02  0.00000000000E+00 0. -1.
         11    1    3    3    0    0  0.12799986727E+02  0.84165270542E+01 -0.14500573375E+02  0.21093700869E+02  0.51100000000E-03 0. -1.
        -11    1    3    3    0    0  0.33004792970E+00  0.25618821337E+01 -0.19340157221E+01  0.32268543162E+01  0.51100000000E-03 0.  1.
        -12    1    3    3    0    0  0.86562616765E+01  0.62332717226E+01 -0.19036932069E+02  0.21821762651E+02  0.00000000000E+00 0.  1.
</event>
<event>
 7    1  0.2312612E-008  0.4614232E+02  0.7816164E-02  0.1320468E+00
        -11   -1    0    0    0    0  0.00000000000E+00  0.00000000000E+00  0.45593999997E+02  0.45594000000E+02  0.51100000000E-03 0.  1.
         11   -1    0    0    0    0 -0.00000000000E+00 -0.00000000000E+00 -0.45593999997E+02  0.45594000000E+02  0.51100000000E-03 0. -1.
    9900012    2    1    2    0    0 -0.97211747636E+01 -0.56262509685E+01  0.43622901744E+02  0.46142317684E+02  0.99999993001E+01 0.  0.
         12    1    1    2    0    0  0.97211747636E+01  0.56262509685E+01 -0.43622901744E+02  0.45045682316E+02  0.00000000000E+00 0. -1.
         11    1    3    3    0    0 -0.80299161927E+00 -0.11578696495E+01  0.53120595335E+01  0.54957651346E+01  0.51100000000E-03 0. -1.
        -11    1    3    3    0    0 -0.11565832882E+01 -0.56159055404E+01  0.16340506150E+02  0.17317281006E+02  0.51100000000E-03 0.  1.
         12    1    3    3    0    0 -0.77615998562E+01  0.11475242215E+01  0.21970336060E+02  0.23329271544E+02  0.00000000000E+00 0. -1.
</event>
<event>
 7    1  0.2312612E-008  0.4614232E+02  0.7816164E-02  0.1320468E+00
        -11   -1    0    0    0    0  0.00000000000E+00  0.00000000000E+00  0.45593999997E+02  0.45594000000E+02  0.51100000000E-03 0.  1.
         11   -1    0    0    0    0 -0.00000000000E+00 -0.00000000000E+00 -0.45593999997E+02  0.45594000000E+02  0.51100000000E-03 0. -1.
    9900012    2    1    2    0    0  0.38689570668E+02 -0.21879023184E+02  0.73170401501E+01  0.46142316405E+02  0.99999876350E+01 0.  0.
         12    1    1    2    0    0 -0.38689570668E+02  0.21879023184E+02 -0.73170401501E+01  0.45045683595E+02  0.00000000000E+00 0. -1.
         11    1    3    3    0    0  0.28572135567E+00 -0.75297778354E+00  0.28473923103E+00  0.85421831308E+00  0.51100000000E-03 0. -1.
        -11    1    3    3    0    0  0.48636448949E+01 -0.84531363885E+00 -0.15309351524E+01  0.51684968331E+01  0.51100000000E-03 0.  1.
        -12    1    3    3    0    0  0.33540204417E+02 -0.20280731762E+02  0.85632360715E+01  0.40119601259E+02  0.00000000000E+00 0.  1.
</event>
<event>
 7    1  0.2312612E-008  0.4614232E+02  0.7816164E-02  0.1320468E+00
        -11   -1    0    0    0    0  0.00000000000E+00  0.00000000000E+00  0.45593999997E+02  0.45594000000E+02  0.51100000000E-03 0.  1.
         11   -1    0    0    0    0 -0.00000000000E+00 -0.00000000000E+00 -0.45593999997E+02  0.45594000000E+02  0.51100000000E-03 0. -1.
    9900012    2    1    2    0    0 -0.73510705363E+01 -0.41833309965E+02  0.15001647352E+02  0.46142317811E+02  0.10000000452E+02 0.  0.
         12    1    1    2    0    0  0.73510705363E+01  0.41833309965E+02 -0.15001647352E+02  0.45045682189E+02  0.00000000000E+00 0. -1.
         11    1    3    3    0    0 -0.42943522447E+01 -0.24791526829E+02  0.80273612281E+01  0.26410221359E+02  0.51100000000E-03 0. -1.
        -11    1    3    3    0    0 -0.43663516003E+01 -0.14676050901E+02  0.73804526510E+01  0.16997722728E+02  0.51100000000E-03 0.  1.
         12    1    3    3    0    0  0.13096333088E+01 -0.23657322353E+01 -0.40616652715E+00  0.27343737237E+01  0.00000000000E+00 0. -1.
</event>
<event>
 7    1  0.2312612E-008  0.4614232E+02  0.7816164E-02  0.1320468E+00
        -11   -1    0    0    0    0  0.00000000000E+00  0.00000000000E+00  0.45593999997E+02  0.45594000000E+02  0.51100000000E-03 0. -1.
         11   -1    0    0    0    0 -0.00000000000E+00 -0.00000000000E+00 -0.45593999997E+02  0.45594000000E+02  0.51100000000E-03 0.  1.
    9900012    2    1    2    0    0  0.54001834624E+01 -0.44323662009E+02  0.59467935763E+01  0.46142319306E+02  0.10000014090E+02 0.  0.
         12    1    1    2    0    0 -0.54001834624E+01  0.44323662009E+02 -0.59467935763E+01  0.45045680694E+02  0.00000000000E+00 0. -1.
         11    1    3    3    0    0  0.45638760870E+01 -0.14702088588E+02  0.56682835387E+01  0.16404566813E+02  0.51100000000E-03 0. -1.
        -11    1    3    3    0    0 -0.51760736746E+00 -0.18633605533E+01  0.22080835873E+00  0.19464805498E+01  0.51100000000E-03 0.  1.
         12    1    3    3    0    0  0.13539147429E+01 -0.27758212868E+02  0.57701678851E-01  0.27791271944E+02  0.00000000000E+00 0. -1.
</event>
<event>
 7    1  0.2312612E-008  0.4614232E+02  0.7816164E-02  0.1320468E+00
        -11   -1    0    0    0    0  0.00000000000E+00  0.00000000000E+00  0.45593999997E+02  0.45594000000E+02  0.51100000000E-03 0.  1.
         11   -1    0    0    0    0 -0.00000000000E+00 -0.00000000000E+00 -0.45593999997E+02  0.45594000000E+02  0.51100000000E-03 0. -1.
    9900012    2    1    2    0    0  0.34040064044E+02  0.17613502993E+02  0.23667534794E+02  0.46142315956E+02  0.99999835396E+01 0.  0.
         12    1    1    2    0    0 -0.34040064044E+02 -0.17613502993E+02 -0.23667534794E+02  0.45045684044E+02  0.00000000000E+00 0. -1.
         11    1    3    3    0    0  0.21253116634E+01  0.28479573894E+01  0.17008721649E+01  0.39396417782E+01  0.51100000000E-03 0. -1.
        -11    1    3    3    0    0  0.26266465109E+02  0.13445481763E+02  0.21239227658E+02  0.36356745742E+02  0.51100000000E-03 0.  1.
        -12    1    3    3    0    0  0.56482872711E+01  0.13200638405E+01  0.72743497080E+00  0.58459284358E+01  0.00000000000E+00 0.  1.
</event>
<event>
 7    1  0.2312612E-008  0.4614232E+02  0.7816164E-02  0.1320468E+00
        -11   -1    0    0    0    0  0.00000000000E+00  0.00000000000E+00  0.45593999997E+02  0.45594000000E+02  0.51100000000E-03 0.  1.
         11   -1    0    0    0    0 -0.00000000000E+00 -0.00000000000E+00 -0.45593999997E+02  0.45594000000E+02  0.51100000000E-03 0. -1.
    9900012    2    1    2    0    0  0.30551334561E+02  0.12385855842E+02  0.30697232179E+02  0.46142317278E+02  0.99999955957E+01 0.  0.
         12    1    1    2    0    0 -0.30551334561E+02 -0.12385855842E+02 -0.30697232179E+02  0.45045682722E+02  0.00000000000E+00 0. -1.
         11    1    3    3    0    0  0.22364416399E+02  0.12866016973E+02  0.20884368364E+02  0.33194251850E+02  0.51100000000E-03 0. -1.
        -11    1    3    3    0    0  0.58770331585E+01  0.58033265194E+00  0.68215449771E+01  0.90227368834E+01  0.51100000000E-03 0.  1.
        -12    1    3    3    0    0  0.23098850040E+01 -0.10604937835E+01  0.29913188379E+01  0.39253285450E+01  0.00000000000E+00 0.  1.
</event>
<event>
 7    1  0.2312612E-008  0.4614232E+02  0.7816164E-02  0.1320468E+00
        -11   -1    0    0    0    0  0.00000000000E+00  0.00000000000E+00  0.45593999997E+02  0.45594000000E+02  0.51100000000E-03 0. -1.
         11   -1    0    0    0    0 -0.00000000000E+00 -0.00000000000E+00 -0.45593999997E+02  0.45594000000E+02  0.51100000000E-03 0.  1.
    9900012    2    1    2    0    0  0.19867667263E+02  0.33967849235E+02 -0.21922009590E+02  0.46142317759E+02  0.99999999764E+01 0.  0.
         12    1    1    2    0    0 -0.19867667263E+02 -0.33967849235E+02  0.21922009590E+02  0.45045682241E+02  0.00000000000E+00 0. -1.
         11    1    3    3    0    0  0.16059544360E+02  0.22492804193E+02 -0.11843461152E+02  0.30068301878E+02  0.51100000000E-03 0. -1.
        -11    1    3    3    0    0  0.42381754038E+01  0.11028278400E+02 -0.90889490356E+01  0.14906174896E+02  0.51100000000E-03 0.  1.
         12    1    3    3    0    0 -0.43005250113E+00  0.44676664284E+00 -0.98959940205E+00  0.11678409838E+01  0.00000000000E+00 0. -1.
</event>
<event>
 7    1  0.2312612E-008  0.4614232E+02  0.7816164E-02  0.1320468E+00
        -11   -1    0    0    0    0  0.00000000000E+00  0.00000000000E+00  0.45593999997E+02  0.45594000000E+02  0.51100000000E-03 0. -1.
         11   -1    0    0    0    0 -0.00000000000E+00 -0.00000000000E+00 -0.45593999997E+02  0.45594000000E+02  0.51100000000E-03 0.  1.
    9900012    2    1    2    0    0 -0.61917747396E+01 -0.43534605183E+02 -0.97730994926E+01  0.46142318780E+02  0.10000009294E+02 0.  0.
         12    1    1    2    0    0  0.61917747396E+01  0.43534605183E+02  0.97730994926E+01  0.45045681220E+02  0.00000000000E+00 0. -1.
         11    1    3    3    0    0 -0.58110061832E+01 -0.14375337956E+02 -0.56315097570E+01  0.16496424964E+02  0.51100000000E-03 0. -1.
        -11    1    3    3    0    0 -0.14540103063E+01 -0.18819377053E+02 -0.37417979864E+01  0.19242768799E+02  0.51100000000E-03 0.  1.
        -12    1    3    3    0    0  0.10732417499E+01 -0.10339890174E+02 -0.39979174923E+00  0.10403125017E+02  0.00000000000E+00 0.  1.
</event>
<event>
 7    1  0.2312612E-008  0.4614232E+02  0.7816164E-02  0.1320468E+00
        -11   -1    0    0    0    0  0.00000000000E+00  0.00000000000E+00  0.45593999997E+02  0.45594000000E+02  0.51100000000E-03 0.  1.
         11   -1    0    0    0    0 -0.00000000000E+00 -0.00000000000E+00 -0.45593999997E+02  0.45594000000E+02  0.51100000000E-03 0. -1.
    9900012    2    1    2    0    0  0.36202024638E+02  0.16970169226E+02  0.20749462462E+02  0.46142318477E+02  0.10000006524E+02 0.  0.
         12    1    1    2    0    0 -0.36202024638E+02 -0.16970169226E+02 -0.20749462462E+02  0.45045681523E+02  0.00000000000E+00 0. -1.
         11    1    3    3    0    0  0.66807037255E+01  0.66575275853E+01  0.22473552554E+01  0.96956217811E+01  0.51100000000E-03 0. -1.
        -11    1    3    3    0    0  0.17710394754E+02  0.51293977188E+01  0.97288162250E+01  0.20847509892E+02  0.51100000000E-03 0.  1.
         12    1    3    3    0    0  0.11810926158E+02  0.51832439219E+01  0.87732909819E+01  0.15599186803E+02  0.00000000000E+00 0. -1.
</event>
<event>
 7    1  0.2312612E-008  0.4614232E+02  0.7816164E-02  0.1320468E+00
        -11   -1    0    0    0    0  0.00000000000E+00  0.00000000000E+00  0.45593999997E+02  0.45594000000E+02  0.51100000000E-03 0. -1.
         11   -1    0    0    0    0 -0.00000000000E+00 -0.00000000000E+00 -0.45593999997E+02  0.45594000000E+02  0.51100000000E-03 0.  1.
    9900012    2    1    2    0    0 -0.26432369595E+02 -0.11792454994E+02 -0.34516386520E+02  0.46142322120E+02  0.10000039751E+02 0.  0.
         12    1    1    2    0    0  0.26432369595E+02  0.11792454994E+02  0.34516386520E+02  0.45045677880E+02  0.00000000000E+00 0. -1.
         11    1    3    3    0    0 -0.15813285421E+01 -0.33066987143E+01 -0.47606694056E+01  0.60082301717E+01  0.51100000000E-03 0. -1.
        -11    1    3    3    0    0 -0.43847215751E+01 -0.40483502985E+01 -0.72947695715E+01  0.94248918716E+01  0.51100000000E-03 0.  1.
        -12    1    3    3    0    0 -0.20466319478E+02 -0.44374059815E+01 -0.22460947543E+02  0.30709200077E+02  0.00000000000E+00 0.  1.
</event>
<event>
 7    1  0.2312612E-008  0.4614232E+02  0.7816164E-02  0.1320468E+00
        -11   -1    0    0    0    0  0.00000000000E+00  0.00000000000E+00  0.45593999997E+02  0.45594000000E+02  0.51100000000E-03 0. -1.
         11   -1    0    0    0    0 -0.00000000000E+00 -0.00000000000E+00 -0.45593999997E+02  0.45594000000E+02  0.51100000000E-03 0.  1.
    9900012    2    1    2    0    0 -0.78906610430E+01 -0.44330120485E+02 -0.13004989314E+01  0.46142318615E+02  0.10000007790E+02 0.  0.
         12    1    1    2    0    0  0.78906610430E+01  0.44330120485E+02  0.13004989314E+01  0.45045681385E+02  0.00000000000E+00 0. -1.
         11    1    3    3    0    0 -0.11341151970E+01 -0.92677336406E+01  0.10705801027E+01  0.93980448036E+01  0.51100000000E-03 0. -1.
        -11    1    3    3    0    0  0.11347763844E+00  0.11596878948E-01 -0.96964672038E+00  0.97633328607E+00  0.51100000000E-03 0.  1.
        -12    1    3    3    0    0 -0.68700234845E+01 -0.35073983724E+02 -0.14014323137E+01  0.35767940526E+02  0.00000000000E+00 0.  1.
</event>
<event>
 7    1  0.2312612E-008  0.4614232E+02  0.7816164E-02  0.1320468E+00
        -11   -1    0    0    0    0  0.00000000000E+00  0.00000000000E+00  0.45593999997E+02  0.45594000000E+02  0.51100000000E-03 0.  1.
         11   -1    0    0    0    0 -0.00000000000E+00 -0.00000000000E+00 -0.45593999997E+02  0.45594000000E+02  0.51100000000E-03 0. -1.
    9900012    2    1    2    0    0  0.43573783186E+02 -0.47587654680E+00 -0.11411066525E+02  0.46142317866E+02  0.10000000960E+02 0.  0.
         12    1    1    2    0    0 -0.43573783186E+02  0.47587654680E+00  0.11411066525E+02  0.45045682134E+02  0.00000000000E+00 0. -1.
         11    1    3    3    0    0  0.53589017681E+01  0.20199622077E+01  0.43393262965E+00  0.57433764694E+01  0.51100000000E-03 0. -1.
        -11    1    3    3    0    0  0.36529417754E+01  0.10223281895E+01 -0.36531760780E+00  0.38108523663E+01  0.51100000000E-03 0.  1.
        -12    1    3    3    0    0  0.34561939643E+02 -0.35181669441E+01 -0.11479681547E+02  0.36588089031E+02  0.00000000000E+00 0.  1.
</event>
<event>
 7    1  0.2312612E-008  0.4614232E+02  0.7816164E-02  0.1320468E+00
        -11   -1    0    0    0    0  0.00000000000E+00  0.00000000000E+00  0.45593999997E+02  0.45594000000E+02  0.51100000000E-03 0.  1.
         11   -1    0    0    0    0 -0.00000000000E+00 -0.00000000000E+00 -0.45593999997E+02  0.45594000000E+02  0.51100000000E-03 0. -1.
    9900012    2    1    2    0    0  0.25611472005E+01  0.38589025129E+02  0.23096340698E+02  0.46142319973E+02  0.10000020172E+02 0.  0.
         12    1    1    2    0    0 -0.25611472005E+01 -0.38589025129E+02 -0.23096340698E+02  0.45045680027E+02  0.00000000000E+00 0. -1.
         11    1    3    3    0    0 -0.25278957667E+00  0.92818965899E+01  0.66085766873E+01  0.11396964200E+02  0.51100000000E-03 0. -1.
        -11    1    3    3    0    0 -0.24303656827E+01  0.17440328637E+02  0.93296000297E+01  0.19927698745E+02  0.51100000000E-03 0.  1.
         12    1    3    3    0    0  0.52443024599E+01  0.11866799903E+02  0.71581639813E+01  0.14817657028E+02  0.00000000000E+00 0. -1.
</event>
<event>
 7    1  0.2312612E-008  0.4614232E+02  0.7816164E-02  0.1320468E+00
        -11   -1    0    0    0    0  0.00000000000E+00  0.00000000000E+00  0.45593999997E+02  0.45594000000E+02  0.51100000000E-03 0. -1.
         11   -1    0    0    0    0 -0.00000000000E+00 -0.00000000000E+00 -0.45593999997E+02  0.45594000000E+02  0.51100000000E-03 0.  1.
    9900012    2    1    2    0    0  0.27977116346E+02  0.10693313950E+02 -0.33645913466E+02  0.46142317685E+02  0.99999993057E+01 0.  0.
         12    1    1    2    0    0 -0.27977116346E+02 -0.10693313950E+02  0.33645913466E+02  0.45045682315E+02  0.00000000000E+00 0. -1.
         11    1    3    3    0    0  0.26865118226E+01  0.11010663062E+01 -0.96702920172E-01  0.29050033562E+01  0.51100000000E-03 0. -1.
        -11    1    3    3    0    0  0.10639747316E+01  0.88499484488E+00 -0.28818572335E+01  0.31969296959E+01  0.51100000000E-03 0.  1.
        -12    1    3    3    0    0  0.24226629792E+02  0.87072527992E+01 -0.30667353312E+02  0.40040384633E+02  0.00000000000E+00 0.  1.
</event>
<event>
 7    1  0.2312612E-008  0.4614232E+02  0.7816164E-02  0.1320468E+00
        -11   -1    0    0    0    0  0.00000000000E+00  0.00000000000E+00  0.45593999997E+02  0.45594000000E+02  0.51100000000E-03 0.  1.
         11   -1    0    0    0    0 -0.00000000000E+00 -0.00000000000E+00 -0.45593999997E+02  0.45594000000E+02  0.51100000000E-03 0. -1.
    9900012    2    1    2    0    0 -0.38349251255E+02  0.79849624415E+01  0.22241599766E+02  0.46142318107E+02  0.10000003158E+02 0.  0.
         12    1    1    2    0    0  0.38349251255E+02 -0.79849624415E+01 -0.22241599766E+02  0.45045681893E+02  0.00000000000E+00 0. -1.
         11    1    3    3    0    0 -0.23976084643E+01  0.31908932254E+00  0.25478021390E+00  0.24321302519E+01  0.51100000000E-03 0. -1.
        -11    1    3    3    0    0 -0.10167778677E+02  0.10844477782E+01  0.10713758676E+02  0.14810279384E+02  0.51100000000E-03 0.  1.
        -12    1    3    3    0    0 -0.25783864113E+02  0.65814253408E+01  0.11273060877E+02  0.28899908472E+02  0.00000000000E+00 0.  1.
</event>
<event>
 7    1  0.2312612E-008  0.4614232E+02  0.7816164E-02  0.1320468E+00
        -11   -1    0    0    0    0  0.00000000000E+00  0.00000000000E+00  0.45593999997E+02  0.45594000000E+02  0.51100000000E-03 0.  1.
         11   -1    0    0    0    0 -0.00000000000E+00 -0.00000000000E+00 -0.45593999997E+02  0.45594000000E+02  0.51100000000E-03 0. -1.
    9900012    2    1    2    0    0  0.28066044189E+02 -0.29393944899E+02  0.19426954298E+02  0.46142318892E+02  0.10000010316E+02 0.  0.
         12    1    1    2    0    0 -0.28066044189E+02  0.29393944899E+02 -0.19426954298E+02  0.45045681108E+02  0.00000000000E+00 0. -1.
         11    1    3    3    0    0  0.64041510554E+01 -0.33595063084E+01  0.35929765795E+01  0.80752036716E+01  0.51100000000E-03 0. -1.
        -11    1    3    3    0    0  0.57133129159E+01 -0.75512153564E+01  0.80932411110E+01  0.12456458155E+02  0.51100000000E-03 0.  1.
        -12    1    3    3    0    0  0.15948580218E+02 -0.18483223234E+02  0.77407366074E+01  0.25610657065E+02  0.00000000000E+00 0.  1.
</event>
<event>
 7    1  0.2312612E-008  0.4614232E+02  0.7816164E-02  0.1320468E+00
        -11   -1    0    0    0    0  0.00000000000E+00  0.00000000000E+00  0.45593999997E+02  0.45594000000E+02  0.51100000000E-03 0. -1.
         11   -1    0    0    0    0 -0.00000000000E+00 -0.00000000000E+00 -0.45593999997E+02  0.45594000000E+02  0.51100000000E-03 0.  1.
    9900012    2    1    2    0    0 -0.18897503860E+01 -0.19065038668E+02 -0.40768452467E+02  0.46142316827E+02  0.99999914838E+01 0.  0.
         12    1    1    2    0    0  0.18897503860E+01  0.19065038668E+02  0.40768452467E+02  0.45045683173E+02  0.00000000000E+00 0. -1.
         11    1    3    3    0    0  0.50232103442E+00 -0.23962441857E+01 -0.11449640757E+02  0.11708483520E+02  0.51100000000E-03 0. -1.
        -11    1    3    3    0    0 -0.27507995149E+01 -0.20442358466E+01 -0.57659260390E+01  0.67075853715E+01  0.51100000000E-03 0.  1.
         12    1    3    3    0    0  0.35872809447E+00 -0.14624558636E+02 -0.23552885671E+02  0.27726247935E+02  0.00000000000E+00 0. -1.
</event>
<event>
 7    1  0.2312612E-008  0.4614232E+02  0.7816164E-02  0.1320468E+00
        -11   -1    0    0    0    0  0.00000000000E+00  0.00000000000E+00  0.45593999997E+02  0.45594000000E+02  0.51100000000E-03 0.  1.
         11   -1    0    0    0    0 -0.00000000000E+00 -0.00000000000E+00 -0.45593999997E+02  0.45594000000E+02  0.51100000000E-03 0. -1.
    9900012    2    1    2    0    0 -0.32395402182E+02  0.29410527705E+02 -0.10708500832E+02  0.46142320824E+02  0.10000027926E+02 0.  0.
         12    1    1    2    0    0  0.32395402182E+02 -0.29410527705E+02  0.10708500832E+02  0.45045679176E+02  0.00000000000E+00 0. -1.
         11    1    3    3    0    0 -0.70077527939E+01  0.38989493785E+01 -0.59005750479E-01  0.80195939682E+01  0.51100000000E-03 0. -1.
        -11    1    3    3    0    0 -0.23586447469E+02  0.23470237140E+02 -0.11601443203E+02  0.35238700604E+02  0.51100000000E-03 0.  1.
        -12    1    3    3    0    0 -0.18012019188E+01  0.20413411860E+01  0.95194812137E+00  0.28840262508E+01  0.00000000000E+00 0.  1.
</event>
<event>
 7    1  0.2312612E-008  0.4614232E+02  0.7816164E-02  0.1320468E+00
        -11   -1    0    0    0    0  0.00000000000E+00  0.00000000000E+00  0.45593999997E+02  0.45594000000E+02  0.51100000000E-03 0.  1.
         11   -1    0    0    0    0 -0.00000000000E+00 -0.00000000000E+00 -0.45593999997E+02  0.45594000000E+02  0.51100000000E-03 0. -1.
    9900012    2    1    2    0    0 -0.23963453591E+01 -0.85323783034E+01  0.44165255331E+02  0.46142315090E+02  0.99999756392E+01 0.  0.
         12    1    1    2    0    0  0.23963453591E+01  0.85323783034E+01 -0.44165255331E+02  0.45045684910E+02  0.00000000000E+00 0. -1.
         11    1    3    3    0    0  0.94158528597E+00 -0.15147401339E+01  0.17639972591E+01  0.25085268815E+01  0.51100000000E-03 0. -1.
        -11    1    3    3    0    0 -0.48623740100E+01 -0.24211331459E+01  0.20952781782E+02  0.21645406704E+02  0.51100000000E-03 0.  1.
        -12    1    3    3    0    0  0.15244433649E+01 -0.45965050236E+01  0.21448476290E+02  0.21988381504E+02  0.00000000000E+00 0.  1.
</event>
<event>
 7    1  0.2312612E-008  0.4614232E+02  0.7816164E-02  0.1320468E+00
        -11   -1    0    0    0    0  0.00000000000E+00  0.00000000000E+00  0.45593999997E+02  0.45594000000E+02  0.51100000000E-03 0.  1.
         11   -1    0    0    0    0 -0.00000000000E+00 -0.00000000000E+00 -0.45593999997E+02  0.45594000000E+02  0.51100000000E-03 0. -1.
    9900012    2    1    2    0    0  0.40341086513E+02 -0.38451295564E+01  0.19670415356E+02  0.46142317380E+02  0.99999965284E+01 0.  0.
         12    1    1    2    0    0 -0.40341086513E+02  0.38451295564E+01 -0.19670415356E+02  0.45045682620E+02  0.00000000000E+00 0. -1.
         11    1    3    3    0    0  0.56694692863E+01 -0.33829867262E-01  0.12258468755E+01  0.58005799083E+01  0.51100000000E-03 0. -1.
        -11    1    3    3    0    0  0.48925906370E+01  0.20563057157E+01  0.44196805913E+01  0.69064761730E+01  0.51100000000E-03 0.  1.
        -12    1    3    3    0    0  0.29779026590E+02 -0.58676054048E+01  0.14024887890E+02  0.33435261299E+02  0.00000000000E+00 0.  1.
</event>
<event>
 7    1  0.2312612E-008  0.4614232E+02  0.7816164E-02  0.1320468E+00
        -11   -1    0    0    0    0  0.00000000000E+00  0.00000000000E+00  0.45593999997E+02  0.45594000000E+02  0.51100000000E-03 0. -1.
         11   -1    0    0    0    0 -0.00000000000E+00 -0.00000000000E+00 -0.45593999997E+02  0.45594000000E+02  0.51100000000E-03 0.  1.
    9900012    2    1    2    0    0  0.14604009226E+02  0.38418354377E+02 -0.18435468594E+02  0.46142317179E+02  0.99999946957E+01 0.  0.
         12    1    1    2    0    0 -0.14604009226E+02 -0.38418354377E+02  0.18435468594E+02  0.45045682821E+02  0.00000000000E+00 0. -1.
         11    1    3    3    0    0  0.48101772948E+01  0.17541433008E+02 -0.32427657984E+01  0.18475800602E+02  0.51100000000E-03 0. -1.
        -11    1    3    3    0    0  0.34503835851E+01  0.87023530730E+01 -0.68819561572E+01  0.11618838871E+02  0.51100000000E-03 0.  1.
         12    1    3    3    0    0  0.63434483463E+01  0.12174568296E+02 -0.83107466382E+01  0.16047677707E+02  0.00000000000E+00 0. -1.
</event>
<event>
 7    1  0.2312612E-008  0.4614232E+02  0.7816164E-02  0.1320468E+00
        -11   -1    0    0    0    0  0.00000000000E+00  0.00000000000E+00  0.45593999997E+02  0.45594000000E+02  0.51100000000E-03 0.  1.
         11   -1    0    0    0    0 -0.00000000000E+00 -0.00000000000E+00 -0.45593999997E+02  0.45594000000E+02  0.51100000000E-03 0. -1.
    9900012    2    1    2    0    0  0.22870852046E+02  0.36831628624E+02  0.12225751366E+02  0.46142315003E+02  0.99999748497E+01 0.  0.
         12    1    1    2    0    0 -0.22870852046E+02 -0.36831628624E+02 -0.12225751366E+02  0.45045684997E+02  0.00000000000E+00 0. -1.
         11    1    3    3    0    0  0.57278252291E+00 -0.22735419529E+00  0.17796524038E+00  0.64143716495E+00  0.51100000000E-03 0. -1.
        -11    1    3    3    0    0  0.10009159606E+02  0.12287728060E+02  0.72816140509E+01  0.17441142174E+02  0.51100000000E-03 0.  1.
         12    1    3    3    0    0  0.12288909917E+02  0.24771254759E+02  0.47661720752E+01  0.28059735664E+02  0.00000000000E+00 0. -1.
</event>
<event>
 7    1  0.2312612E-008  0.4614232E+02  0.7816164E-02  0.1320468E+00
        -11   -1    0    0    0    0  0.00000000000E+00  0.00000000000E+00  0.45593999997E+02  0.45594000000E+02  0.51100000000E-03 0.  1.
         11   -1    0    0    0    0 -0.00000000000E+00 -0.00000000000E+00 -0.45593999997E+02  0.45594000000E+02  0.51100000000E-03 0. -1.
    9900012    2    1    2    0    0  0.28929993297E+02 -0.14202663951E+02  0.31471469447E+02  0.46142316915E+02  0.99999922799E+01 0.  0.
         12    1    1    2    0    0 -0.28929993297E+02  0.14202663951E+02 -0.31471469447E+02  0.45045683085E+02  0.00000000000E+00 0. -1.
         11    1    3    3    0    0  0.80913551337E+01 -0.59400976621E+01  0.91783164220E+01  0.13601333785E+02  0.51100000000E-03 0. -1.
        -11    1    3    3    0    0  0.95375365109E+01  0.12492562773E+00  0.10436966704E+02  0.14138970378E+02  0.51100000000E-03 0.  1.
        -12    1    3    3    0    0  0.11301101653E+02 -0.83874919167E+01  0.11856186321E+02  0.18402012751E+02  0.00000000000E+00 0.  1.
</event>
<event>
 7    1  0.2312612E-008  0.4614231E+02  0.7816164E-02  0.1320468E+00
        -11   -1    0    0    0    0  0.00000000000E+00  0.00000000000E+00  0.45593999997E+02  0.45594000000E+02  0.51100000000E-03 0. -1.
         11   -1    0    0    0    0 -0.00000000000E+00 -0.00000000000E+00 -0.45593999997E+02  0.45594000000E+02  0.51100000000E-03 0.  1.
    9900012    2    1    2    0    0 -0.38135160780E+02 -0.12571768639E+02 -0.20415052390E+02  0.46142309657E+02  0.99999261003E+01 0.  0.
         12    1    1    2    0    0  0.38135160780E+02  0.12571768639E+02  0.20415052390E+02  0.45045690343E+02  0.00000000000E+00 0. -1.
         11    1    3    3    0    0 -0.17375154672E+01 -0.59631135186E+00  0.91685070263E+00  0.20530861403E+01  0.51100000000E-03 0. -1.
        -11    1    3    3    0    0 -0.84322992740E+01 -0.12211285432E+01 -0.34169619204E+01  0.91798940622E+01  0.51100000000E-03 0.  1.
        -12    1    3    3    0    0 -0.27965346038E+02 -0.10754328744E+02 -0.17914941172E+02  0.34909329455E+02  0.00000000000E+00 0.  1.
</event>
<event>
 7    1  0.2312612E-008  0.4614232E+02  0.7816164E-02  0.1320468E+00
        -11   -1    0    0    0    0  0.00000000000E+00  0.00000000000E+00  0.45593999997E+02  0.45594000000E+02  0.51100000000E-03 0.  1.
         11   -1    0    0    0    0 -0.00000000000E+00 -0.00000000000E+00 -0.45593999997E+02  0.45594000000E+02  0.51100000000E-03 0. -1.
    9900012    2    1    2    0    0 -0.42867464073E+02 -0.13473192180E+02  0.31570681325E+01  0.46142318045E+02  0.10000002588E+02 0.  0.
         12    1    1    2    0    0  0.42867464073E+02  0.13473192180E+02 -0.31570681325E+01  0.45045681955E+02  0.00000000000E+00 0. -1.
         11    1    3    3    0    0 -0.14144129727E+02 -0.16777240322E+01 -0.45501329319E+00  0.14250550902E+02  0.51100000000E-03 0. -1.
        -11    1    3    3    0    0 -0.11382267316E+02 -0.36325096782E+01  0.43399649393E+01  0.12711665184E+02  0.51100000000E-03 0.  1.
         12    1    3    3    0    0 -0.17341067031E+02 -0.81629584698E+01 -0.72788351354E+00  0.19180101959E+02  0.00000000000E+00 0. -1.
</event>
<event>
 7    1  0.2312612E-008  0.4614232E+02  0.7816164E-02  0.1320468E+00
        -11   -1    0    0    0    0  0.00000000000E+00  0.00000000000E+00  0.45593999997E+02  0.45594000000E+02  0.51100000000E-03 0.  1.
         11   -1    0    0    0    0 -0.00000000000E+00 -0.00000000000E+00 -0.45593999997E+02  0.45594000000E+02  0.51100000000E-03 0. -1.
    9900012    2    1    2    0    0  0.56491093868E+01 -0.24679521797E+02  0.37257513740E+02  0.46142316932E+02  0.99999924372E+01 0.  0.
         12    1    1    2    0    0 -0.56491093868E+01  0.24679521797E+02 -0.37257513740E+02  0.45045683068E+02  0.00000000000E+00 0. -1.
         11    1    3    3    0    0 -0.25656650080E+00 -0.29853532655E+00 -0.19728966095E+00  0.44031032462E+00  0.51100000000E-03 0. -1.
        -11    1    3    3    0    0  0.74828334540E+01 -0.16685872164E+02  0.24932367346E+02  0.30919800583E+02  0.51100000000E-03 0.  1.
         12    1    3    3    0    0 -0.15771575663E+01 -0.76951143069E+01  0.12522436056E+02  0.14782206024E+02  0.00000000000E+00 0. -1.
</event>
<event>
 7    1  0.2312612E-008  0.4614232E+02  0.7816164E-02  0.1320468E+00
        -11   -1    0    0    0    0  0.00000000000E+00  0.00000000000E+00  0.45593999997E+02  0.45594000000E+02  0.51100000000E-03 0. -1.
         11   -1    0    0    0    0 -0.00000000000E+00 -0.00000000000E+00 -0.45593999997E+02  0.45594000000E+02  0.51100000000E-03 0.  1.
    9900012    2    1    2    0    0 -0.32978178002E+02  0.30575229287E+02  0.25901054108E+01  0.46142317451E+02  0.99999971732E+01 0.  0.
         12    1    1    2    0    0  0.32978178002E+02 -0.30575229287E+02 -0.25901054108E+01  0.45045682549E+02  0.00000000000E+00 0. -1.
         11    1    3    3    0    0 -0.90285740876E+01  0.81566553273E+01  0.50439303563E+01  0.13171461949E+02  0.51100000000E-03 0. -1.
        -11    1    3    3    0    0 -0.53969873833E+01  0.63400192641E+01 -0.81550357121E+00  0.83659048178E+01  0.51100000000E-03 0.  1.
        -12    1    3    3    0    0 -0.18552616531E+02  0.16078554695E+02 -0.16383213743E+01  0.24604950684E+02  0.00000000000E+00 0.  1.
</event>
<event>
 7    1  0.2312612E-008  0.4614232E+02  0.7816164E-02  0.1320468E+00
        -11   -1    0    0    0    0  0.00000000000E+00  0.00000000000E+00  0.45593999997E+02  0.45594000000E+02  0.51100000000E-03 0.  1.
         11   -1    0    0    0    0 -0.00000000000E+00 -0.00000000000E+00 -0.45593999997E+02  0.45594000000E+02  0.51100000000E-03 0. -1.
    9900012    2    1    2    0    0  0.39441646339E+02  0.14565542585E+02  0.16165240395E+02  0.46142317702E+02  0.99999994591E+01 0.  0.
         12    1    1    2    0    0 -0.39441646339E+02 -0.14565542585E+02 -0.16165240395E+02  0.45045682298E+02  0.00000000000E+00 0. -1.
         11    1    3    3    0    0  0.79682919824E+00  0.12550827873E+01 -0.89092838371E+00  0.17331829737E+01  0.51100000000E-03 0. -1.
        -11    1    3    3    0    0  0.21984265701E+02  0.81731159501E+01  0.81388844126E+01  0.24826381180E+02  0.51100000000E-03 0.  1.
        -12    1    3    3    0    0  0.16660551439E+02  0.51373438475E+01  0.89172843657E+01  0.19582753548E+02  0.00000000000E+00 0.  1.
</event>
<event>
 7    1  0.2312612E-008  0.4614232E+02  0.7816164E-02  0.1320468E+00
        -11   -1    0    0    0    0  0.00000000000E+00  0.00000000000E+00  0.45593999997E+02  0.45594000000E+02  0.51100000000E-03 0.  1.
         11   -1    0    0    0    0 -0.00000000000E+00 -0.00000000000E+00 -0.45593999997E+02  0.45594000000E+02  0.51100000000E-03 0. -1.
    9900012    2    1    2    0    0  0.13618049632E+02  0.42073398705E+02  0.85727114948E+01  0.46142317224E+02  0.99999951038E+01 0.  0.
         12    1    1    2    0    0 -0.13618049632E+02 -0.42073398705E+02 -0.85727114948E+01  0.45045682776E+02  0.00000000000E+00 0. -1.
         11    1    3    3    0    0  0.19260615043E+01  0.19380327651E+02  0.59572274735E+01  0.20366525777E+02  0.51100000000E-03 0. -1.
        -11    1    3    3    0    0  0.67935957027E+01  0.15049912067E+02  0.89769334195E+00  0.16536585179E+02  0.51100000000E-03 0.  1.
         12    1    3    3    0    0  0.48983924248E+01  0.76431589873E+01  0.17177906794E+01  0.92392062685E+01  0.00000000000E+00 0. -1.
</event>
<event>
 7    1  0.2312612E-008  0.4614232E+02  0.7816164E-02  0.1320468E+00
        -11   -1    0    0    0    0  0.00000000000E+00  0.00000000000E+00  0.45593999997E+02  0.45594000000E+02  0.51100000000E-03 0.  1.
         11   -1    0    0    0    0 -0.00000000000E+00 -0.00000000000E+00 -0.45593999997E+02  0.45594000000E+02  0.51100000000E-03 0. -1.
    9900012    2    1    2    0    0  0.24557843011E+02 -0.21922915806E+02  0.30747546901E+02  0.46142317286E+02  0.99999956670E+01 0.  0.
         12    1    1    2    0    0 -0.24557843011E+02  0.21922915806E+02 -0.30747546901E+02  0.45045682714E+02  0.00000000000E+00 0. -1.
         11    1    3    3    0    0  0.96833332722E+01 -0.85531289843E+01  0.58386673052E+01  0.14177905164E+02  0.51100000000E-03 0. -1.
        -11    1    3    3    0    0  0.80042684893E+01 -0.73882237076E+01  0.12696462960E+02  0.16728847407E+02  0.51100000000E-03 0.  1.
         12    1    3    3    0    0  0.68702412493E+01 -0.59815631140E+01  0.12212416635E+02  0.15235564715E+02  0.00000000000E+00 0. -1.
</event>
<event>
 7    1  0.2312612E-008  0.4614232E+02  0.7816164E-02  0.1320468E+00
        -11   -1    0    0    0    0  0.00000000000E+00  0.00000000000E+00  0.45593999997E+02  0.45594000000E+02  0.51100000000E-03 0.  1.
         11   -1    0    0    0    0 -0.00000000000E+00 -0.00000000000E+00 -0.45593999997E+02  0.45594000000E+02  0.51100000000E-03 0. -1.
    9900012    2    1    2    0    0  0.75364891867E+01  0.31138991810E+02  0.31665093042E+02  0.46142316549E+02  0.99999889477E+01 0.  0.
         12    1    1    2    0    0 -0.75364891867E+01 -0.31138991810E+02 -0.31665093042E+02  0.45045683451E+02  0.00000000000E+00 0. -1.
         11    1    3    3    0    0  0.34041094332E+01  0.60831957355E+01  0.38184655298E+01  0.79482017245E+01  0.51100000000E-03 0. -1.
        -11    1    3    3    0    0  0.49180896469E+01  0.18480894099E+02  0.23387262343E+02  0.30210843958E+02  0.51100000000E-03 0.  1.
        -12    1    3    3    0    0 -0.78570989336E+00  0.65749019753E+01  0.44593651692E+01  0.79832708669E+01  0.00000000000E+00 0.  1.
</event>
<event>
 7    1  0.2312612E-008  0.4614232E+02  0.7816164E-02  0.1320468E+00
        -11   -1    0    0    0    0  0.00000000000E+00  0.00000000000E+00  0.45593999997E+02  0.45594000000E+02  0.51100000000E-03 0.  1.
         11   -1    0    0    0    0 -0.00000000000E+00 -0.00000000000E+00 -0.45593999997E+02  0.45594000000E+02  0.51100000000E-03 0. -1.
    9900012    2    1    2    0    0 -0.14928505357E+02  0.14417577844E+02  0.39979828206E+02  0.46142317782E+02  0.10000000192E+02 0.  0.
         12    1    1    2    0    0  0.14928505357E+02 -0.14417577844E+02 -0.39979828206E+02  0.45045682218E+02  0.00000000000E+00 0. -1.
         11    1    3    3    0    0  0.48576517242E+00  0.57253225374E+00  0.67944131498E+00  0.10126212253E+01  0.51100000000E-03 0. -1.
        -11    1    3    3    0    0 -0.16282134002E+01  0.36839317722E+01  0.14075129620E+02  0.14640071935E+02  0.51100000000E-03 0.  1.
         12    1    3    3    0    0 -0.13786057130E+02  0.10161113818E+02  0.25225257271E+02  0.30489624622E+02  0.00000000000E+00 0. -1.
</event>
<event>
 7    1  0.2312612E-008  0.4614232E+02  0.7816164E-02  0.1320468E+00
        -11   -1    0    0    0    0  0.00000000000E+00  0.00000000000E+00  0.45593999997E+02  0.45594000000E+02  0.51100000000E-03 0.  1.
         11   -1    0    0    0    0 -0.00000000000E+00 -0.00000000000E+00 -0.45593999997E+02  0.45594000000E+02  0.51100000000E-03 0. -1.
    9900012    2    1    2    0    0 -0.19210240534E+02 -0.38509627193E+02  0.13307467529E+02  0.46142318520E+02  0.10000006920E+02 0.  0.
         12    1    1    2    0    0  0.19210240534E+02  0.38509627193E+02 -0.13307467529E+02  0.45045681480E+02  0.00000000000E+00 0. -1.
         11    1    3    3    0    0  0.17455014260E+00  0.31058829712E+00  0.20118771177E+00  0.40915718138E+00  0.51100000000E-03 0. -1.
        -11    1    3    3    0    0 -0.26481622432E+01 -0.62790566108E+01  0.44227725759E+01  0.81240527268E+01  0.51100000000E-03 0.  1.
        -12    1    3    3    0    0 -0.16736628434E+02 -0.32541158880E+02  0.86835072418E+01  0.37609108612E+02  0.00000000000E+00 0.  1.
</event>
<event>
 7    1  0.2312612E-008  0.4614232E+02  0.7816164E-02  0.1320468E+00
        -11   -1    0    0    0    0  0.00000000000E+00  0.00000000000E+00  0.45593999997E+02  0.45594000000E+02  0.51100000000E-03 0. -1.
         11   -1    0    0    0    0 -0.00000000000E+00 -0.00000000000E+00 -0.45593999997E+02  0.45594000000E+02  0.51100000000E-03 0.  1.
    9900012    2    1    2    0    0 -0.24914236601E+02  0.36416451113E+02 -0.90684118846E+01  0.46142321060E+02  0.10000030084E+02 0.  0.
         12    1    1    2    0    0  0.24914236601E+02 -0.36416451113E+02  0.90684118846E+01  0.45045678940E+02  0.00000000000E+00 0. -1.
         11    1    3    3    0    0 -0.61885383165E+00 -0.23547520506E+00 -0.49592276017E+00  0.82726554523E+00  0.51100000000E-03 0. -1.
        -11    1    3    3    0    0 -0.15163163559E+02  0.24888477019E+02 -0.87262253328E+01  0.30422110813E+02  0.51100000000E-03 0.  1.
        -12    1    3    3    0    0 -0.91322192100E+01  0.11763449298E+02  0.15373620839E+00  0.14892944702E+02  0.00000000000E+00 0.  1.
</event>
<event>
 7    1  0.2312612E-008  0.4614232E+02  0.7816164E-02  0.1320468E+00
        -11   -1    0    0    0    0  0.00000000000E+00  0.00000000000E+00  0.45593999997E+02  0.45594000000E+02  0.51100000000E-03 0.  1.
         11   -1    0    0    0    0 -0.00000000000E+00 -0.00000000000E+00 -0.45593999997E+02  0.45594000000E+02  0.51100000000E-03 0. -1.
    9900012    2    1    2    0    0  0.31204020816E+02 -0.21807352264E+02 -0.24080322299E+02  0.46142318189E+02  0.10000003898E+02 0.  0.
         12    1    1    2    0    0 -0.31204020816E+02  0.21807352264E+02  0.24080322299E+02  0.45045681811E+02  0.00000000000E+00 0. -1.
         11    1    3    3    0    0  0.22032467887E+02 -0.15838411815E+02 -0.12759633476E+02  0.29984882469E+02  0.51100000000E-03 0. -1.
        -11    1    3    3    0    0  0.15456014690E+01  0.29388669978E+00 -0.93009865057E+00  0.18276588999E+01  0.51100000000E-03 0.  1.
        -12    1    3    3    0    0  0.76259514601E+01 -0.62628271487E+01 -0.10390590172E+02  0.14329776819E+02  0.00000000000E+00 0.  1.
</event>
<event>
 7    1  0.2312612E-008  0.4614231E+02  0.7816164E-02  0.1320468E+00
        -11   -1    0    0    0    0  0.00000000000E+00  0.00000000000E+00  0.45593999997E+02  0.45594000000E+02  0.51100000000E-03 0. -1.
         11   -1    0    0    0    0 -0.00000000000E+00 -0.00000000000E+00 -0.45593999997E+02  0.45594000000E+02  0.51100000000E-03 0.  1.
    9900012    2    1    2    0    0  0.41447233054E+02 -0.16576809705E+02 -0.60374031647E+01  0.46142312251E+02  0.99999497548E+01 0.  0.
         12    1    1    2    0    0 -0.41447233054E+02  0.16576809705E+02  0.60374031647E+01  0.45045687749E+02  0.00000000000E+00 0. -1.
         11    1    3    3    0    0  0.13579915991E+02 -0.10146182015E+02 -0.21189854946E+01  0.17083595277E+02  0.51100000000E-03 0. -1.
        -11    1    3    3    0    0  0.15485180406E+02 -0.48336215187E+01 -0.10964309275E+01  0.16259055022E+02  0.51100000000E-03 0.  1.
        -12    1    3    3    0    0  0.12382136657E+02 -0.15970061717E+01 -0.28219867426E+01  0.12799661951E+02  0.00000000000E+00 0.  1.
</event>
<event>
 7    1  0.2312612E-008  0.4614232E+02  0.7816164E-02  0.1320468E+00
        -11   -1    0    0    0    0  0.00000000000E+00  0.00000000000E+00  0.45593999997E+02  0.45594000000E+02  0.51100000000E-03 0. -1.
         11   -1    0    0    0    0 -0.00000000000E+00 -0.00000000000E+00 -0.45593999997E+02  0.45594000000E+02  0.51100000000E-03 0.  1.
    9900012    2    1    2    0    0  0.23527413504E+02  0.26319291148E+02 -0.27979802156E+02  0.46142316506E+02  0.99999885580E+01 0.  0.
         12    1    1    2    0    0 -0.23527413504E+02 -0.26319291148E+02  0.27979802156E+02  0.45045683494E+02  0.00000000000E+00 0. -1.
         11    1    3    3    0    0  0.10449492755E+02  0.59286671288E+01 -0.82485989823E+01  0.14573276165E+02  0.51100000000E-03 0. -1.
        -11    1    3    3    0    0  0.82806785567E+01  0.11173904806E+02 -0.86492682832E+01  0.16377900600E+02  0.51100000000E-03 0.  1.
         12    1    3    3    0    0  0.47972421923E+01  0.92167192135E+01 -0.11081934890E+02  0.15191139741E+02  0.00000000000E+00 0. -1.
</event>
<event>
 7    1  0.2312612E-008  0.4614231E+02  0.7816164E-02  0.1320468E+00
        -11   -1    0    0    0    0  0.00000000000E+00  0.00000000000E+00  0.45593999997E+02  0.45594000000E+02  0.51100000000E-03 0.  1.
         11   -1    0    0    0    0 -0.00000000000E+00 -0.00000000000E+00 -0.45593999997E+02  0.45594000000E+02  0.51100000000E-03 0. -1.
    9900012    2    1    2    0    0  0.12437706025E+01  0.28741986582E+02  0.34662157757E+02  0.46142312766E+02  0.99999544515E+01 0.  0.
         12    1    1    2    0    0 -0.12437706025E+01 -0.28741986582E+02 -0.34662157757E+02  0.45045687234E+02  0.00000000000E+00 0. -1.
         11    1    3    3    0    0 -0.24300459609E+01  0.50114788433E+01  0.42174920885E+01  0.69862209631E+01  0.51100000000E-03 0. -1.
        -11    1    3    3    0    0  0.10954298535E+01  0.20113619840E+02  0.25755163241E+02  0.32696882167E+02  0.51100000000E-03 0.  1.
        -12    1    3    3    0    0  0.25783867099E+01  0.36168878981E+01  0.46895024282E+01  0.64592096356E+01  0.00000000000E+00 0.  1.
</event>
<event>
 7    1  0.2312612E-008  0.4614232E+02  0.7816164E-02  0.1320468E+00
        -11   -1    0    0    0    0  0.00000000000E+00  0.00000000000E+00  0.45593999997E+02  0.45594000000E+02  0.51100000000E-03 0.  1.
         11   -1    0    0    0    0 -0.00000000000E+00 -0.00000000000E+00 -0.45593999997E+02  0.45594000000E+02  0.51100000000E-03 0. -1.
    9900012    2    1    2    0    0 -0.39729941863E+02 -0.21006877939E+02 -0.30588151928E+01  0.46142317060E+02  0.99999936032E+01 0.  0.
         12    1    1    2    0    0  0.39729941863E+02  0.21006877939E+02  0.30588151928E+01  0.45045682940E+02  0.00000000000E+00 0. -1.
         11    1    3    3    0    0 -0.84063693496E+01 -0.79995401800E+01 -0.52930486559E+00  0.11616361420E+02  0.51100000000E-03 0. -1.
        -11    1    3    3    0    0 -0.50216863921E+01 -0.37361684716E+01  0.12507884626E+01  0.63828489806E+01  0.51100000000E-03 0.  1.
         12    1    3    3    0    0 -0.26301886121E+02 -0.92711692871E+01 -0.37802987898E+01  0.28143106659E+02  0.00000000000E+00 0. -1.
</event>
<event>
 7    1  0.2312612E-008  0.4614232E+02  0.7816164E-02  0.1320468E+00
        -11   -1    0    0    0    0  0.00000000000E+00  0.00000000000E+00  0.45593999997E+02  0.45594000000E+02  0.51100000000E-03 0.  1.
         11   -1    0    0    0    0 -0.00000000000E+00 -0.00000000000E+00 -0.45593999997E+02  0.45594000000E+02  0.51100000000E-03 0. -1.
    9900012    2    1    2    0    0  0.44966973835E+02  0.22351527342E+01  0.14453325370E+01  0.46142316192E+02  0.99999856878E+01 0.  0.
         12    1    1    2    0    0 -0.44966973835E+02 -0.22351527342E+01 -0.14453325370E+01  0.45045683808E+02  0.00000000000E+00 0. -1.
         11    1    3    3    0    0  0.60479380644E+01  0.32540400637E+00 -0.22047636009E+01  0.64454965205E+01  0.51100000000E-03 0. -1.
        -11    1    3    3    0    0  0.40770689572E+01 -0.80080843436E+00  0.22418970486E+01  0.47212167996E+01  0.51100000000E-03 0.  1.
        -12    1    3    3    0    0  0.34841966813E+02  0.27105571622E+01  0.14081990892E+01  0.34975602872E+02  0.00000000000E+00 0.  1.
</event>
<event>
 7    1  0.2312612E-008  0.4614232E+02  0.7816164E-02  0.1320468E+00
        -11   -1    0    0    0    0  0.00000000000E+00  0.00000000000E+00  0.45593999997E+02  0.45594000000E+02  0.51100000000E-03 0.  1.
         11   -1    0    0    0    0 -0.00000000000E+00 -0.00000000000E+00 -0.45593999997E+02  0.45594000000E+02  0.51100000000E-03 0. -1.
    9900012    2    1    2    0    0  0.15347455959E+02 -0.53337342606E+01  0.42013336404E+02  0.46142316950E+02  0.99999926076E+01 0.  0.
         12    1    1    2    0    0 -0.15347455959E+02  0.53337342606E+01 -0.42013336404E+02  0.45045683050E+02  0.00000000000E+00 0. -1.
         11    1    3    3    0    0  0.16633238764E+01  0.41084458589E+00  0.13260984193E+02  0.13371205690E+02  0.51100000000E-03 0. -1.
        -11    1    3    3    0    0  0.85550882153E+01 -0.19888577807E+01  0.12141525253E+02  0.14985383724E+02  0.51100000000E-03 0.  1.
         12    1    3    3    0    0  0.51290438671E+01 -0.37557210658E+01  0.16610826959E+02  0.17785727536E+02  0.00000000000E+00 0. -1.
</event>
<event>
 7    1  0.2312612E-008  0.4614232E+02  0.7816164E-02  0.1320468E+00
        -11   -1    0    0    0    0  0.00000000000E+00  0.00000000000E+00  0.45593999997E+02  0.45594000000E+02  0.51100000000E-03 0.  1.
         11   -1    0    0    0    0 -0.00000000000E+00 -0.00000000000E+00 -0.45593999997E+02  0.45594000000E+02  0.51100000000E-03 0. -1.
    9900012    2    1    2    0    0 -0.84128993655E+01 -0.31973641350E+02  0.30594490159E+02  0.46142318242E+02  0.10000004386E+02 0.  0.
         12    1    1    2    0    0  0.84128993655E+01  0.31973641350E+02 -0.30594490159E+02  0.45045681758E+02  0.00000000000E+00 0. -1.
         11    1    3    3    0    0 -0.48006943682E+00  0.12627860870E+00  0.19337899729E+01  0.19964861310E+01  0.51100000000E-03 0. -1.
        -11    1    3    3    0    0 -0.65538718732E+01 -0.14569840468E+02  0.14341613471E+02  0.21468939541E+02  0.51100000000E-03 0.  1.
         12    1    3    3    0    0 -0.13789580555E+01 -0.17530079491E+02  0.14319086716E+02  0.22676892570E+02  0.00000000000E+00 0. -1.
</event>
<event>
 7    1  0.2312612E-008  0.4614232E+02  0.7816164E-02  0.1320468E+00
        -11   -1    0    0    0    0  0.00000000000E+00  0.00000000000E+00  0.45593999997E+02  0.45594000000E+02  0.51100000000E-03 0.  1.
         11   -1    0    0    0    0 -0.00000000000E+00 -0.00000000000E+00 -0.45593999997E+02  0.45594000000E+02  0.51100000000E-03 0. -1.
    9900012    2    1    2    0    0 -0.27501918618E+02  0.16552412416E+02  0.31603411807E+02  0.46142317384E+02  0.99999965634E+01 0.  0.
         12    1    1    2    0    0  0.27501918618E+02 -0.16552412416E+02 -0.31603411807E+02  0.45045682616E+02  0.00000000000E+00 0. -1.
         11    1    3    3    0    0 -0.81429601429E+01  0.17355586187E+01  0.62500290542E+01  0.10410707327E+02  0.51100000000E-03 0. -1.
        -11    1    3    3    0    0 -0.14726026915E+02  0.79141733406E+01  0.15065195656E+02  0.22504446866E+02  0.51100000000E-03 0.  1.
        -12    1    3    3    0    0 -0.46329315609E+01  0.69026804572E+01  0.10288187097E+02  0.13227163191E+02  0.00000000000E+00 0.  1.
</event>
<event>
 7    1  0.2312612E-008  0.4614232E+02  0.7816164E-02  0.1320468E+00
        -11   -1    0    0    0    0  0.00000000000E+00  0.00000000000E+00  0.45593999997E+02  0.45594000000E+02  0.51100000000E-03 0. -1.
         11   -1    0    0    0    0 -0.00000000000E+00 -0.00000000000E+00 -0.45593999997E+02  0.45594000000E+02  0.51100000000E-03 0.  1.
    9900012    2    1    2    0    0 -0.22904439214E+02 -0.38784908495E+02  0.48070767764E+00  0.46142317160E+02  0.99999945169E+01 0.  0.
         12    1    1    2    0    0  0.22904439214E+02  0.38784908495E+02 -0.48070767764E+00  0.45045682840E+02  0.00000000000E+00 0. -1.
         11    1    3    3    0    0 -0.45845118570E+01 -0.29884508160E+01  0.11241752396E+01  0.55868020796E+01  0.51100000000E-03 0. -1.
        -11    1    3    3    0    0 -0.74627214605E+01 -0.12615586944E+02 -0.25877931310E+01  0.14884284299E+02  0.51100000000E-03 0.  1.
        -12    1    3    3    0    0 -0.10857205896E+02 -0.23180870735E+02  0.19443255690E+01  0.25671230782E+02  0.00000000000E+00 0.  1.
</event>
<event>
 7    1  0.2312612E-008  0.4614232E+02  0.7816164E-02  0.1320468E+00
        -11   -1    0    0    0    0  0.00000000000E+00  0.00000000000E+00  0.45593999997E+02  0.45594000000E+02  0.51100000000E-03 0. -1.
         11   -1    0    0    0    0 -0.00000000000E+00 -0.00000000000E+00 -0.45593999997E+02  0.45594000000E+02  0.51100000000E-03 0.  1.
    9900012    2    1    2    0    0  0.16032544633E+02 -0.22011296340E+02 -0.35882778653E+02  0.46142318100E+02  0.10000003088E+02 0.  0.
         12    1    1    2    0    0 -0.16032544633E+02  0.22011296340E+02  0.35882778653E+02  0.45045681900E+02  0.00000000000E+00 0. -1.
         11    1    3    3    0    0  0.18454641752E+01 -0.77426271949E+00 -0.14466877131E+01  0.24694384749E+01  0.51100000000E-03 0.  1.
        -11    1    3    3    0    0  0.95380034990E+01 -0.17908463067E+02 -0.21678129961E+02  0.29692219167E+02  0.51100000000E-03 0. -1.
        -12    1    3    3    0    0  0.46490769585E+01 -0.33285705529E+01 -0.12757960979E+02  0.13980660458E+02  0.00000000000E+00 0.  1.
</event>
<event>
 7    1  0.2312612E-008  0.4614232E+02  0.7816164E-02  0.1320468E+00
        -11   -1    0    0    0    0  0.00000000000E+00  0.00000000000E+00  0.45593999997E+02  0.45594000000E+02  0.51100000000E-03 0.  1.
         11   -1    0    0    0    0 -0.00000000000E+00 -0.00000000000E+00 -0.45593999997E+02  0.45594000000E+02  0.51100000000E-03 0. -1.
    9900012    2    1    2    0    0 -0.31174536536E+02  0.11116743225E+02  0.30556173957E+02  0.46142317909E+02  0.10000001348E+02 0.  0.
         12    1    1    2    0    0  0.31174536536E+02 -0.11116743225E+02 -0.30556173957E+02  0.45045682091E+02  0.00000000000E+00 0. -1.
         11    1    3    3    0    0  0.22594326286E+00 -0.13122960829E+00  0.19086785638E+01  0.19264801294E+01  0.51100000000E-03 0. -1.
        -11    1    3    3    0    0 -0.24704506591E+02  0.67683748553E+01  0.22228699985E+02  0.33915168397E+02  0.51100000000E-03 0.  1.
         12    1    3    3    0    0 -0.66959732079E+01  0.44795979784E+01  0.64187954077E+01  0.10300669383E+02  0.00000000000E+00 0. -1.
</event>
<event>
 7    1  0.2312612E-008  0.4614231E+02  0.7816164E-02  0.1320468E+00
        -11   -1    0    0    0    0  0.00000000000E+00  0.00000000000E+00  0.45593999997E+02  0.45594000000E+02  0.51100000000E-03 0.  1.
         11   -1    0    0    0    0 -0.00000000000E+00 -0.00000000000E+00 -0.45593999997E+02  0.45594000000E+02  0.51100000000E-03 0. -1.
    9900012    2    1    2    0    0  0.29137118315E+02 -0.18884582587E+02  0.28696945548E+02  0.46142314225E+02  0.99999677546E+01 0.  0.
         12    1    1    2    0    0 -0.29137118315E+02  0.18884582587E+02 -0.28696945548E+02  0.45045685775E+02  0.00000000000E+00 0. -1.
         11    1    3    3    0    0  0.15321435864E+01 -0.42027957830E+01  0.17876245911E+01  0.48173185802E+01  0.51100000000E-03 0. -1.
        -11    1    3    3    0    0  0.16668687520E+02 -0.10206581062E+02  0.16589960942E+02  0.25636814251E+02  0.51100000000E-03 0.  1.
         12    1    3    3    0    0  0.10936287209E+02 -0.44752057420E+01  0.10319360014E+02  0.15688181394E+02  0.00000000000E+00 0. -1.
</event>
<event>
 7    1  0.2312612E-008  0.4614232E+02  0.7816164E-02  0.1320468E+00
        -11   -1    0    0    0    0  0.00000000000E+00  0.00000000000E+00  0.45593999997E+02  0.45594000000E+02  0.51100000000E-03 0. -1.
         11   -1    0    0    0    0 -0.00000000000E+00 -0.00000000000E+00 -0.45593999997E+02  0.45594000000E+02  0.51100000000E-03 0.  1.
    9900012    2    1    2    0    0 -0.30248290258E+02  0.21034743588E+02 -0.25917062818E+02  0.46142316007E+02  0.99999840014E+01 0.  0.
         12    1    1    2    0    0  0.30248290258E+02 -0.21034743588E+02  0.25917062818E+02  0.45045683993E+02  0.00000000000E+00 0. -1.
         11    1    3    3    0    0 -0.16399267291E+02  0.12733108718E+02 -0.19784861112E+02  0.28679413432E+02  0.51100000000E-03 0. -1.
        -11    1    3    3    0    0 -0.31500514000E+01  0.30699894445E+01 -0.22210263669E+01  0.49275366458E+01  0.51100000000E-03 0.  1.
         12    1    3    3    0    0 -0.10698971567E+02  0.52316454250E+01 -0.39111753389E+01  0.12535365929E+02  0.00000000000E+00 0. -1.
</event>
<event>
 7    1  0.2312612E-008  0.4614232E+02  0.7816164E-02  0.1320468E+00
        -11   -1    0    0    0    0  0.00000000000E+00  0.00000000000E+00  0.45593999997E+02  0.45594000000E+02  0.51100000000E-03 0.  1.
         11   -1    0    0    0    0 -0.00000000000E+00 -0.00000000000E+00 -0.45593999997E+02  0.45594000000E+02  0.51100000000E-03 0. -1.
    9900012    2    1    2    0    0 -0.22817750273E+02  0.21813080711E+02  0.32134924740E+02  0.46142316459E+02  0.99999881268E+01 0.  0.
         12    1    1    2    0    0  0.22817750273E+02 -0.21813080711E+02 -0.32134924740E+02  0.45045683541E+02  0.00000000000E+00 0. -1.
         11    1    3    3    0    0 -0.44721202222E+01  0.27300141526E+01  0.92982868809E+01  0.10672908495E+02  0.51100000000E-03 0. -1.
        -11    1    3    3    0    0 -0.64300190339E+01  0.69231459875E+01  0.12059590076E+02  0.15320209144E+02  0.51100000000E-03 0.  1.
        -12    1    3    3    0    0 -0.11915611017E+02  0.12159920571E+02  0.10777047783E+02  0.20149198821E+02  0.00000000000E+00 0.  1.
</event>
<event>
 7    1  0.2312612E-008  0.4614232E+02  0.7816164E-02  0.1320468E+00
        -11   -1    0    0    0    0  0.00000000000E+00  0.00000000000E+00  0.45593999997E+02  0.45594000000E+02  0.51100000000E-03 0. -1.
         11   -1    0    0    0    0 -0.00000000000E+00 -0.00000000000E+00 -0.45593999997E+02  0.45594000000E+02  0.51100000000E-03 0.  1.
    9900012    2    1    2    0    0 -0.50754167240E+01 -0.11013845329E+02 -0.43382586981E+02  0.46142317666E+02  0.99999991283E+01 0.  0.
         12    1    1    2    0    0  0.50754167240E+01  0.11013845329E+02  0.43382586981E+02  0.45045682334E+02  0.00000000000E+00 0. -1.
         11    1    3    3    0    0  0.99319822983E+00  0.59310418355E+00 -0.50582535120E+01  0.51888480561E+01  0.51100000000E-03 0. -1.
        -11    1    3    3    0    0 -0.77736733369E+00  0.35550343997E+00 -0.63464481160E+01  0.64037556651E+01  0.51100000000E-03 0.  1.
        -12    1    3    3    0    0 -0.52912476201E+01 -0.11962452952E+02 -0.31977885353E+02  0.34549713944E+02  0.00000000000E+00 0.  1.
</event>
<event>
 7    1  0.2312612E-008  0.4614232E+02  0.7816164E-02  0.1320468E+00
        -11   -1    0    0    0    0  0.00000000000E+00  0.00000000000E+00  0.45593999997E+02  0.45594000000E+02  0.51100000000E-03 0.  1.
         11   -1    0    0    0    0 -0.00000000000E+00 -0.00000000000E+00 -0.45593999997E+02  0.45594000000E+02  0.51100000000E-03 0. -1.
    9900012    2    1    2    0    0  0.39521953584E+02  0.18945366159E+02  0.10402001252E+02  0.46142319363E+02  0.10000014606E+02 0.  0.
         12    1    1    2    0    0 -0.39521953584E+02 -0.18945366159E+02 -0.10402001252E+02  0.45045680637E+02  0.00000000000E+00 0. -1.
         11    1    3    3    0    0  0.12004733766E+02  0.48626306437E+01 -0.65805084983E-01  0.12952341106E+02  0.51100000000E-03 0. -1.
        -11    1    3    3    0    0  0.81554579283E+01  0.73923243537E+01  0.39031769688E+01  0.11678730414E+02  0.51100000000E-03 0.  1.
        -12    1    3    3    0    0  0.19361761890E+02  0.66904111622E+01  0.65646293678E+01  0.21511247843E+02  0.00000000000E+00 0.  1.
</event>
<event>
 7    1  0.2312612E-008  0.4614232E+02  0.7816164E-02  0.1320468E+00
        -11   -1    0    0    0    0  0.00000000000E+00  0.00000000000E+00  0.45593999997E+02  0.45594000000E+02  0.51100000000E-03 0. -1.
         11   -1    0    0    0    0 -0.00000000000E+00 -0.00000000000E+00 -0.45593999997E+02  0.45594000000E+02  0.51100000000E-03 0.  1.
    9900012    2    1    2    0    0  0.15953224439E+01 -0.31743617183E+02 -0.31920391952E+02  0.46142315324E+02  0.99999777767E+01 0.  0.
         12    1    1    2    0    0 -0.15953224439E+01  0.31743617183E+02  0.31920391952E+02  0.45045684676E+02  0.00000000000E+00 0. -1.
         11    1    3    3    0    0 -0.49816508498E+00 -0.53391569687E+01 -0.54264392921E+01  0.76289585947E+01  0.51100000000E-03 0. -1.
        -11    1    3    3    0    0  0.43297825683E+01 -0.22130316299E+02 -0.24488091676E+02  0.33289105587E+02  0.51100000000E-03 0.  1.
         12    1    3    3    0    0 -0.22362950394E+01 -0.42741439154E+01 -0.20058609838E+01  0.52242511425E+01  0.00000000000E+00 0. -1.
</event>
<event>
 7    1  0.2312612E-008  0.4614232E+02  0.7816164E-02  0.1320468E+00
        -11   -1    0    0    0    0  0.00000000000E+00  0.00000000000E+00  0.45593999997E+02  0.45594000000E+02  0.51100000000E-03 0. -1.
         11   -1    0    0    0    0 -0.00000000000E+00 -0.00000000000E+00 -0.45593999997E+02  0.45594000000E+02  0.51100000000E-03 0.  1.
    9900012    2    1    2    0    0 -0.64835753062E+01 -0.42608185037E+02 -0.13100354928E+02  0.46142317852E+02  0.10000000830E+02 0.  0.
         12    1    1    2    0    0  0.64835753062E+01  0.42608185037E+02  0.13100354928E+02  0.45045682148E+02  0.00000000000E+00 0. -1.
         11    1    3    3    0    0 -0.39683058457E+01 -0.28840925474E+02 -0.40257593437E+01  0.29389677985E+02  0.51100000000E-03 0. -1.
        -11    1    3    3    0    0 -0.45455441122E+00 -0.54375959338E+01 -0.28839388026E+01  0.61718046413E+01  0.51100000000E-03 0.  1.
         12    1    3    3    0    0 -0.20607150493E+01 -0.83296636289E+01 -0.61906567819E+01  0.10580835226E+02  0.00000000000E+00 0. -1.
</event>
<event>
 7    1  0.2312612E-008  0.4614231E+02  0.7816164E-02  0.1320468E+00
        -11   -1    0    0    0    0  0.00000000000E+00  0.00000000000E+00  0.45593999997E+02  0.45594000000E+02  0.51100000000E-03 0.  1.
         11   -1    0    0    0    0 -0.00000000000E+00 -0.00000000000E+00 -0.45593999997E+02  0.45594000000E+02  0.51100000000E-03 0. -1.
    9900012    2    1    2    0    0  0.30556969137E+02 -0.14609951637E+02  0.29697389097E+02  0.46142312428E+02  0.99999513685E+01 0.  0.
         12    1    1    2    0    0 -0.30556969137E+02  0.14609951637E+02 -0.29697389097E+02  0.45045687572E+02  0.00000000000E+00 0. -1.
         11    1    3    3    0    0  0.10055409425E+02 -0.20602690935E+01  0.88337008319E+01  0.13542165192E+02  0.51100000000E-03 0. -1.
        -11    1    3    3    0    0  0.57765188920E+01 -0.30735286285E+01  0.10136256332E+02  0.12064760314E+02  0.51100000000E-03 0.  1.
        -12    1    3    3    0    0  0.14725040820E+02 -0.94761539150E+01  0.10727431933E+02  0.20535386922E+02  0.00000000000E+00 0.  1.
</event>
<event>
 7    1  0.2312612E-008  0.4614232E+02  0.7816164E-02  0.1320468E+00
        -11   -1    0    0    0    0  0.00000000000E+00  0.00000000000E+00  0.45593999997E+02  0.45594000000E+02  0.51100000000E-03 0. -1.
         11   -1    0    0    0    0 -0.00000000000E+00 -0.00000000000E+00 -0.45593999997E+02  0.45594000000E+02  0.51100000000E-03 0.  1.
    9900012    2    1    2    0    0  0.39747797448E+02  0.12510189812E+00  0.21194583796E+02  0.46142318357E+02  0.10000005430E+02 0.  0.
         12    1    1    2    0    0 -0.39747797448E+02 -0.12510189812E+00 -0.21194583796E+02  0.45045681643E+02  0.00000000000E+00 0. -1.
         11    1    3    3    0    0  0.14300538006E+02 -0.23805483124E+01  0.94257355255E+01  0.17292104787E+02  0.51100000000E-03 0. -1.
        -11    1    3    3    0    0  0.16967318911E+02  0.10088708463E+01  0.10907830619E+02  0.20196249664E+02  0.51100000000E-03 0.  1.
        -12    1    3    3    0    0  0.84799405316E+01  0.14967793642E+01  0.86101765132E+00  0.86539639056E+01  0.00000000000E+00 0.  1.
</event>
<event>
 7    1  0.2312612E-008  0.4614231E+02  0.7816164E-02  0.1320468E+00
        -11   -1    0    0    0    0  0.00000000000E+00  0.00000000000E+00  0.45593999997E+02  0.45594000000E+02  0.51100000000E-03 0.  1.
         11   -1    0    0    0    0 -0.00000000000E+00 -0.00000000000E+00 -0.45593999997E+02  0.45594000000E+02  0.51100000000E-03 0. -1.
    9900012    2    1    2    0    0 -0.25129880277E+02 -0.34736964127E+02  0.13818347351E+02  0.46142308941E+02  0.99999195668E+01 0.  0.
         12    1    1    2    0    0  0.25129880277E+02  0.34736964127E+02 -0.13818347351E+02  0.45045691059E+02  0.00000000000E+00 0. -1.
         11    1    3    3    0    0 -0.75378028768E+01 -0.16562802538E+02  0.36715608815E+01  0.18564085210E+02  0.51100000000E-03 0. -1.
        -11    1    3    3    0    0  0.12228654297E+00  0.12429498661E+00  0.48306914239E-01  0.18093385911E+00  0.51100000000E-03 0.  1.
        -12    1    3    3    0    0 -0.17714363943E+02 -0.18298456576E+02  0.10098479556E+02  0.27397289871E+02  0.00000000000E+00 0.  1.
</event>
<event>
 7    1  0.2312612E-008  0.4614232E+02  0.7816164E-02  0.1320468E+00
        -11   -1    0    0    0    0  0.00000000000E+00  0.00000000000E+00  0.45593999997E+02  0.45594000000E+02  0.51100000000E-03 0.  1.
         11   -1    0    0    0    0 -0.00000000000E+00 -0.00000000000E+00 -0.45593999997E+02  0.45594000000E+02  0.51100000000E-03 0. -1.
    9900012    2    1    2    0    0  0.18776164056E+01 -0.10229200358E+02  0.43828659293E+02  0.46142319200E+02  0.10000013118E+02 0.  0.
         12    1    1    2    0    0 -0.18776164056E+01  0.10229200358E+02 -0.43828659293E+02  0.45045680800E+02  0.00000000000E+00 0. -1.
         11    1    3    3    0    0  0.19057959599E+01 -0.16923627370E+01  0.26121649997E+01  0.36495967066E+01  0.51100000000E-03 0. -1.
        -11    1    3    3    0    0  0.22794831033E+01 -0.50858965844E+01  0.16146532909E+02  0.17081361554E+02  0.51100000000E-03 0.  1.
        -12    1    3    3    0    0 -0.23076626576E+01 -0.34509410370E+01  0.25069961384E+02  0.25411360939E+02  0.00000000000E+00 0.  1.
</event>
<event>
 7    1  0.2312612E-008  0.4614232E+02  0.7816164E-02  0.1320468E+00
        -11   -1    0    0    0    0  0.00000000000E+00  0.00000000000E+00  0.45593999997E+02  0.45594000000E+02  0.51100000000E-03 0.  1.
         11   -1    0    0    0    0 -0.00000000000E+00 -0.00000000000E+00 -0.45593999997E+02  0.45594000000E+02  0.51100000000E-03 0. -1.
    9900012    2    1    2    0    0 -0.14441789885E+02 -0.22002955672E+02  0.36557056009E+02  0.46142315441E+02  0.99999788404E+01 0.  0.
         12    1    1    2    0    0  0.14441789885E+02  0.22002955672E+02 -0.36557056009E+02  0.45045684559E+02  0.00000000000E+00 0. -1.
         11    1    3    3    0    0 -0.68803924817E+00  0.33378769060E+00  0.88016581559E+00  0.11659778529E+01  0.51100000000E-03 0. -1.
        -11    1    3    3    0    0 -0.36032894945E+01 -0.98463269627E+00  0.52785760087E+01  0.64665726369E+01  0.51100000000E-03 0.  1.
        -12    1    3    3    0    0 -0.10150461143E+02 -0.21352110667E+02  0.30398314184E+02  0.38509764951E+02  0.00000000000E+00 0.  1.
</event>
<event>
 7    1  0.2312612E-008  0.4614232E+02  0.7816164E-02  0.1320468E+00
        -11   -1    0    0    0    0  0.00000000000E+00  0.00000000000E+00  0.45593999997E+02  0.45594000000E+02  0.51100000000E-03 0.  1.
         11   -1    0    0    0    0 -0.00000000000E+00 -0.00000000000E+00 -0.45593999997E+02  0.45594000000E+02  0.51100000000E-03 0. -1.
    9900012    2    1    2    0    0  0.21692999366E+02  0.35589808990E+02 -0.17084869224E+02  0.46142317834E+02  0.10000000666E+02 0.  0.
         12    1    1    2    0    0 -0.21692999366E+02 -0.35589808990E+02  0.17084869224E+02  0.45045682166E+02  0.00000000000E+00 0. -1.
         11    1    3    3    0    0  0.87123394282E+01  0.89203601292E+01 -0.42969094322E+01  0.13188673704E+02  0.51100000000E-03 0. -1.
        -11    1    3    3    0    0  0.60352231299E+01  0.13632359126E+02 -0.29276945724E+01  0.15193305412E+02  0.51100000000E-03 0.  1.
        -12    1    3    3    0    0  0.69454368076E+01  0.13037089734E+02 -0.98602652192E+01  0.17760338718E+02  0.00000000000E+00 0.  1.
</event>
<event>
 7    1  0.2312612E-008  0.4614232E+02  0.7816164E-02  0.1320468E+00
        -11   -1    0    0    0    0  0.00000000000E+00  0.00000000000E+00  0.45593999997E+02  0.45594000000E+02  0.51100000000E-03 0.  1.
         11   -1    0    0    0    0 -0.00000000000E+00 -0.00000000000E+00 -0.45593999997E+02  0.45594000000E+02  0.51100000000E-03 0. -1.
    9900012    2    1    2    0    0  0.32948679158E+02  0.28169614395E+02  0.12246258127E+02  0.46142317948E+02  0.10000001702E+02 0.  0.
         12    1    1    2    0    0 -0.32948679158E+02 -0.28169614395E+02 -0.12246258127E+02  0.45045682052E+02  0.00000000000E+00 0. -1.
         11    1    3    3    0    0  0.99324844368E+00  0.18448132070E+01  0.35222203246E+00  0.21246032243E+01  0.51100000000E-03 0. -1.
        -11    1    3    3    0    0  0.25602598397E+02  0.25085376395E+02  0.91904450438E+01  0.37003154378E+02  0.51100000000E-03 0.  1.
         12    1    3    3    0    0  0.63528323173E+01  0.12394247934E+01  0.27035910511E+01  0.70145603455E+01  0.00000000000E+00 0. -1.
</event>
<event>
 7    1  0.2312612E-008  0.4614232E+02  0.7816164E-02  0.1320468E+00
        -11   -1    0    0    0    0  0.00000000000E+00  0.00000000000E+00  0.45593999997E+02  0.45594000000E+02  0.51100000000E-03 0.  1.
         11   -1    0    0    0    0 -0.00000000000E+00 -0.00000000000E+00 -0.45593999997E+02  0.45594000000E+02  0.51100000000E-03 0. -1.
    9900012    2    1    2    0    0  0.23275035886E+02  0.81178031119E+00  0.38558102224E+02  0.46142317300E+02  0.99999957971E+01 0.  0.
         12    1    1    2    0    0 -0.23275035886E+02 -0.81178031119E+00 -0.38558102224E+02  0.45045682700E+02  0.00000000000E+00 0. -1.
         11    1    3    3    0    0  0.21596717506E+02 -0.20627050884E+01  0.31365805204E+02  0.38137733227E+02  0.51100000000E-03 0. -1.
        -11    1    3    3    0    0  0.13348151806E+00  0.44977498049E-01  0.21534225973E-01  0.14249307002E+00  0.51100000000E-03 0.  1.
        -12    1    3    3    0    0  0.15448368616E+01  0.28295079015E+01  0.71707627946E+01  0.78620910037E+01  0.00000000000E+00 0.  1.
</event>
<event>
 7    1  0.2312612E-008  0.4614232E+02  0.7816164E-02  0.1320468E+00
        -11   -1    0    0    0    0  0.00000000000E+00  0.00000000000E+00  0.45593999997E+02  0.45594000000E+02  0.51100000000E-03 0.  1.
         11   -1    0    0    0    0 -0.00000000000E+00 -0.00000000000E+00 -0.45593999997E+02  0.45594000000E+02  0.51100000000E-03 0. -1.
    9900012    2    1    2    0    0 -0.42826914686E+02 -0.99536418736E+01 -0.97925374093E+01  0.46142318776E+02  0.10000009252E+02 0.  0.
         12    1    1    2    0    0  0.42826914686E+02  0.99536418736E+01  0.97925374093E+01  0.45045681224E+02  0.00000000000E+00 0. -1.
         11    1    3    3    0    0 -0.66471051964E+01  0.13672506585E+01 -0.21494083642E+01  0.71185208037E+01  0.51100000000E-03 0. -1.
        -11    1    3    3    0    0 -0.95540895309E+01 -0.47881537812E+01 -0.52643748669E+00  0.10699728038E+02  0.51100000000E-03 0.  1.
        -12    1    3    3    0    0 -0.26625719958E+02 -0.65327387509E+01 -0.71166915584E+01  0.28324069934E+02  0.00000000000E+00 0.  1.
</event>
<event>
 7    1  0.2312612E-008  0.4614232E+02  0.7816164E-02  0.1320468E+00
        -11   -1    0    0    0    0  0.00000000000E+00  0.00000000000E+00  0.45593999997E+02  0.45594000000E+02  0.51100000000E-03 0. -1.
         11   -1    0    0    0    0 -0.00000000000E+00 -0.00000000000E+00 -0.45593999997E+02  0.45594000000E+02  0.51100000000E-03 0.  1.
    9900012    2    1    2    0    0  0.36407257475E+02 -0.87821316865E+01 -0.25029960616E+02  0.46142321381E+02  0.10000033013E+02 0.  0.
         12    1    1    2    0    0 -0.36407257475E+02  0.87821316865E+01  0.25029960616E+02  0.45045678619E+02  0.00000000000E+00 0. -1.
         11    1    3    3    0    0  0.20727659931E+01  0.17809115385E+01 -0.22681250567E+01  0.35513935722E+01  0.51100000000E-03 0. -1.
        -11    1    3    3    0    0  0.18794739138E+02 -0.65706206257E+01 -0.13645922091E+02  0.24137656569E+02  0.51100000000E-03 0.  1.
         12    1    3    3    0    0  0.15539752344E+02 -0.39924225994E+01 -0.91159134675E+01  0.18453271240E+02  0.00000000000E+00 0. -1.
</event>
<event>
 7    1  0.2312612E-008  0.4614232E+02  0.7816164E-02  0.1320468E+00
        -11   -1    0    0    0    0  0.00000000000E+00  0.00000000000E+00  0.45593999997E+02  0.45594000000E+02  0.51100000000E-03 0. -1.
         11   -1    0    0    0    0 -0.00000000000E+00 -0.00000000000E+00 -0.45593999997E+02  0.45594000000E+02  0.51100000000E-03 0.  1.
    9900012    2    1    2    0    0  0.22877867207E+02  0.37411057781E+02 -0.10301914703E+02  0.46142317645E+02  0.99999989454E+01 0.  0.
         12    1    1    2    0    0 -0.22877867207E+02 -0.37411057781E+02  0.10301914703E+02  0.45045682355E+02  0.00000000000E+00 0. -1.
         11    1    3    3    0    0  0.13937413288E+02  0.22548466064E+02 -0.35974861239E+01  0.26751200304E+02  0.51100000000E-03 0. -1.
        -11    1    3    3    0    0  0.60389719864E+01  0.13185394289E+02 -0.38911456062E+01  0.15015485993E+02  0.51100000000E-03 0.  1.
         12    1    3    3    0    0  0.29014819326E+01  0.16771974274E+01 -0.28132829726E+01  0.43756313487E+01  0.00000000000E+00 0. -1.
</event>
<event>
 7    1  0.2312612E-008  0.4614232E+02  0.7816164E-02  0.1320468E+00
        -11   -1    0    0    0    0  0.00000000000E+00  0.00000000000E+00  0.45593999997E+02  0.45594000000E+02  0.51100000000E-03 0.  1.
         11   -1    0    0    0    0 -0.00000000000E+00 -0.00000000000E+00 -0.45593999997E+02  0.45594000000E+02  0.51100000000E-03 0. -1.
    9900012    2    1    2    0    0  0.40016579807E+02  0.17860619886E+02 -0.10430006971E+02  0.46142318214E+02  0.10000004126E+02 0.  0.
         12    1    1    2    0    0 -0.40016579807E+02 -0.17860619886E+02  0.10430006971E+02  0.45045681786E+02  0.00000000000E+00 0. -1.
         11    1    3    3    0    0  0.46275988730E+01 -0.17025172375E+00 -0.14574123560E+00  0.46330225283E+01  0.51100000000E-03 0. -1.
        -11    1    3    3    0    0  0.29593321333E+02  0.12426762820E+02 -0.73287406765E+01  0.32922629632E+02  0.51100000000E-03 0.  1.
        -12    1    3    3    0    0  0.57956596012E+01  0.56041087896E+01 -0.29555250592E+01  0.85866660535E+01  0.00000000000E+00 0.  1.
</event>
<event>
 7    1  0.2312612E-008  0.4614232E+02  0.7816164E-02  0.1320468E+00
        -11   -1    0    0    0    0  0.00000000000E+00  0.00000000000E+00  0.45593999997E+02  0.45594000000E+02  0.51100000000E-03 0. -1.
         11   -1    0    0    0    0 -0.00000000000E+00 -0.00000000000E+00 -0.45593999997E+02  0.45594000000E+02  0.51100000000E-03 0.  1.
    9900012    2    1    2    0    0  0.89588410150E+00  0.19507200363E+02 -0.40592856857E+02  0.46142317608E+02  0.99999986020E+01 0.  0.
         12    1    1    2    0    0 -0.89588410150E+00 -0.19507200363E+02  0.40592856857E+02  0.45045682392E+02  0.00000000000E+00 0. -1.
         11    1    3    3    0    0 -0.17795649111E+01  0.28975554312E+01 -0.10473469999E+02  0.11011641696E+02  0.51100000000E-03 0. -1.
        -11    1    3    3    0    0  0.91718635775E+00  0.65168603947E+00 -0.63401679486E+01  0.64392278564E+01  0.51100000000E-03 0.  1.
        -12    1    3    3    0    0  0.17582626549E+01  0.15957958893E+02 -0.23779218910E+02  0.28691448056E+02  0.00000000000E+00 0.  1.
</event>
<event>
 7    1  0.2312612E-008  0.4614232E+02  0.7816164E-02  0.1320468E+00
        -11   -1    0    0    0    0  0.00000000000E+00  0.00000000000E+00  0.45593999997E+02  0.45594000000E+02  0.51100000000E-03 0.  1.
         11   -1    0    0    0    0 -0.00000000000E+00 -0.00000000000E+00 -0.45593999997E+02  0.45594000000E+02  0.51100000000E-03 0. -1.
    9900012    2    1    2    0    0 -0.16754165153E+02  0.39570120524E+02  0.13513584135E+02  0.46142318249E+02  0.10000004447E+02 0.  0.
         12    1    1    2    0    0  0.16754165153E+02 -0.39570120524E+02 -0.13513584135E+02  0.45045681751E+02  0.00000000000E+00 0. -1.
         11    1    3    3    0    0 -0.19030357077E+01  0.29518137646E+01  0.34545410269E+01  0.49263174252E+01  0.51100000000E-03 0. -1.
        -11    1    3    3    0    0 -0.12281854806E+02  0.27370516615E+02  0.99843136980E+01  0.31617647881E+02  0.51100000000E-03 0.  1.
         12    1    3    3    0    0 -0.25692746394E+01  0.92477901441E+01  0.74729410374E-01  0.95983529424E+01  0.00000000000E+00 0. -1.
</event>
<event>
 7    1  0.2312612E-008  0.4614232E+02  0.7816164E-02  0.1320468E+00
        -11   -1    0    0    0    0  0.00000000000E+00  0.00000000000E+00  0.45593999997E+02  0.45594000000E+02  0.51100000000E-03 0.  1.
         11   -1    0    0    0    0 -0.00000000000E+00 -0.00000000000E+00 -0.45593999997E+02  0.45594000000E+02  0.51100000000E-03 0. -1.
    9900012    2    1    2    0    0 -0.38590856834E+02 -0.11237723992E+02  0.20336491428E+02  0.46142317018E+02  0.99999932237E+01 0.  0.
         12    1    1    2    0    0  0.38590856834E+02  0.11237723992E+02 -0.20336491428E+02  0.45045682982E+02  0.00000000000E+00 0. -1.
         11    1    3    3    0    0  0.93339284505E-01  0.63954647153E+00 -0.97226408571E-01  0.65359402302E+00  0.51100000000E-03 0. -1.
        -11    1    3    3    0    0 -0.35058900650E+01  0.68665781778E-02  0.15946170336E+01  0.38515082816E+01  0.51100000000E-03 0.  1.
        -12    1    3    3    0    0 -0.35178306054E+02 -0.11884137041E+02  0.18839100803E+02  0.41637214713E+02  0.00000000000E+00 0.  1.
</event>
<event>
 7    1  0.2312612E-008  0.4614232E+02  0.7816164E-02  0.1320468E+00
        -11   -1    0    0    0    0  0.00000000000E+00  0.00000000000E+00  0.45593999997E+02  0.45594000000E+02  0.51100000000E-03 0. -1.
         11   -1    0    0    0    0 -0.00000000000E+00 -0.00000000000E+00 -0.45593999997E+02  0.45594000000E+02  0.51100000000E-03 0.  1.
    9900012    2    1    2    0    0 -0.27884539011E+02  0.25818834063E+01 -0.35283138245E+02  0.46142317830E+02  0.10000000626E+02 0.  0.
         12    1    1    2    0    0  0.27884539011E+02 -0.25818834063E+01  0.35283138245E+02  0.45045682170E+02  0.00000000000E+00 0. -1.
         11    1    3    3    0    0 -0.28436621876E+01  0.30002493034E+01 -0.47819009152E+01  0.63209561890E+01  0.51100000000E-03 0. -1.
        -11    1    3    3    0    0 -0.17301722236E+02  0.10239695909E+01 -0.24042722681E+02  0.29638667652E+02  0.51100000000E-03 0.  1.
         12    1    3    3    0    0 -0.77391545872E+01 -0.14423354880E+01 -0.64585146492E+01  0.10182693988E+02  0.00000000000E+00 0. -1.
</event>
<event>
 7    1  0.2312612E-008  0.4614232E+02  0.7816164E-02  0.1320468E+00
        -11   -1    0    0    0    0  0.00000000000E+00  0.00000000000E+00  0.45593999997E+02  0.45594000000E+02  0.51100000000E-03 0.  1.
         11   -1    0    0    0    0 -0.00000000000E+00 -0.00000000000E+00 -0.45593999997E+02  0.45594000000E+02  0.51100000000E-03 0. -1.
    9900012    2    1    2    0    0 -0.62485799627E+01 -0.38748880981E+02  0.22104139448E+02  0.46142317526E+02  0.99999978539E+01 0.  0.
         12    1    1    2    0    0  0.62485799627E+01  0.38748880981E+02 -0.22104139448E+02  0.45045682474E+02  0.00000000000E+00 0. -1.
         11    1    3    3    0    0 -0.46327899781E+01 -0.13177476983E+02  0.11271481131E+02  0.17948674875E+02  0.51100000000E-03 0. -1.
        -11    1    3    3    0    0 -0.93170541265E+00 -0.11425848071E+01  0.31264323909E-01  0.14746364760E+01  0.51100000000E-03 0.  1.
         12    1    3    3    0    0 -0.68408457189E+00 -0.24428819191E+02  0.10801393993E+02  0.26719006175E+02  0.00000000000E+00 0. -1.
</event>
<event>
 7    1  0.2312612E-008  0.4614232E+02  0.7816164E-02  0.1320468E+00
        -11   -1    0    0    0    0  0.00000000000E+00  0.00000000000E+00  0.45593999997E+02  0.45594000000E+02  0.51100000000E-03 0. -1.
         11   -1    0    0    0    0 -0.00000000000E+00 -0.00000000000E+00 -0.45593999997E+02  0.45594000000E+02  0.51100000000E-03 0.  1.
    9900012    2    1    2    0    0  0.27515268114E+02  0.21134170724E+02 -0.28729258088E+02  0.46142318499E+02  0.10000006728E+02 0.  0.
         12    1    1    2    0    0 -0.27515268114E+02 -0.21134170724E+02  0.28729258088E+02  0.45045681501E+02  0.00000000000E+00 0. -1.
         11    1    3    3    0    0  0.15294180512E+02  0.86878801160E+01 -0.14036639584E+02  0.22503743456E+02  0.51100000000E-03 0. -1.
        -11    1    3    3    0    0  0.35328896420E+01  0.25388926089E+01 -0.68007974018E+00  0.44033843366E+01  0.51100000000E-03 0.  1.
        -12    1    3    3    0    0  0.86881979602E+01  0.99073979996E+01 -0.14012538763E+02  0.19235190706E+02  0.00000000000E+00 0.  1.
</event>
<event>
 7    1  0.2312612E-008  0.4614232E+02  0.7816164E-02  0.1320468E+00
        -11   -1    0    0    0    0  0.00000000000E+00  0.00000000000E+00  0.45593999997E+02  0.45594000000E+02  0.51100000000E-03 0.  1.
         11   -1    0    0    0    0 -0.00000000000E+00 -0.00000000000E+00 -0.45593999997E+02  0.45594000000E+02  0.51100000000E-03 0. -1.
    9900012    2    1    2    0    0  0.25079516702E+02  0.77358541380E+01  0.36609942475E+02  0.46142317795E+02  0.10000000313E+02 0.  0.
         12    1    1    2    0    0 -0.25079516702E+02 -0.77358541380E+01 -0.36609942475E+02  0.45045682205E+02  0.00000000000E+00 0. -1.
         11    1    3    3    0    0  0.87805205848E+01 -0.57555674560E+00  0.94037944618E+01  0.12878670655E+02  0.51100000000E-03 0. -1.
        -11    1    3    3    0    0  0.12891999767E+01  0.12552503054E+01  0.57303606372E+00  0.18884015729E+01  0.51100000000E-03 0.  1.
        -12    1    3    3    0    0  0.15009796140E+02  0.70561605782E+01  0.26633111950E+02  0.31375245567E+02  0.00000000000E+00 0.  1.
</event>
<event>
 7    1  0.2312612E-008  0.4614232E+02  0.7816164E-02  0.1320468E+00
        -11   -1    0    0    0    0  0.00000000000E+00  0.00000000000E+00  0.45593999997E+02  0.45594000000E+02  0.51100000000E-03 0.  1.
         11   -1    0    0    0    0 -0.00000000000E+00 -0.00000000000E+00 -0.45593999997E+02  0.45594000000E+02  0.51100000000E-03 0. -1.
    9900012    2    1    2    0    0 -0.39082166743E+01 -0.34080010405E+02  0.29195757940E+02  0.46142317094E+02  0.99999939166E+01 0.  0.
         12    1    1    2    0    0  0.39082166743E+01  0.34080010405E+02 -0.29195757940E+02  0.45045682906E+02  0.00000000000E+00 0. -1.
         11    1    3    3    0    0  0.12229350247E+01 -0.13956418247E+01  0.16679724584E+01  0.24950989080E+01  0.51100000000E-03 0. -1.
        -11    1    3    3    0    0 -0.53291184325E+01 -0.27965346662E+02  0.26322111395E+02  0.38772589103E+02  0.51100000000E-03 0.  1.
        -12    1    3    3    0    0  0.19796673352E+00 -0.47190219183E+01  0.12056740862E+01  0.48746290828E+01  0.00000000000E+00 0.  1.
</event>
<event>
 7    1  0.2312612E-008  0.4614232E+02  0.7816164E-02  0.1320468E+00
        -11   -1    0    0    0    0  0.00000000000E+00  0.00000000000E+00  0.45593999997E+02  0.45594000000E+02  0.51100000000E-03 0.  1.
         11   -1    0    0    0    0 -0.00000000000E+00 -0.00000000000E+00 -0.45593999997E+02  0.45594000000E+02  0.51100000000E-03 0. -1.
    9900012    2    1    2    0    0 -0.37743316684E+02  0.78943520755E+00 -0.24575034463E+02  0.46142317842E+02  0.10000000738E+02 0.  0.
         12    1    1    2    0    0  0.37743316684E+02 -0.78943520755E+00  0.24575034463E+02  0.45045682158E+02  0.00000000000E+00 0. -1.
         11    1    3    3    0    0 -0.60906463576E+01  0.17138996694E+01 -0.65940014717E+01  0.91386148185E+01  0.51100000000E-03 0. -1.
        -11    1    3    3    0    0 -0.28789095715E+02  0.35017513300E+00 -0.17831127260E+02  0.33865672212E+02  0.51100000000E-03 0.  1.
         12    1    3    3    0    0 -0.28635746108E+01 -0.12746395949E+01 -0.14990573100E+00  0.31380308120E+01  0.00000000000E+00 0. -1.
</event>
<event>
 7    1  0.2312612E-008  0.4614232E+02  0.7816164E-02  0.1320468E+00
        -11   -1    0    0    0    0  0.00000000000E+00  0.00000000000E+00  0.45593999997E+02  0.45594000000E+02  0.51100000000E-03 0.  1.
         11   -1    0    0    0    0 -0.00000000000E+00 -0.00000000000E+00 -0.45593999997E+02  0.45594000000E+02  0.51100000000E-03 0. -1.
    9900012    2    1    2    0    0  0.38609239997E+02 -0.37073834676E+01  0.22906231176E+02  0.46142317276E+02  0.99999955798E+01 0.  0.
         12    1    1    2    0    0 -0.38609239997E+02  0.37073834676E+01 -0.22906231176E+02  0.45045682724E+02  0.00000000000E+00 0. -1.
         11    1    3    3    0    0  0.45175580462E+01  0.95664270879E+00  0.17120061242E+01  0.49248818467E+01  0.51100000000E-03 0.  1.
        -11    1    3    3    0    0  0.27337519976E+01  0.17981389415E+01  0.27047959197E+01  0.42453062157E+01  0.51100000000E-03 0. -1.
        -12    1    3    3    0    0  0.31357929954E+02 -0.64621651178E+01  0.18489429132E+02  0.36972129214E+02  0.00000000000E+00 0.  1.
</event>
<event>
 7    1  0.2312612E-008  0.4614232E+02  0.7816164E-02  0.1320468E+00
        -11   -1    0    0    0    0  0.00000000000E+00  0.00000000000E+00  0.45593999997E+02  0.45594000000E+02  0.51100000000E-03 0.  1.
         11   -1    0    0    0    0 -0.00000000000E+00 -0.00000000000E+00 -0.45593999997E+02  0.45594000000E+02  0.51100000000E-03 0. -1.
    9900012    2    1    2    0    0  0.28336415877E+02 -0.24826491851E+02  0.24694257095E+02  0.46142317677E+02  0.99999992361E+01 0.  0.
         12    1    1    2    0    0 -0.28336415877E+02  0.24826491851E+02 -0.24694257095E+02  0.45045682323E+02  0.00000000000E+00 0. -1.
         11    1    3    3    0    0  0.12458274636E+01 -0.18024488748E+01  0.34760715685E+01  0.41090122688E+01  0.51100000000E-03 0. -1.
        -11    1    3    3    0    0  0.94429506935E+01 -0.10977670298E+02  0.54254691995E+01  0.15463320448E+02  0.51100000000E-03 0.  1.
         12    1    3    3    0    0  0.17647637720E+02 -0.12046372678E+02  0.15792716327E+02  0.26569984961E+02  0.00000000000E+00 0. -1.
</event>
<event>
 7    1  0.2312612E-008  0.4614232E+02  0.7816164E-02  0.1320468E+00
        -11   -1    0    0    0    0  0.00000000000E+00  0.00000000000E+00  0.45593999997E+02  0.45594000000E+02  0.51100000000E-03 0.  1.
         11   -1    0    0    0    0 -0.00000000000E+00 -0.00000000000E+00 -0.45593999997E+02  0.45594000000E+02  0.51100000000E-03 0. -1.
    9900012    2    1    2    0    0 -0.98809125251E+01  0.38550234230E+01  0.43779216952E+02  0.46142317911E+02  0.10000001368E+02 0.  0.
         12    1    1    2    0    0  0.98809125251E+01 -0.38550234230E+01 -0.43779216952E+02  0.45045682089E+02  0.00000000000E+00 0. -1.
         11    1    3    3    0    0 -0.23631842557E+00 -0.42634725279E+00  0.35473122795E+01  0.35806484116E+01  0.51100000000E-03 0. -1.
        -11    1    3    3    0    0 -0.82957274867E+01  0.54653262200E+01  0.20837705641E+02  0.23084602268E+02  0.51100000000E-03 0.  1.
        -12    1    3    3    0    0 -0.13488666128E+01 -0.11839555441E+01  0.19394199032E+02  0.19477067232E+02  0.00000000000E+00 0.  1.
</event>
<event>
 7    1  0.2312612E-008  0.4614232E+02  0.7816164E-02  0.1320468E+00
        -11   -1    0    0    0    0  0.00000000000E+00  0.00000000000E+00  0.45593999997E+02  0.45594000000E+02  0.51100000000E-03 0.  1.
         11   -1    0    0    0    0 -0.00000000000E+00 -0.00000000000E+00 -0.45593999997E+02  0.45594000000E+02  0.51100000000E-03 0. -1.
    9900012    2    1    2    0    0  0.26809603383E+02  0.90333631869E+01  0.35053630240E+02  0.46142317887E+02  0.10000001146E+02 0.  0.
         12    1    1    2    0    0 -0.26809603383E+02 -0.90333631869E+01 -0.35053630240E+02  0.45045682113E+02  0.00000000000E+00 0. -1.
         11    1    3    3    0    0  0.20330096136E+02  0.60676337171E+01  0.21830422375E+02  0.30441687357E+02  0.51100000000E-03 0. -1.
        -11    1    3    3    0    0  0.71705370212E+01  0.29974673173E+01  0.12219593878E+02  0.14481708680E+02  0.51100000000E-03 0.  1.
         12    1    3    3    0    0 -0.69102977406E+00 -0.31737847504E-01  0.10036139877E+01  0.12189218498E+01  0.00000000000E+00 0. -1.
</event>
<event>
 7    1  0.2312612E-008  0.4614232E+02  0.7816164E-02  0.1320468E+00
        -11   -1    0    0    0    0  0.00000000000E+00  0.00000000000E+00  0.45593999997E+02  0.45594000000E+02  0.51100000000E-03 0.  1.
         11   -1    0    0    0    0 -0.00000000000E+00 -0.00000000000E+00 -0.45593999997E+02  0.45594000000E+02  0.51100000000E-03 0. -1.
    9900012    2    1    2    0    0  0.23593270869E+02 -0.11621577356E+02  0.36570614923E+02  0.46142319115E+02  0.10000012346E+02 0.  0.
         12    1    1    2    0    0 -0.23593270869E+02  0.11621577356E+02 -0.36570614923E+02  0.45045680885E+02  0.00000000000E+00 0. -1.
         11    1    3    3    0    0  0.92589158924E+00  0.11023614061E+01  0.11221296304E+01  0.18252810943E+01  0.51100000000E-03 0. -1.
        -11    1    3    3    0    0  0.77952611668E+01 -0.75090657960E+01  0.15129684484E+02  0.18602675040E+02  0.51100000000E-03 0.  1.
         12    1    3    3    0    0  0.14872118113E+02 -0.52148729664E+01  0.20318800808E+02  0.25714362981E+02  0.00000000000E+00 0. -1.
</event>
<event>
 7    1  0.2312612E-008  0.4614232E+02  0.7816164E-02  0.1320468E+00
        -11   -1    0    0    0    0  0.00000000000E+00  0.00000000000E+00  0.45593999997E+02  0.45594000000E+02  0.51100000000E-03 0.  1.
         11   -1    0    0    0    0 -0.00000000000E+00 -0.00000000000E+00 -0.45593999997E+02  0.45594000000E+02  0.51100000000E-03 0. -1.
    9900012    2    1    2    0    0  0.28707776500E+02 -0.34334578162E+01  0.34542561818E+02  0.46142316066E+02  0.99999845436E+01 0.  0.
         12    1    1    2    0    0 -0.28707776500E+02  0.34334578162E+01 -0.34542561818E+02  0.45045683934E+02  0.00000000000E+00 0. -1.
         11    1    3    3    0    0  0.49420971498E+01  0.19325517747E+00  0.11871048898E+02  0.12860150621E+02  0.51100000000E-03 0. -1.
        -11    1    3    3    0    0  0.39221801219E+00 -0.44622891217E+00  0.13918474533E+01  0.15133389592E+01  0.51100000000E-03 0.  1.
        -12    1    3    3    0    0  0.23373461338E+02 -0.31804840815E+01  0.21279665466E+02  0.31768826485E+02  0.00000000000E+00 0.  1.
</event>
<event>
 7    1  0.2312612E-008  0.4614232E+02  0.7816164E-02  0.1320468E+00
        -11   -1    0    0    0    0  0.00000000000E+00  0.00000000000E+00  0.45593999997E+02  0.45594000000E+02  0.51100000000E-03 0. -1.
         11   -1    0    0    0    0 -0.00000000000E+00 -0.00000000000E+00 -0.45593999997E+02  0.45594000000E+02  0.51100000000E-03 0.  1.
    9900012    2    1    2    0    0  0.30719666643E+02 -0.32463940241E+02 -0.56132164468E+01  0.46142317260E+02  0.99999954313E+01 0.  0.
         12    1    1    2    0    0 -0.30719666643E+02  0.32463940241E+02  0.56132164468E+01  0.45045682740E+02  0.00000000000E+00 0. -1.
         11    1    3    3    0    0  0.12861453102E+02 -0.85631873483E+01 -0.34411149953E+01  0.15829921861E+02  0.51100000000E-03 0. -1.
        -11    1    3    3    0    0  0.11186534608E+01 -0.43465171117E+01 -0.53138490044E+00  0.45195095686E+01  0.51100000000E-03 0.  1.
         12    1    3    3    0    0  0.16739560080E+02 -0.19554235781E+02 -0.16407165510E+01  0.25792885831E+02  0.00000000000E+00 0. -1.
</event>
<event>
 7    1  0.2312612E-008  0.4614232E+02  0.7816164E-02  0.1320468E+00
        -11   -1    0    0    0    0  0.00000000000E+00  0.00000000000E+00  0.45593999997E+02  0.45594000000E+02  0.51100000000E-03 0. -1.
         11   -1    0    0    0    0 -0.00000000000E+00 -0.00000000000E+00 -0.45593999997E+02  0.45594000000E+02  0.51100000000E-03 0.  1.
    9900012    2    1    2    0    0  0.33901910173E+02  0.11843480014E+02 -0.27193856466E+02  0.46142319167E+02  0.10000012823E+02 0.  0.
         12    1    1    2    0    0 -0.33901910173E+02 -0.11843480014E+02  0.27193856466E+02  0.45045680833E+02  0.00000000000E+00 0. -1.
         11    1    3    3    0    0 -0.33279325483E+00 -0.28648928193E-02  0.83210923819E-02  0.33290998749E+00  0.51100000000E-03 0. -1.
        -11    1    3    3    0    0  0.12968307071E+02  0.71143293289E+01 -0.13807937341E+02  0.20234866048E+02  0.51100000000E-03 0.  1.
        -12    1    3    3    0    0  0.21266396357E+02  0.47320155776E+01 -0.13394240217E+02  0.25574543132E+02  0.00000000000E+00 0.  1.
</event>
<event>
 7    1  0.2312612E-008  0.4614232E+02  0.7816164E-02  0.1320468E+00
        -11   -1    0    0    0    0  0.00000000000E+00  0.00000000000E+00  0.45593999997E+02  0.45594000000E+02  0.51100000000E-03 0.  1.
         11   -1    0    0    0    0 -0.00000000000E+00 -0.00000000000E+00 -0.45593999997E+02  0.45594000000E+02  0.51100000000E-03 0. -1.
    9900012    2    1    2    0    0 -0.17042799816E+02 -0.39152889104E+02 -0.14342511961E+02  0.46142318741E+02  0.10000008939E+02 0.  0.
         12    1    1    2    0    0  0.17042799816E+02  0.39152889104E+02  0.14342511961E+02  0.45045681259E+02  0.00000000000E+00 0. -1.
         11    1    3    3    0    0  0.72213094922E+00 -0.41499564988E+01 -0.15640766297E+01  0.44933226030E+01  0.51100000000E-03 0. -1.
        -11    1    3    3    0    0 -0.89428913889E+00 -0.85212365935E+00 -0.14597306662E+01  0.19122451918E+01  0.51100000000E-03 0.  1.
        -12    1    3    3    0    0 -0.16870641626E+02 -0.34150808945E+02 -0.11318704665E+02  0.39736750947E+02  0.00000000000E+00 0.  1.
</event>
<event>
 7    1  0.2312612E-008  0.4614232E+02  0.7816164E-02  0.1320468E+00
        -11   -1    0    0    0    0  0.00000000000E+00  0.00000000000E+00  0.45593999997E+02  0.45594000000E+02  0.51100000000E-03 0.  1.
         11   -1    0    0    0    0 -0.00000000000E+00 -0.00000000000E+00 -0.45593999997E+02  0.45594000000E+02  0.51100000000E-03 0. -1.
    9900012    2    1    2    0    0 -0.65675507219E+00  0.42456160569E+02  0.15038501512E+02  0.46142318462E+02  0.10000006390E+02 0.  0.
         12    1    1    2    0    0  0.65675507219E+00 -0.42456160569E+02 -0.15038501512E+02  0.45045681538E+02  0.00000000000E+00 0. -1.
         11    1    3    3    0    0 -0.10799172028E+01  0.80634613496E+00  0.78401381440E+00  0.15591963240E+01  0.51100000000E-03 0. -1.
        -11    1    3    3    0    0  0.15165647895E+01  0.41186321202E+01  0.32350647397E+01  0.54524071228E+01  0.51100000000E-03 0.  1.
        -12    1    3    3    0    0 -0.10934026588E+01  0.37531182314E+02  0.11019422958E+02  0.39130715015E+02  0.00000000000E+00 0.  1.
</event>
<event>
 7    1  0.2312612E-008  0.4614232E+02  0.7816164E-02  0.1320468E+00
        -11   -1    0    0    0    0  0.00000000000E+00  0.00000000000E+00  0.45593999997E+02  0.45594000000E+02  0.51100000000E-03 0. -1.
         11   -1    0    0    0    0 -0.00000000000E+00 -0.00000000000E+00 -0.45593999997E+02  0.45594000000E+02  0.51100000000E-03 0.  1.
    9900012    2    1    2    0    0  0.17740649564E+02 -0.20206863707E+02 -0.36139528624E+02  0.46142317443E+02  0.99999971018E+01 0.  0.
         12    1    1    2    0    0 -0.17740649564E+02  0.20206863707E+02  0.36139528624E+02  0.45045682557E+02  0.00000000000E+00 0. -1.
         11    1    3    3    0    0  0.36459646176E+01 -0.40006486978E+00 -0.60840525909E+01  0.71041400664E+01  0.51100000000E-03 0. -1.
        -11    1    3    3    0    0  0.55639250066E+01 -0.46921904392E+01 -0.11679192613E+02  0.13761448069E+02  0.51100000000E-03 0.  1.
        -12    1    3    3    0    0  0.85307599397E+01 -0.15114608398E+02 -0.18376283420E+02  0.25276729308E+02  0.00000000000E+00 0.  1.
</event>
<event>
 7    1  0.2312612E-008  0.4614232E+02  0.7816164E-02  0.1320468E+00
        -11   -1    0    0    0    0  0.00000000000E+00  0.00000000000E+00  0.45593999997E+02  0.45594000000E+02  0.51100000000E-03 0.  1.
         11   -1    0    0    0    0 -0.00000000000E+00 -0.00000000000E+00 -0.45593999997E+02  0.45594000000E+02  0.51100000000E-03 0. -1.
    9900012    2    1    2    0    0 -0.84992924910E+01  0.48931898916E+01  0.43965125875E+02  0.46142316818E+02  0.99999913991E+01 0.  0.
         12    1    1    2    0    0  0.84992924910E+01 -0.48931898916E+01 -0.43965125875E+02  0.45045683182E+02  0.00000000000E+00 0. -1.
         11    1    3    3    0    0 -0.35989619329E+01 -0.27704655045E+00  0.65844403328E+01  0.75089371114E+01  0.51100000000E-03 0. -1.
        -11    1    3    3    0    0 -0.40020539545E+01 -0.25320135151E+00  0.20215504550E+02  0.20609395218E+02  0.51100000000E-03 0.  1.
         12    1    3    3    0    0 -0.89827660353E+00  0.54234377935E+01  0.17165180992E+02  0.18023984489E+02  0.00000000000E+00 0. -1.
</event>
<event>
 7    1  0.2312612E-008  0.4614232E+02  0.7816164E-02  0.1320468E+00
        -11   -1    0    0    0    0  0.00000000000E+00  0.00000000000E+00  0.45593999997E+02  0.45594000000E+02  0.51100000000E-03 0.  1.
         11   -1    0    0    0    0 -0.00000000000E+00 -0.00000000000E+00 -0.45593999997E+02  0.45594000000E+02  0.51100000000E-03 0. -1.
    9900012    2    1    2    0    0  0.15004566715E+02 -0.41641849870E+02  0.83625846833E+01  0.46142317571E+02  0.99999982668E+01 0.  0.
         12    1    1    2    0    0 -0.15004566715E+02  0.41641849870E+02 -0.83625846833E+01  0.45045682429E+02  0.00000000000E+00 0. -1.
         11    1    3    3    0    0  0.87530187668E+00 -0.28416651663E+00  0.40841234783E+00  0.10068291273E+01  0.51100000000E-03 0. -1.
        -11    1    3    3    0    0  0.42499178855E+01 -0.13659121740E+02  0.64429276818E+01  0.15689000163E+02  0.51100000000E-03 0.  1.
         12    1    3    3    0    0  0.98793469532E+01 -0.27698561613E+02  0.15112446537E+01  0.29446488281E+02  0.00000000000E+00 0. -1.
</event>
<event>
 7    1  0.2312612E-008  0.4614232E+02  0.7816164E-02  0.1320468E+00
        -11   -1    0    0    0    0  0.00000000000E+00  0.00000000000E+00  0.45593999997E+02  0.45594000000E+02  0.51100000000E-03 0.  1.
         11   -1    0    0    0    0 -0.00000000000E+00 -0.00000000000E+00 -0.45593999997E+02  0.45594000000E+02  0.51100000000E-03 0. -1.
    9900012    2    1    2    0    0  0.34583538098E+02 -0.61229260827E+00  0.28856844546E+02  0.46142317779E+02  0.10000000162E+02 0.  0.
         12    1    1    2    0    0 -0.34583538098E+02  0.61229260827E+00 -0.28856844546E+02  0.45045682221E+02  0.00000000000E+00 0. -1.
         11    1    3    3    0    0  0.16418918832E+02  0.81056977233E+00  0.15669340924E+02  0.22710485777E+02  0.51100000000E-03 0. -1.
        -11    1    3    3    0    0  0.15002256755E+02 -0.87482035533E+00  0.13507945506E+02  0.20206375490E+02  0.51100000000E-03 0.  1.
         12    1    3    3    0    0  0.31623625108E+01 -0.54804202526E+00 -0.32044188335E+00  0.32254565121E+01  0.00000000000E+00 0. -1.
</event>
<event>
 7    1  0.2312612E-008  0.4614232E+02  0.7816164E-02  0.1320468E+00
        -11   -1    0    0    0    0  0.00000000000E+00  0.00000000000E+00  0.45593999997E+02  0.45594000000E+02  0.51100000000E-03 0. -1.
         11   -1    0    0    0    0 -0.00000000000E+00 -0.00000000000E+00 -0.45593999997E+02  0.45594000000E+02  0.51100000000E-03 0.  1.
    9900012    2    1    2    0    0 -0.38498440951E+02  0.14331264073E+02  0.18482380866E+02  0.46142317765E+02  0.10000000031E+02 0.  0.
         12    1    1    2    0    0  0.38498440951E+02 -0.14331264073E+02 -0.18482380866E+02  0.45045682235E+02  0.00000000000E+00 0. -1.
         11    1    3    3    0    0 -0.17427450212E+02  0.96864330293E+01  0.12129036449E+02  0.23337877606E+02  0.51100000000E-03 0. -1.
        -11    1    3    3    0    0 -0.11602835286E+02  0.42371135342E+01  0.45102218239E+01  0.13149943685E+02  0.51100000000E-03 0.  1.
         12    1    3    3    0    0 -0.94681554529E+01  0.40771750996E+00  0.18431225933E+01  0.96544964728E+01  0.00000000000E+00 0. -1.
</event>
<event>
 7    1  0.2312612E-008  0.4614232E+02  0.7816164E-02  0.1320468E+00
        -11   -1    0    0    0    0  0.00000000000E+00  0.00000000000E+00  0.45593999997E+02  0.45594000000E+02  0.51100000000E-03 0.  1.
         11   -1    0    0    0    0 -0.00000000000E+00 -0.00000000000E+00 -0.45593999997E+02  0.45594000000E+02  0.51100000000E-03 0. -1.
    9900012    2    1    2    0    0 -0.33543056164E+02 -0.30053615461E+02 -0.87009307517E+00  0.46142317842E+02  0.10000000741E+02 0.  0.
         12    1    1    2    0    0  0.33543056164E+02  0.30053615461E+02  0.87009307517E+00  0.45045682158E+02  0.00000000000E+00 0. -1.
         11    1    3    3    0    0 -0.82386336409E+01 -0.96901639213E+01 -0.99392072296E+00  0.12757830527E+02  0.51100000000E-03 0.  1.
        -11    1    3    3    0    0 -0.83829295533E+01 -0.66625069822E+01  0.36809609741E+01  0.11323072955E+02  0.51100000000E-03 0. -1.
        -12    1    3    3    0    0 -0.16921492969E+02 -0.13700944558E+02 -0.35571333263E+01  0.22061414361E+02  0.00000000000E+00 0.  1.
</event>
<event>
 7    1  0.2312612E-008  0.4614232E+02  0.7816164E-02  0.1320468E+00
        -11   -1    0    0    0    0  0.00000000000E+00  0.00000000000E+00  0.45593999997E+02  0.45594000000E+02  0.51100000000E-03 0.  1.
         11   -1    0    0    0    0 -0.00000000000E+00 -0.00000000000E+00 -0.45593999997E+02  0.45594000000E+02  0.51100000000E-03 0. -1.
    9900012    2    1    2    0    0 -0.31962225021E+02 -0.30374712866E+02  0.92144667346E+01  0.46142318662E+02  0.10000008214E+02 0.  0.
         12    1    1    2    0    0  0.31962225021E+02  0.30374712866E+02 -0.92144667346E+01  0.45045681338E+02  0.00000000000E+00 0. -1.
         11    1    3    3    0    0 -0.22710600767E+02 -0.20100072294E+02  0.69731841024E+01  0.31119280040E+02  0.51100000000E-03 0.  1.
        -11    1    3    3    0    0 -0.31672074470E+01 -0.58252696645E+01  0.33084159593E+01  0.74101677509E+01  0.51100000000E-03 0. -1.
         12    1    3    3    0    0 -0.60844168074E+01 -0.44493709077E+01 -0.10671333270E+01  0.76128708710E+01  0.00000000000E+00 0. -1.
</event>
<event>
 7    1  0.2312612E-008  0.4614232E+02  0.7816164E-02  0.1320468E+00
        -11   -1    0    0    0    0  0.00000000000E+00  0.00000000000E+00  0.45593999997E+02  0.45594000000E+02  0.51100000000E-03 0.  1.
         11   -1    0    0    0    0 -0.00000000000E+00 -0.00000000000E+00 -0.45593999997E+02  0.45594000000E+02  0.51100000000E-03 0. -1.
    9900012    2    1    2    0    0 -0.13527542657E+02 -0.41005189323E+02  0.12833302530E+02  0.46142316349E+02  0.99999871226E+01 0.  0.
         12    1    1    2    0    0  0.13527542657E+02  0.41005189323E+02 -0.12833302530E+02  0.45045683651E+02  0.00000000000E+00 0. -1.
         11    1    3    3    0    0 -0.66358111667E+00 -0.43441431497E+01 -0.10947182638E+01  0.45288329558E+01  0.51100000000E-03 0. -1.
        -11    1    3    3    0    0 -0.74529350841E+01 -0.22577844779E+02  0.57873209816E+01  0.24470357591E+02  0.51100000000E-03 0.  1.
        -12    1    3    3    0    0 -0.54110264566E+01 -0.14083201394E+02  0.81406998126E+01  0.17143125802E+02  0.00000000000E+00 0.  1.
</event>
<event>
 7    1  0.2312612E-008  0.4614232E+02  0.7816164E-02  0.1320468E+00
        -11   -1    0    0    0    0  0.00000000000E+00  0.00000000000E+00  0.45593999997E+02  0.45594000000E+02  0.51100000000E-03 0. -1.
         11   -1    0    0    0    0 -0.00000000000E+00 -0.00000000000E+00 -0.45593999997E+02  0.45594000000E+02  0.51100000000E-03 0.  1.
    9900012    2    1    2    0    0 -0.42168422613E+02  0.29185784705E+01 -0.15569829912E+02  0.46142316861E+02  0.99999917909E+01 0.  0.
         12    1    1    2    0    0  0.42168422613E+02 -0.29185784705E+01  0.15569829912E+02  0.45045683139E+02  0.00000000000E+00 0. -1.
         11    1    3    3    0    0 -0.11582340766E+02  0.43737866540E+01 -0.33290794965E+01  0.12820428926E+02  0.51100000000E-03 0. -1.
        -11    1    3    3    0    0 -0.11196247463E+02 -0.26887088133E+01 -0.36586425499E+01  0.12081836694E+02  0.51100000000E-03 0.  1.
        -12    1    3    3    0    0 -0.19389834385E+02  0.12335006299E+01 -0.85821078653E+01  0.21240051240E+02  0.00000000000E+00 0.  1.
</event>
<event>
 7    1  0.2312612E-008  0.4614232E+02  0.7816164E-02  0.1320468E+00
        -11   -1    0    0    0    0  0.00000000000E+00  0.00000000000E+00  0.45593999997E+02  0.45594000000E+02  0.51100000000E-03 0.  1.
         11   -1    0    0    0    0 -0.00000000000E+00 -0.00000000000E+00 -0.45593999997E+02  0.45594000000E+02  0.51100000000E-03 0. -1.
    9900012    2    1    2    0    0  0.16182551629E+02 -0.25657819785E+02  0.33300372595E+02  0.46142317540E+02  0.99999979795E+01 0.  0.
         12    1    1    2    0    0 -0.16182551629E+02  0.25657819785E+02 -0.33300372595E+02  0.45045682460E+02  0.00000000000E+00 0. -1.
         11    1    3    3    0    0  0.13051615789E+02 -0.24324066018E+02  0.26533041788E+02  0.38288473058E+02  0.51100000000E-03 0. -1.
        -11    1    3    3    0    0  0.19242531750E+01 -0.76085284662E+00  0.59219099840E+01  0.62730108764E+01  0.51100000000E-03 0.  1.
        -12    1    3    3    0    0  0.12066826647E+01 -0.57290092128E+00  0.84542082278E+00  0.15808336049E+01  0.00000000000E+00 0.  1.
</event>
<event>
 7    1  0.2312612E-008  0.4614232E+02  0.7816164E-02  0.1320468E+00
        -11   -1    0    0    0    0  0.00000000000E+00  0.00000000000E+00  0.45593999997E+02  0.45594000000E+02  0.51100000000E-03 0.  1.
         11   -1    0    0    0    0 -0.00000000000E+00 -0.00000000000E+00 -0.45593999997E+02  0.45594000000E+02  0.51100000000E-03 0. -1.
    9900012    2    1    2    0    0 -0.34772602415E+02  0.88048756101E+01  0.27248006351E+02  0.46142316930E+02  0.99999924170E+01 0.  0.
         12    1    1    2    0    0  0.34772602415E+02 -0.88048756101E+01 -0.27248006351E+02  0.45045683070E+02  0.00000000000E+00 0. -1.
         11    1    3    3    0    0 -0.28033848464E+01 -0.91476957925E+00  0.83944743146E+00  0.30660140625E+01  0.51100000000E-03 0. -1.
        -11    1    3    3    0    0 -0.31003690680E+02  0.79487528935E+01  0.24613075550E+02  0.40375921000E+02  0.51100000000E-03 0.  1.
         12    1    3    3    0    0 -0.96552688802E+00  0.17708922959E+01  0.17954833697E+01  0.27003818667E+01  0.00000000000E+00 0. -1.
</event>
<event>
 7    1  0.2312612E-008  0.4614232E+02  0.7816164E-02  0.1320468E+00
        -11   -1    0    0    0    0  0.00000000000E+00  0.00000000000E+00  0.45593999997E+02  0.45594000000E+02  0.51100000000E-03 0.  1.
         11   -1    0    0    0    0 -0.00000000000E+00 -0.00000000000E+00 -0.45593999997E+02  0.45594000000E+02  0.51100000000E-03 0. -1.
    9900012    2    1    2    0    0 -0.32853533078E+02 -0.19761743986E+02  0.23648092511E+02  0.46142318292E+02  0.10000004845E+02 0.  0.
         12    1    1    2    0    0  0.32853533078E+02  0.19761743986E+02 -0.23648092511E+02  0.45045681708E+02  0.00000000000E+00 0. -1.
         11    1    3    3    0    0 -0.15472287092E+02 -0.10572163209E+02  0.12424901396E+02  0.22484227310E+02  0.51100000000E-03 0. -1.
        -11    1    3    3    0    0 -0.82723138844E+01 -0.66369043770E+01  0.90727881879E+01  0.13956903757E+02  0.51100000000E-03 0.  1.
         12    1    3    3    0    0 -0.91089321015E+01 -0.25526764005E+01  0.21504029271E+01  0.97011872255E+01  0.00000000000E+00 0. -1.
</event>
<event>
 7    1  0.2312612E-008  0.4614232E+02  0.7816164E-02  0.1320468E+00
        -11   -1    0    0    0    0  0.00000000000E+00  0.00000000000E+00  0.45593999997E+02  0.45594000000E+02  0.51100000000E-03 0. -1.
         11   -1    0    0    0    0 -0.00000000000E+00 -0.00000000000E+00 -0.45593999997E+02  0.45594000000E+02  0.51100000000E-03 0.  1.
    9900012    2    1    2    0    0 -0.22057277949E+02 -0.16378064521E+02 -0.35698025014E+02  0.46142317655E+02  0.99999990342E+01 0.  0.
         12    1    1    2    0    0  0.22057277949E+02  0.16378064521E+02  0.35698025014E+02  0.45045682345E+02  0.00000000000E+00 0. -1.
         11    1    3    3    0    0 -0.17856849213E+01 -0.23643394363E+01 -0.69293474816E+01  0.75362210948E+01  0.51100000000E-03 0. -1.
        -11    1    3    3    0    0 -0.16559710909E+02 -0.12294372492E+02 -0.27395051801E+02  0.34290880476E+02  0.51100000000E-03 0.  1.
        -12    1    3    3    0    0 -0.37118821192E+01 -0.17193525934E+01 -0.13736257313E+01  0.43152160847E+01  0.00000000000E+00 0.  1.
</event>
<event>
 7    1  0.2312612E-008  0.4614232E+02  0.7816164E-02  0.1320468E+00
        -11   -1    0    0    0    0  0.00000000000E+00  0.00000000000E+00  0.45593999997E+02  0.45594000000E+02  0.51100000000E-03 0.  1.
         11   -1    0    0    0    0 -0.00000000000E+00 -0.00000000000E+00 -0.45593999997E+02  0.45594000000E+02  0.51100000000E-03 0. -1.
    9900012    2    1    2    0    0 -0.90060689281E+00 -0.25401674024E+02  0.37189475852E+02  0.46142320405E+02  0.10000024107E+02 0.  0.
         12    1    1    2    0    0  0.90060689281E+00  0.25401674024E+02 -0.37189475852E+02  0.45045679595E+02  0.00000000000E+00 0. -1.
         11    1    3    3    0    0  0.35765296043E-01  0.76918262433E+00  0.12450811219E+01  0.14639495644E+01  0.51100000000E-03 0. -1.
        -11    1    3    3    0    0  0.11075275394E+01 -0.23240639922E+01  0.41213750834E+01  0.48593850979E+01  0.51100000000E-03 0.  1.
        -12    1    3    3    0    0 -0.20438997283E+01 -0.23846792656E+02  0.31823019647E+02  0.39818985743E+02  0.00000000000E+00 0.  1.
</event>
<event>
 7    1  0.2312612E-008  0.4614232E+02  0.7816164E-02  0.1320468E+00
        -11   -1    0    0    0    0  0.00000000000E+00  0.00000000000E+00  0.45593999997E+02  0.45594000000E+02  0.51100000000E-03 0.  1.
         11   -1    0    0    0    0 -0.00000000000E+00 -0.00000000000E+00 -0.45593999997E+02  0.45594000000E+02  0.51100000000E-03 0. -1.
    9900012    2    1    2    0    0 -0.38698408240E+02  0.22635715661E+02  0.43784742575E+01  0.46142318069E+02  0.10000002809E+02 0.  0.
         12    1    1    2    0    0  0.38698408240E+02 -0.22635715661E+02 -0.43784742575E+01  0.45045681931E+02  0.00000000000E+00 0. -1.
         11    1    3    3    0    0 -0.10894525976E+02  0.92839415676E+01 -0.52443747049E+00  0.14323313241E+02  0.51100000000E-03 0. -1.
        -11    1    3    3    0    0 -0.10154445289E+02  0.74822059977E+01  0.38565860809E+01  0.13189746858E+02  0.51100000000E-03 0.  1.
        -12    1    3    3    0    0 -0.17649436975E+02  0.58695680961E+01  0.10463256471E+01  0.18629257970E+02  0.00000000000E+00 0.  1.
</event>
<event>
 7    1  0.2312612E-008  0.4614232E+02  0.7816164E-02  0.1320468E+00
        -11   -1    0    0    0    0  0.00000000000E+00  0.00000000000E+00  0.45593999997E+02  0.45594000000E+02  0.51100000000E-03 0.  1.
         11   -1    0    0    0    0 -0.00000000000E+00 -0.00000000000E+00 -0.45593999997E+02  0.45594000000E+02  0.51100000000E-03 0. -1.
    9900012    2    1    2    0    0  0.37967260572E+01  0.20965292652E+02  0.39688223046E+02  0.46142315709E+02  0.99999812840E+01 0.  0.
         12    1    1    2    0    0 -0.37967260572E+01 -0.20965292652E+02 -0.39688223046E+02  0.45045684291E+02  0.00000000000E+00 0. -1.
         11    1    3    3    0    0  0.35048852153E+01  0.10743375652E+02  0.14396242596E+02  0.18301807067E+02  0.51100000000E-03 0. -1.
        -11    1    3    3    0    0  0.26733552803E+01  0.55297573205E+01  0.16344495655E+02  0.17460457696E+02  0.51100000000E-03 0.  1.
        -12    1    3    3    0    0 -0.23815144383E+01  0.46921596796E+01  0.89474847947E+01  0.10380050945E+02  0.00000000000E+00 0.  1.
</event>
<event>
 7    1  0.2312612E-008  0.4614232E+02  0.7816164E-02  0.1320468E+00
        -11   -1    0    0    0    0  0.00000000000E+00  0.00000000000E+00  0.45593999997E+02  0.45594000000E+02  0.51100000000E-03 0.  1.
         11   -1    0    0    0    0 -0.00000000000E+00 -0.00000000000E+00 -0.45593999997E+02  0.45594000000E+02  0.51100000000E-03 0. -1.
    9900012    2    1    2    0    0 -0.25551078084E+02 -0.35949732245E+02 -0.91581963538E+01  0.46142318740E+02  0.10000008928E+02 0.  0.
         12    1    1    2    0    0  0.25551078084E+02  0.35949732245E+02  0.91581963538E+01  0.45045681260E+02  0.00000000000E+00 0. -1.
         11    1    3    3    0    0 -0.11147289983E+02 -0.14798569456E+02 -0.11580484226E+01  0.18563426632E+02  0.51100000000E-03 0. -1.
        -11    1    3    3    0    0 -0.10723374038E+01 -0.62783333013E+01 -0.12109117442E+01  0.64833389594E+01  0.51100000000E-03 0.  1.
        -12    1    3    3    0    0 -0.13331450697E+02 -0.14872829487E+02 -0.67892361870E+01  0.21095553149E+02  0.00000000000E+00 0.  1.
</event>
<event>
 7    1  0.2312612E-008  0.4614232E+02  0.7816164E-02  0.1320468E+00
        -11   -1    0    0    0    0  0.00000000000E+00  0.00000000000E+00  0.45593999997E+02  0.45594000000E+02  0.51100000000E-03 0.  1.
         11   -1    0    0    0    0 -0.00000000000E+00 -0.00000000000E+00 -0.45593999997E+02  0.45594000000E+02  0.51100000000E-03 0. -1.
    9900012    2    1    2    0    0  0.37308549215E+02  0.25237317194E+02  0.51334851563E+00  0.46142317073E+02  0.99999937211E+01 0.  0.
         12    1    1    2    0    0 -0.37308549215E+02 -0.25237317194E+02 -0.51334851563E+00  0.45045682927E+02  0.00000000000E+00 0. -1.
         11    1    3    3    0    0  0.18718932646E+02  0.14237008560E+02  0.13221694880E+01  0.23555020369E+02  0.51100000000E-03 0.  1.
        -11    1    3    3    0    0  0.12122923539E+02  0.97306893801E+01  0.14694667955E+01  0.15614446000E+02  0.51100000000E-03 0. -1.
         12    1    3    3    0    0  0.64666930298E+01  0.12696192541E+01 -0.22782877678E+01  0.69728507044E+01  0.00000000000E+00 0. -1.
</event>
<event>
 7    1  0.2312612E-008  0.4614232E+02  0.7816164E-02  0.1320468E+00
        -11   -1    0    0    0    0  0.00000000000E+00  0.00000000000E+00  0.45593999997E+02  0.45594000000E+02  0.51100000000E-03 0.  1.
         11   -1    0    0    0    0 -0.00000000000E+00 -0.00000000000E+00 -0.45593999997E+02  0.45594000000E+02  0.51100000000E-03 0. -1.
    9900012    2    1    2    0    0 -0.38154673079E+02 -0.10412440546E+02  0.21561895664E+02  0.46142319402E+02  0.10000014963E+02 0.  0.
         12    1    1    2    0    0  0.38154673079E+02  0.10412440546E+02 -0.21561895664E+02  0.45045680598E+02  0.00000000000E+00 0. -1.
         11    1    3    3    0    0 -0.40563314179E+01 -0.42878884971E+00 -0.24356691116E+00  0.40861974440E+01  0.51100000000E-03 0. -1.
        -11    1    3    3    0    0 -0.20745150540E+02 -0.80910403535E+01  0.11360249031E+02  0.24997629152E+02  0.51100000000E-03 0.  1.
        -12    1    3    3    0    0 -0.13353191121E+02 -0.18926113432E+01  0.10445213545E+02  0.17058492806E+02  0.00000000000E+00 0.  1.
</event>
<event>
 7    1  0.2312612E-008  0.4614230E+02  0.7816164E-02  0.1320468E+00
        -11   -1    0    0    0    0  0.00000000000E+00  0.00000000000E+00  0.45593999997E+02  0.45594000000E+02  0.51100000000E-03 0.  1.
         11   -1    0    0    0    0 -0.00000000000E+00 -0.00000000000E+00 -0.45593999997E+02  0.45594000000E+02  0.51100000000E-03 0. -1.
    9900012    2    1    2    0    0 -0.31555687454E+02 -0.31816779059E+02  0.45876039727E+01  0.46142301531E+02  0.99998519965E+01 0.  0.
         12    1    1    2    0    0  0.31555687454E+02  0.31816779059E+02 -0.45876039727E+01  0.45045698469E+02  0.00000000000E+00 0. -1.
         11    1    3    3    0    0 -0.14177367221E+01 -0.11432199130E+01 -0.12904094274E+01  0.22320586762E+01  0.51100000000E-03 0. -1.
        -11    1    3    3    0    0 -0.14570680055E+02 -0.10926808369E+02  0.63092975821E+00  0.18223554292E+02  0.51100000000E-03 0.  1.
        -12    1    3    3    0    0 -0.15567270677E+02 -0.19746750777E+02  0.52470836419E+01  0.25686688563E+02  0.00000000000E+00 0.  1.
</event>
<event>
 7    1  0.2312612E-008  0.4614232E+02  0.7816164E-02  0.1320468E+00
        -11   -1    0    0    0    0  0.00000000000E+00  0.00000000000E+00  0.45593999997E+02  0.45594000000E+02  0.51100000000E-03 0.  1.
         11   -1    0    0    0    0 -0.00000000000E+00 -0.00000000000E+00 -0.45593999997E+02  0.45594000000E+02  0.51100000000E-03 0. -1.
    9900012    2    1    2    0    0  0.23488198382E+02 -0.13941564116E+02  0.35819698162E+02  0.46142318191E+02  0.10000003917E+02 0.  0.
         12    1    1    2    0    0 -0.23488198382E+02  0.13941564116E+02 -0.35819698162E+02  0.45045681809E+02  0.00000000000E+00 0. -1.
         11    1    3    3    0    0  0.16464688597E+02 -0.79812428117E+01  0.21596285822E+02  0.28305225118E+02  0.51100000000E-03 0.  1.
        -11    1    3    3    0    0  0.69278229481E+01 -0.62415170223E+01  0.10266752218E+02  0.13869299438E+02  0.51100000000E-03 0. -1.
         12    1    3    3    0    0  0.95686836751E-01  0.28119571802E+00  0.39566601222E+01  0.39677936344E+01  0.00000000000E+00 0. -1.
</event>
<event>
 7    1  0.2312612E-008  0.4614232E+02  0.7816164E-02  0.1320468E+00
        -11   -1    0    0    0    0  0.00000000000E+00  0.00000000000E+00  0.45593999997E+02  0.45594000000E+02  0.51100000000E-03 0. -1.
         11   -1    0    0    0    0 -0.00000000000E+00 -0.00000000000E+00 -0.45593999997E+02  0.45594000000E+02  0.51100000000E-03 0.  1.
    9900012    2    1    2    0    0 -0.14211670068E+02  0.42732481210E+02  0.10375694348E+01  0.46142322440E+02  0.10000042665E+02 0.  0.
         12    1    1    2    0    0  0.14211670068E+02 -0.42732481210E+02 -0.10375694348E+01  0.45045677560E+02  0.00000000000E+00 0. -1.
         11    1    3    3    0    0 -0.12861255631E+02  0.36636124773E+02 -0.19686832690E+01  0.38877927528E+02  0.51100000000E-03 0. -1.
        -11    1    3    3    0    0 -0.12247499650E+01  0.22677202010E+01  0.21084743311E+01  0.33298996460E+01  0.51100000000E-03 0.  1.
         12    1    3    3    0    0 -0.12566447142E+00  0.38286362362E+01  0.89777837271E+00  0.39344952656E+01  0.00000000000E+00 0. -1.
</event>
<event>
 7    1  0.2312612E-008  0.4614232E+02  0.7816164E-02  0.1320468E+00
        -11   -1    0    0    0    0  0.00000000000E+00  0.00000000000E+00  0.45593999997E+02  0.45594000000E+02  0.51100000000E-03 0. -1.
         11   -1    0    0    0    0 -0.00000000000E+00 -0.00000000000E+00 -0.45593999997E+02  0.45594000000E+02  0.51100000000E-03 0.  1.
    9900012    2    1    2    0    0 -0.40451347462E+02  0.18479286564E+02  0.71636403346E+01  0.46142320005E+02  0.10000020459E+02 0.  0.
         12    1    1    2    0    0  0.40451347462E+02 -0.18479286564E+02 -0.71636403346E+01  0.45045679995E+02  0.00000000000E+00 0. -1.
         11    1    3    3    0    0 -0.72558008196E+01  0.33476047131E+01  0.36595881115E+01  0.87889526257E+01  0.51100000000E-03 0. -1.
        -11    1    3    3    0    0 -0.26454344149E+02  0.13956102649E+02  0.50621113670E+01  0.30335294580E+02  0.51100000000E-03 0.  1.
         12    1    3    3    0    0 -0.67412024932E+01  0.11755792017E+01 -0.15580591439E+01  0.70180727989E+01  0.00000000000E+00 0. -1.
</event>
<event>
 7    1  0.2312612E-008  0.4614232E+02  0.7816164E-02  0.1320468E+00
        -11   -1    0    0    0    0  0.00000000000E+00  0.00000000000E+00  0.45593999997E+02  0.45594000000E+02  0.51100000000E-03 0.  1.
         11   -1    0    0    0    0 -0.00000000000E+00 -0.00000000000E+00 -0.45593999997E+02  0.45594000000E+02  0.51100000000E-03 0. -1.
    9900012    2    1    2    0    0 -0.75632087169E+01 -0.38652650949E+02  0.21860554450E+02  0.46142318827E+02  0.10000009720E+02 0.  0.
         12    1    1    2    0    0  0.75632087169E+01  0.38652650949E+02 -0.21860554450E+02  0.45045681173E+02  0.00000000000E+00 0. -1.
         11    1    3    3    0    0 -0.30742194564E+00 -0.46363807679E+01  0.27267842780E+01  0.53875678778E+01  0.51100000000E-03 0. -1.
        -11    1    3    3    0    0 -0.15765235256E+01 -0.26508550850E+02  0.14636199309E+02  0.30321725298E+02  0.51100000000E-03 0.  1.
         12    1    3    3    0    0 -0.56792632457E+01 -0.75077193316E+01  0.44975708630E+01  0.10433025651E+02  0.00000000000E+00 0. -1.
</event>
<event>
 7    1  0.2312612E-008  0.4614231E+02  0.7816164E-02  0.1320468E+00
        -11   -1    0    0    0    0  0.00000000000E+00  0.00000000000E+00  0.45593999997E+02  0.45594000000E+02  0.51100000000E-03 0.  1.
         11   -1    0    0    0    0 -0.00000000000E+00 -0.00000000000E+00 -0.45593999997E+02  0.45594000000E+02  0.51100000000E-03 0. -1.
    9900012    2    1    2    0    0 -0.45959295630E+01 -0.51686505428E+00  0.44807634240E+02  0.46142314255E+02  0.99999680270E+01 0.  0.
         12    1    1    2    0    0  0.45959295630E+01  0.51686505428E+00 -0.44807634240E+02  0.45045685745E+02  0.00000000000E+00 0. -1.
         11    1    3    3    0    0 -0.23188426124E+01 -0.27649264942E+01  0.88837282104E+01  0.95886639715E+01  0.51100000000E-03 0. -1.
        -11    1    3    3    0    0 -0.29583989421E+01 -0.26135090725E+00  0.29099226048E+02  0.29250391202E+02  0.51100000000E-03 0.  1.
        -12    1    3    3    0    0  0.68131199156E+00  0.25094123472E+01  0.68246799820E+01  0.73032590817E+01  0.00000000000E+00 0.  1.
</event>
<event>
 7    1  0.2312612E-008  0.4614232E+02  0.7816164E-02  0.1320468E+00
        -11   -1    0    0    0    0  0.00000000000E+00  0.00000000000E+00  0.45593999997E+02  0.45594000000E+02  0.51100000000E-03 0. -1.
         11   -1    0    0    0    0 -0.00000000000E+00 -0.00000000000E+00 -0.45593999997E+02  0.45594000000E+02  0.51100000000E-03 0.  1.
    9900012    2    1    2    0    0  0.23787004776E+02  0.35952400643E+02 -0.13065865003E+02  0.46142317227E+02  0.99999951312E+01 0.  0.
         12    1    1    2    0    0 -0.23787004776E+02 -0.35952400643E+02  0.13065865003E+02  0.45045682773E+02  0.00000000000E+00 0. -1.
         11    1    3    3    0    0  0.49262272947E+01  0.67427751744E+01  0.45244257622E+00  0.83628605727E+01  0.51100000000E-03 0. -1.
        -11    1    3    3    0    0  0.65622749394E+01  0.79511829512E+01 -0.66842326150E+01  0.12286729777E+02  0.51100000000E-03 0.  1.
        -12    1    3    3    0    0  0.12298502542E+02  0.21258442517E+02 -0.68340749638E+01  0.25492726877E+02  0.00000000000E+00 0.  1.
</event>
<event>
 7    1  0.2312612E-008  0.4614232E+02  0.7816164E-02  0.1320468E+00
        -11   -1    0    0    0    0  0.00000000000E+00  0.00000000000E+00  0.45593999997E+02  0.45594000000E+02  0.51100000000E-03 0.  1.
         11   -1    0    0    0    0 -0.00000000000E+00 -0.00000000000E+00 -0.45593999997E+02  0.45594000000E+02  0.51100000000E-03 0. -1.
    9900012    2    1    2    0    0 -0.28198248726E+02  0.73018880038E+01  0.34360655941E+02  0.46142317895E+02  0.10000001218E+02 0.  0.
         12    1    1    2    0    0  0.28198248726E+02 -0.73018880038E+01 -0.34360655941E+02  0.45045682105E+02  0.00000000000E+00 0. -1.
         11    1    3    3    0    0 -0.86554645169E+01  0.34610780681E+01  0.65986348639E+01  0.11420950474E+02  0.51100000000E-03 0. -1.
        -11    1    3    3    0    0 -0.12967728122E+02  0.35965205512E+01  0.13739908356E+02  0.19232316933E+02  0.51100000000E-03 0.  1.
        -12    1    3    3    0    0 -0.65750560875E+01  0.24428938449E+00  0.14022112721E+02  0.15489050488E+02  0.00000000000E+00 0.  1.
</event>
<event>
 7    1  0.2312612E-008  0.4614232E+02  0.7816164E-02  0.1320468E+00
        -11   -1    0    0    0    0  0.00000000000E+00  0.00000000000E+00  0.45593999997E+02  0.45594000000E+02  0.51100000000E-03 0.  1.
         11   -1    0    0    0    0 -0.00000000000E+00 -0.00000000000E+00 -0.45593999997E+02  0.45594000000E+02  0.51100000000E-03 0. -1.
    9900012    2    1    2    0    0  0.38749130155E+02  0.17715747718E+01  0.22901517349E+02  0.46142322496E+02  0.10000043174E+02 0.  0.
         12    1    1    2    0    0 -0.38749130155E+02 -0.17715747718E+01 -0.22901517349E+02  0.45045677504E+02  0.00000000000E+00 0. -1.
         11    1    3    3    0    0  0.98979279507E+01  0.33233132105E+00  0.20361044226E+01  0.10110645049E+02  0.51100000000E-03 0. -1.
        -11    1    3    3    0    0  0.33084993560E+01 -0.46049918506E+00  0.65265128086E+00  0.34035542369E+01  0.51100000000E-03 0.  1.
        -12    1    3    3    0    0  0.25542702848E+02  0.18997426358E+01  0.20212761645E+02  0.32628123210E+02  0.00000000000E+00 0.  1.
</event>
<event>
 7    1  0.2312612E-008  0.4614232E+02  0.7816164E-02  0.1320468E+00
        -11   -1    0    0    0    0  0.00000000000E+00  0.00000000000E+00  0.45593999997E+02  0.45594000000E+02  0.51100000000E-03 0.  1.
         11   -1    0    0    0    0 -0.00000000000E+00 -0.00000000000E+00 -0.45593999997E+02  0.45594000000E+02  0.51100000000E-03 0. -1.
    9900012    2    1    2    0    0  0.15903229041E+02  0.24785284532E+02  0.34086514476E+02  0.46142317716E+02  0.99999995904E+01 0.  0.
         12    1    1    2    0    0 -0.15903229041E+02 -0.24785284532E+02 -0.34086514476E+02  0.45045682284E+02  0.00000000000E+00 0. -1.
         11    1    3    3    0    0 -0.36687362615E+00  0.35752731249E+01  0.29957479672E+01  0.46788545949E+01  0.51100000000E-03 0. -1.
        -11    1    3    3    0    0  0.11181488868E+02  0.11089632302E+02  0.14725789333E+02  0.21560484912E+02  0.51100000000E-03 0.  1.
        -12    1    3    3    0    0  0.50886137994E+01  0.10120379105E+02  0.16364977176E+02  0.19902978210E+02  0.00000000000E+00 0.  1.
</event>
<event>
 7    1  0.2312612E-008  0.4614232E+02  0.7816164E-02  0.1320468E+00
        -11   -1    0    0    0    0  0.00000000000E+00  0.00000000000E+00  0.45593999997E+02  0.45594000000E+02  0.51100000000E-03 0.  1.
         11   -1    0    0    0    0 -0.00000000000E+00 -0.00000000000E+00 -0.45593999997E+02  0.45594000000E+02  0.51100000000E-03 0. -1.
    9900012    2    1    2    0    0 -0.19311888325E+02 -0.95167001249E+01  0.39567624026E+02  0.46142317820E+02  0.10000000540E+02 0.  0.
         12    1    1    2    0    0  0.19311888325E+02  0.95167001249E+01 -0.39567624026E+02  0.45045682180E+02  0.00000000000E+00 0. -1.
         11    1    3    3    0    0 -0.75295165645E+00 -0.23967848487E+01  0.14044320459E+01  0.28781840525E+01  0.51100000000E-03 0. -1.
        -11    1    3    3    0    0 -0.72127902348E+00  0.48559883393E+00  0.86613937542E+00  0.12272926855E+01  0.51100000000E-03 0.  1.
        -12    1    3    3    0    0 -0.17837657645E+02 -0.76055141102E+01  0.37297052605E+02  0.42036841082E+02  0.00000000000E+00 0.  1.
</event>
<event>
 7    1  0.2312612E-008  0.4614232E+02  0.7816164E-02  0.1320468E+00
        -11   -1    0    0    0    0  0.00000000000E+00  0.00000000000E+00  0.45593999997E+02  0.45594000000E+02  0.51100000000E-03 0.  1.
         11   -1    0    0    0    0 -0.00000000000E+00 -0.00000000000E+00 -0.45593999997E+02  0.45594000000E+02  0.51100000000E-03 0. -1.
    9900012    2    1    2    0    0 -0.20457662193E+02 -0.33582213437E+02  0.21973449747E+02  0.46142317682E+02  0.99999992802E+01 0.  0.
         12    1    1    2    0    0  0.20457662193E+02  0.33582213437E+02 -0.21973449747E+02  0.45045682318E+02  0.00000000000E+00 0. -1.
         11    1    3    3    0    0 -0.32836598995E+00  0.46558812596E+00  0.62504395732E-01  0.57315232442E+00  0.51100000000E-03 0. -1.
        -11    1    3    3    0    0 -0.18643880499E+02 -0.27439828282E+02  0.18545341565E+02  0.38006159372E+02  0.51100000000E-03 0.  1.
        -12    1    3    3    0    0 -0.14854157039E+01 -0.66079732807E+01  0.33656037857E+01  0.75630059853E+01  0.00000000000E+00 0.  1.
</event>
<event>
 7    1  0.2312612E-008  0.4614232E+02  0.7816164E-02  0.1320468E+00
        -11   -1    0    0    0    0  0.00000000000E+00  0.00000000000E+00  0.45593999997E+02  0.45594000000E+02  0.51100000000E-03 0. -1.
         11   -1    0    0    0    0 -0.00000000000E+00 -0.00000000000E+00 -0.45593999997E+02  0.45594000000E+02  0.51100000000E-03 0.  1.
    9900012    2    1    2    0    0  0.17463310539E+02 -0.33172719432E+02 -0.24974328090E+02  0.46142316599E+02  0.99999894068E+01 0.  0.
         12    1    1    2    0    0 -0.17463310539E+02  0.33172719432E+02  0.24974328090E+02  0.45045683401E+02  0.00000000000E+00 0. -1.
         11    1    3    3    0    0  0.41443893016E+01 -0.28506389030E+01 -0.50184935353E+01  0.71054473795E+01  0.51100000000E-03 0. -1.
        -11    1    3    3    0    0  0.28627285359E+01 -0.73113433382E+01 -0.22189900730E+01  0.81593426993E+01  0.51100000000E-03 0.  1.
         12    1    3    3    0    0  0.10456192702E+02 -0.23010737191E+02 -0.17736844481E+02  0.30877526521E+02  0.00000000000E+00 0. -1.
</event>
<event>
 7    1  0.2312612E-008  0.4614232E+02  0.7816164E-02  0.1320468E+00
        -11   -1    0    0    0    0  0.00000000000E+00  0.00000000000E+00  0.45593999997E+02  0.45594000000E+02  0.51100000000E-03 0. -1.
         11   -1    0    0    0    0 -0.00000000000E+00 -0.00000000000E+00 -0.45593999997E+02  0.45594000000E+02  0.51100000000E-03 0.  1.
    9900012    2    1    2    0    0  0.40864659958E+02 -0.15762558774E+02 -0.10523064632E+02  0.46142316724E+02  0.99999905385E+01 0.  0.
         12    1    1    2    0    0 -0.40864659958E+02  0.15762558774E+02  0.10523064632E+02  0.45045683276E+02  0.00000000000E+00 0. -1.
         11    1    3    3    0    0  0.33158138823E+02 -0.13724246308E+02 -0.71446947662E+01  0.36590487432E+02  0.51100000000E-03 0.  1.
        -11    1    3    3    0    0  0.44733725129E+01 -0.31094039559E+01 -0.26948729798E+01  0.60779762454E+01  0.51100000000E-03 0. -1.
         12    1    3    3    0    0  0.32331486221E+01  0.10710914905E+01 -0.68349688625E+00  0.34738530463E+01  0.00000000000E+00 0. -1.
</event>
<event>
 7    1  0.2312612E-008  0.4614231E+02  0.7816164E-02  0.1320468E+00
        -11   -1    0    0    0    0  0.00000000000E+00  0.00000000000E+00  0.45593999997E+02  0.45594000000E+02  0.51100000000E-03 0.  1.
         11   -1    0    0    0    0 -0.00000000000E+00 -0.00000000000E+00 -0.45593999997E+02  0.45594000000E+02  0.51100000000E-03 0. -1.
    9900012    2    1    2    0    0 -0.27738080208E+01  0.41145724061E+02  0.18123169745E+02  0.46142313180E+02  0.99999582283E+01 0.  0.
         12    1    1    2    0    0  0.27738080208E+01 -0.41145724061E+02 -0.18123169745E+02  0.45045686820E+02  0.00000000000E+00 0. -1.
         11    1    3    3    0    0  0.18031481312E+00  0.29979063886E+01  0.65606219844E-01  0.30040407094E+01  0.51100000000E-03 0. -1.
        -11    1    3    3    0    0 -0.50160730915E+01  0.29600589326E+02  0.11417866492E+02  0.32120453813E+02  0.51100000000E-03 0.  1.
        -12    1    3    3    0    0  0.20619502576E+01  0.85472283470E+01  0.66396970330E+01  0.11017818658E+02  0.00000000000E+00 0.  1.
</event>
<event>
 7    1  0.2312612E-008  0.4614232E+02  0.7816164E-02  0.1320468E+00
        -11   -1    0    0    0    0  0.00000000000E+00  0.00000000000E+00  0.45593999997E+02  0.45594000000E+02  0.51100000000E-03 0. -1.
         11   -1    0    0    0    0 -0.00000000000E+00 -0.00000000000E+00 -0.45593999997E+02  0.45594000000E+02  0.51100000000E-03 0.  1.
    9900012    2    1    2    0    0 -0.30073460943E+02 -0.43359878964E+01 -0.33255069227E+02  0.46142317927E+02  0.10000001509E+02 0.  0.
         12    1    1    2    0    0  0.30073460943E+02  0.43359878964E+01  0.33255069227E+02  0.45045682073E+02  0.00000000000E+00 0. -1.
         11    1    3    3    0    0 -0.36343889529E+01 -0.34813151657E+01 -0.33185437810E+01  0.60283556158E+01  0.51100000000E-03 0. -1.
        -11    1    3    3    0    0 -0.19926660356E+02 -0.58584306263E+00 -0.20064068150E+02  0.28283950149E+02  0.51100000000E-03 0.  1.
         12    1    3    3    0    0 -0.65124116349E+01 -0.26882966810E+00 -0.98724572957E+01  0.11830012162E+02  0.00000000000E+00 0. -1.
</event>
<event>
 7    1  0.2312612E-008  0.4614232E+02  0.7816164E-02  0.1320468E+00
        -11   -1    0    0    0    0  0.00000000000E+00  0.00000000000E+00  0.45593999997E+02  0.45594000000E+02  0.51100000000E-03 0. -1.
         11   -1    0    0    0    0 -0.00000000000E+00 -0.00000000000E+00 -0.45593999997E+02  0.45594000000E+02  0.51100000000E-03 0.  1.
    9900012    2    1    2    0    0 -0.35881744533E+02 -0.12699747643E+02  0.24090046791E+02  0.46142317240E+02  0.99999952445E+01 0.  0.
         12    1    1    2    0    0  0.35881744533E+02  0.12699747643E+02 -0.24090046791E+02  0.45045682760E+02  0.00000000000E+00 0. -1.
         11    1    3    3    0    0 -0.71481708358E+01 -0.50103111090E+01  0.65521698413E+01  0.10914691640E+02  0.51100000000E-03 0. -1.
        -11    1    3    3    0    0 -0.26236119530E+02 -0.88433496258E+01  0.15020128022E+02  0.31498302282E+02  0.51100000000E-03 0.  1.
        -12    1    3    3    0    0 -0.24974541677E+01  0.11539130920E+01  0.25177489276E+01  0.37293233174E+01  0.00000000000E+00 0.  1.
</event>
<event>
 7    1  0.2312612E-008  0.4614232E+02  0.7816164E-02  0.1320468E+00
        -11   -1    0    0    0    0  0.00000000000E+00  0.00000000000E+00  0.45593999997E+02  0.45594000000E+02  0.51100000000E-03 0.  1.
         11   -1    0    0    0    0 -0.00000000000E+00 -0.00000000000E+00 -0.45593999997E+02  0.45594000000E+02  0.51100000000E-03 0. -1.
    9900012    2    1    2    0    0  0.79313522774E+01 -0.23426007546E+01  0.44280009166E+02  0.46142319419E+02  0.10000015118E+02 0.  0.
         12    1    1    2    0    0 -0.79313522774E+01  0.23426007546E+01 -0.44280009166E+02  0.45045680581E+02  0.00000000000E+00 0. -1.
         11    1    3    3    0    0  0.28296454644E+01 -0.30383779023E+01  0.77438337577E+01  0.87866714551E+01  0.51100000000E-03 0. -1.
        -11    1    3    3    0    0  0.24377279094E+01 -0.23889511003E+01  0.21825824219E+02  0.22091088878E+02  0.51100000000E-03 0.  1.
         12    1    3    3    0    0  0.26639789036E+01  0.30847282481E+01  0.14710351190E+02  0.15264559086E+02  0.00000000000E+00 0. -1.
</event>
<event>
 7    1  0.2312612E-008  0.4614232E+02  0.7816164E-02  0.1320468E+00
        -11   -1    0    0    0    0  0.00000000000E+00  0.00000000000E+00  0.45593999997E+02  0.45594000000E+02  0.51100000000E-03 0.  1.
         11   -1    0    0    0    0 -0.00000000000E+00 -0.00000000000E+00 -0.45593999997E+02  0.45594000000E+02  0.51100000000E-03 0. -1.
    9900012    2    1    2    0    0  0.12718133882E+02 -0.41517225249E+02  0.11986765974E+02  0.46142317850E+02  0.10000000815E+02 0.  0.
         12    1    1    2    0    0 -0.12718133882E+02  0.41517225249E+02 -0.11986765974E+02  0.45045682150E+02  0.00000000000E+00 0. -1.
         11    1    3    3    0    0 -0.43423482733E+00 -0.13960613386E+00 -0.31297204951E+00  0.55317404384E+00  0.51100000000E-03 0. -1.
        -11    1    3    3    0    0  0.53498587809E+01 -0.17809709312E+02  0.19699710532E+01  0.18699933715E+02  0.51100000000E-03 0.  1.
        -12    1    3    3    0    0  0.78025099289E+01 -0.23567909803E+02  0.10329766970E+02  0.26889210091E+02  0.00000000000E+00 0.  1.
</event>
<event>
 7    1  0.2312612E-008  0.4614232E+02  0.7816164E-02  0.1320468E+00
        -11   -1    0    0    0    0  0.00000000000E+00  0.00000000000E+00  0.45593999997E+02  0.45594000000E+02  0.51100000000E-03 0. -1.
         11   -1    0    0    0    0 -0.00000000000E+00 -0.00000000000E+00 -0.45593999997E+02  0.45594000000E+02  0.51100000000E-03 0.  1.
    9900012    2    1    2    0    0 -0.23220067757E+02 -0.23003778750E+02 -0.30996259763E+02  0.46142317602E+02  0.99999985473E+01 0.  0.
         12    1    1    2    0    0  0.23220067757E+02  0.23003778750E+02  0.30996259763E+02  0.45045682398E+02  0.00000000000E+00 0. -1.
         11    1    3    3    0    0 -0.10062882526E+02 -0.82071929580E+01 -0.72679032470E+01  0.14880928696E+02  0.51100000000E-03 0.  1.
        -11    1    3    3    0    0 -0.28041658273E+01 -0.38499559318E+01 -0.90480806787E+01  0.10225129383E+02  0.51100000000E-03 0. -1.
        -12    1    3    3    0    0 -0.10353019404E+02 -0.10946629861E+02 -0.14680275837E+02  0.21036259523E+02  0.00000000000E+00 0.  1.
</event>
<event>
 7    1  0.2312612E-008  0.4614232E+02  0.7816164E-02  0.1320468E+00
        -11   -1    0    0    0    0  0.00000000000E+00  0.00000000000E+00  0.45593999997E+02  0.45594000000E+02  0.51100000000E-03 0. -1.
         11   -1    0    0    0    0 -0.00000000000E+00 -0.00000000000E+00 -0.45593999997E+02  0.45594000000E+02  0.51100000000E-03 0.  1.
    9900012    2    1    2    0    0  0.13442338500E+02  0.24317959176E+02 -0.35454955798E+02  0.46142317704E+02  0.99999994810E+01 0.  0.
         12    1    1    2    0    0 -0.13442338500E+02 -0.24317959176E+02  0.35454955798E+02  0.45045682296E+02  0.00000000000E+00 0. -1.
         11    1    3    3    0    0  0.20105161111E+01  0.26674389457E+00 -0.36834836614E+01  0.42049232434E+01  0.51100000000E-03 0. -1.
        -11    1    3    3    0    0  0.10955027239E+01  0.45425348166E+01 -0.94486409270E+01  0.10540947036E+02  0.51100000000E-03 0.  1.
         12    1    3    3    0    0  0.10336319665E+02  0.19508680465E+02 -0.22322831210E+02  0.31396447425E+02  0.00000000000E+00 0. -1.
</event>
<event>
 7    1  0.2312612E-008  0.4614232E+02  0.7816164E-02  0.1320468E+00
        -11   -1    0    0    0    0  0.00000000000E+00  0.00000000000E+00  0.45593999997E+02  0.45594000000E+02  0.51100000000E-03 0.  1.
         11   -1    0    0    0    0 -0.00000000000E+00 -0.00000000000E+00 -0.45593999997E+02  0.45594000000E+02  0.51100000000E-03 0. -1.
    9900012    2    1    2    0    0  0.16158424479E+02 -0.33266053130E+02  0.25717474349E+02  0.46142318083E+02  0.10000002939E+02 0.  0.
         12    1    1    2    0    0 -0.16158424479E+02  0.33266053130E+02 -0.25717474349E+02  0.45045681917E+02  0.00000000000E+00 0. -1.
         11    1    3    3    0    0  0.39861011268E+01 -0.21210198324E+01  0.32782794945E+01  0.55798605742E+01  0.51100000000E-03 0. -1.
        -11    1    3    3    0    0  0.40191939119E+01 -0.86879641913E+01  0.90591286373E+01  0.13179622658E+02  0.51100000000E-03 0.  1.
         12    1    3    3    0    0  0.81531294401E+01 -0.22457069106E+02  0.13380066217E+02  0.27382834851E+02  0.00000000000E+00 0. -1.
</event>
<event>
 7    1  0.2820547E-008  0.4614232E+02  0.7816164E-02  0.1320468E+00
        -11   -1    0    0    0    0  0.00000000000E+00  0.00000000000E+00  0.45593999997E+02  0.45594000000E+02  0.51100000000E-03 0.  1.
         11   -1    0    0    0    0 -0.00000000000E+00 -0.00000000000E+00 -0.45593999997E+02  0.45594000000E+02  0.51100000000E-03 0. -1.
    9900012    2    1    2    0    0 -0.12042100374E+02 -0.31234396465E+02  0.30141561315E+02  0.46142318493E+02  0.10000006672E+02 0.  0.
         12    1    1    2    0    0  0.12042100374E+02  0.31234396465E+02 -0.30141561315E+02  0.45045681507E+02  0.00000000000E+00 0. -1.
         11    1    3    3    0    0 -0.51467932188E+01 -0.13082026554E+02  0.15008051809E+02  0.20563815758E+02  0.51100000000E-03 0. -1.
        -11    1    3    3    0    0 -0.71874258168E+01 -0.18291644128E+02  0.15543050416E+02  0.25056531110E+02  0.51100000000E-03 0.  1.
         12    1    3    3    0    0  0.29211866191E+00  0.13927421641E+00 -0.40954090983E+00  0.52197162453E+00  0.00000000000E+00 0. -1.
</event>
<event>
 7    1  0.2312612E-008  0.4614232E+02  0.7816164E-02  0.1320468E+00
        -11   -1    0    0    0    0  0.00000000000E+00  0.00000000000E+00  0.45593999997E+02  0.45594000000E+02  0.51100000000E-03 0. -1.
         11   -1    0    0    0    0 -0.00000000000E+00 -0.00000000000E+00 -0.45593999997E+02  0.45594000000E+02  0.51100000000E-03 0.  1.
    9900012    2    1    2    0    0 -0.37956322229E+02  0.26134744159E+01 -0.24116400439E+02  0.46142318566E+02  0.10000007342E+02 0.  0.
         12    1    1    2    0    0  0.37956322229E+02 -0.26134744159E+01  0.24116400439E+02  0.45045681434E+02  0.00000000000E+00 0. -1.
         11    1    3    3    0    0 -0.28978654466E+02 -0.31849392463E+00 -0.14671461865E+02  0.32482543721E+02  0.51100000000E-03 0. -1.
        -11    1    3    3    0    0 -0.70002766457E+01  0.12666341774E+01 -0.57340495089E+01  0.91371526903E+01  0.51100000000E-03 0.  1.
         12    1    3    3    0    0 -0.19773911173E+01  0.16653341631E+01 -0.37108890648E+01  0.45226221550E+01  0.00000000000E+00 0. -1.
</event>
<event>
 7    1  0.2312612E-008  0.4614232E+02  0.7816164E-02  0.1320468E+00
        -11   -1    0    0    0    0  0.00000000000E+00  0.00000000000E+00  0.45593999997E+02  0.45594000000E+02  0.51100000000E-03 0.  1.
         11   -1    0    0    0    0 -0.00000000000E+00 -0.00000000000E+00 -0.45593999997E+02  0.45594000000E+02  0.51100000000E-03 0. -1.
    9900012    2    1    2    0    0 -0.35000411221E+02 -0.22533582937E+02  0.17214010655E+02  0.46142319759E+02  0.10000018214E+02 0.  0.
         12    1    1    2    0    0  0.35000411221E+02  0.22533582937E+02 -0.17214010655E+02  0.45045680241E+02  0.00000000000E+00 0. -1.
         11    1    3    3    0    0 -0.66359321537E+01 -0.31920398254E+01  0.26642936373E+01  0.78309114822E+01  0.51100000000E-03 0. -1.
        -11    1    3    3    0    0 -0.27502110237E+02 -0.19681130971E+02  0.15300187155E+02  0.37118845767E+02  0.51100000000E-03 0.  1.
        -12    1    3    3    0    0 -0.86236882964E+00  0.33958785924E+00 -0.75047013754E+00  0.11925625098E+01  0.00000000000E+00 0.  1.
</event>
<event>
 7    1  0.2312612E-008  0.4614232E+02  0.7816164E-02  0.1320468E+00
        -11   -1    0    0    0    0  0.00000000000E+00  0.00000000000E+00  0.45593999997E+02  0.45594000000E+02  0.51100000000E-03 0.  1.
         11   -1    0    0    0    0 -0.00000000000E+00 -0.00000000000E+00 -0.45593999997E+02  0.45594000000E+02  0.51100000000E-03 0. -1.
    9900012    2    1    2    0    0  0.41161933042E+02 -0.41047148625E+01  0.17831434875E+02  0.46142317792E+02  0.10000000284E+02 0.  0.
         12    1    1    2    0    0 -0.41161933042E+02  0.41047148625E+01 -0.17831434875E+02  0.45045682208E+02  0.00000000000E+00 0. -1.
         11    1    3    3    0    0  0.20033676260E+01  0.10371561294E+00  0.35941970437E+01  0.41161257784E+01  0.51100000000E-03 0. -1.
        -11    1    3    3    0    0  0.12537357876E+02  0.12272406692E-01  0.35422670264E+01  0.13028167525E+02  0.51100000000E-03 0.  1.
         12    1    3    3    0    0  0.26621207540E+02 -0.42207028821E+01  0.10694970805E+02  0.28998024488E+02  0.00000000000E+00 0. -1.
</event>
<event>
 7    1  0.2312612E-008  0.4614232E+02  0.7816164E-02  0.1320468E+00
        -11   -1    0    0    0    0  0.00000000000E+00  0.00000000000E+00  0.45593999997E+02  0.45594000000E+02  0.51100000000E-03 0. -1.
         11   -1    0    0    0    0 -0.00000000000E+00 -0.00000000000E+00 -0.45593999997E+02  0.45594000000E+02  0.51100000000E-03 0.  1.
    9900012    2    1    2    0    0 -0.43252211953E+02  0.12583201802E+01 -0.12521033508E+02  0.46142317758E+02  0.99999999729E+01 0.  0.
         12    1    1    2    0    0  0.43252211953E+02 -0.12583201802E+01  0.12521033508E+02  0.45045682242E+02  0.00000000000E+00 0. -1.
         11    1    3    3    0    0 -0.21525469580E+00 -0.10231824214E+00 -0.11287053449E+01  0.11535942196E+01  0.51100000000E-03 0. -1.
        -11    1    3    3    0    0 -0.99793506340E+01 -0.23564335534E+01 -0.24722503916E+01  0.10547617761E+02  0.51100000000E-03 0.  1.
        -12    1    3    3    0    0 -0.33057606624E+02  0.37170719757E+01 -0.89200777712E+01  0.34441105778E+02  0.00000000000E+00 0.  1.
</event>
<event>
 7    1  0.2312612E-008  0.4614232E+02  0.7816164E-02  0.1320468E+00
        -11   -1    0    0    0    0  0.00000000000E+00  0.00000000000E+00  0.45593999997E+02  0.45594000000E+02  0.51100000000E-03 0.  1.
         11   -1    0    0    0    0 -0.00000000000E+00 -0.00000000000E+00 -0.45593999997E+02  0.45594000000E+02  0.51100000000E-03 0. -1.
    9900012    2    1    2    0    0 -0.39566713701E+02  0.18584945809E+02  0.10871451899E+02  0.46142317519E+02  0.99999977925E+01 0.  0.
         12    1    1    2    0    0  0.39566713701E+02 -0.18584945809E+02 -0.10871451899E+02  0.45045682481E+02  0.00000000000E+00 0. -1.
         11    1    3    3    0    0 -0.11278037053E+02  0.32186579517E+01  0.34618051818E+00  0.11733444507E+02  0.51100000000E-03 0. -1.
        -11    1    3    3    0    0 -0.28538044074E+02  0.15340381325E+02  0.10679530179E+02  0.34114507528E+02  0.51100000000E-03 0.  1.
         12    1    3    3    0    0  0.24936742616E+00  0.25906531505E-01 -0.15425879817E+00  0.29436548441E+00  0.00000000000E+00 0. -1.
</event>
<event>
 7    1  0.2312612E-008  0.4614232E+02  0.7816164E-02  0.1320468E+00
        -11   -1    0    0    0    0  0.00000000000E+00  0.00000000000E+00  0.45593999997E+02  0.45594000000E+02  0.51100000000E-03 0. -1.
         11   -1    0    0    0    0 -0.00000000000E+00 -0.00000000000E+00 -0.45593999997E+02  0.45594000000E+02  0.51100000000E-03 0.  1.
    9900012    2    1    2    0    0  0.43462367062E+02 -0.89007983075E+01 -0.78046129315E+01  0.46142317142E+02  0.99999943570E+01 0.  0.
         12    1    1    2    0    0 -0.43462367062E+02  0.89007983075E+01  0.78046129315E+01  0.45045682858E+02  0.00000000000E+00 0. -1.
         11    1    3    3    0    0  0.10290067285E+02 -0.35384230405E+00 -0.42763987257E+01  0.11148913643E+02  0.51100000000E-03 0. -1.
        -11    1    3    3    0    0  0.29861957929E+02 -0.95490225532E+01 -0.30027269369E+01  0.31495027106E+02  0.51100000000E-03 0.  1.
        -12    1    3    3    0    0  0.33103418472E+01  0.10020665497E+01 -0.52548726894E+00  0.34983763928E+01  0.00000000000E+00 0.  1.
</event>
<event>
 7    1  0.2312612E-008  0.4614231E+02  0.7816164E-02  0.1320468E+00
        -11   -1    0    0    0    0  0.00000000000E+00  0.00000000000E+00  0.45593999997E+02  0.45594000000E+02  0.51100000000E-03 0. -1.
         11   -1    0    0    0    0 -0.00000000000E+00 -0.00000000000E+00 -0.45593999997E+02  0.45594000000E+02  0.51100000000E-03 0.  1.
    9900012    2    1    2    0    0  0.32391141053E+01  0.40895305438E+02  0.18606344769E+02  0.46142312829E+02  0.99999550274E+01 0.  0.
         12    1    1    2    0    0 -0.32391141053E+01 -0.40895305438E+02 -0.18606344769E+02  0.45045687171E+02  0.00000000000E+00 0. -1.
         11    1    3    3    0    0  0.18754590374E+01  0.21071515824E+02  0.66586281780E+01  0.22177994841E+02  0.51100000000E-03 0. -1.
        -11    1    3    3    0    0  0.61401638859E+00  0.16643669529E+02  0.12261927504E+02  0.20681963589E+02  0.51100000000E-03 0.  1.
         12    1    3    3    0    0  0.74963867936E+00  0.31801200844E+01 -0.31421091300E+00  0.32823543987E+01  0.00000000000E+00 0. -1.
</event>
<event>
 7    1  0.2312612E-008  0.4614232E+02  0.7816164E-02  0.1320468E+00
        -11   -1    0    0    0    0  0.00000000000E+00  0.00000000000E+00  0.45593999997E+02  0.45594000000E+02  0.51100000000E-03 0. -1.
         11   -1    0    0    0    0 -0.00000000000E+00 -0.00000000000E+00 -0.45593999997E+02  0.45594000000E+02  0.51100000000E-03 0.  1.
    9900012    2    1    2    0    0 -0.23223683979E+02  0.87069131582E+01 -0.37602705278E+02  0.46142320090E+02  0.10000021238E+02 0.  0.
         12    1    1    2    0    0  0.23223683979E+02 -0.87069131582E+01  0.37602705278E+02  0.45045679910E+02  0.00000000000E+00 0. -1.
         11    1    3    3    0    0 -0.56831384621E+01  0.31095018712E+01 -0.81692784037E+01  0.10426129414E+02  0.51100000000E-03 0.  1.
        -11    1    3    3    0    0 -0.14557498733E+02  0.17243208781E+01 -0.17552911591E+02  0.22869166085E+02  0.51100000000E-03 0. -1.
         12    1    3    3    0    0 -0.29830467842E+01  0.38730904089E+01 -0.11880515284E+02  0.12847024591E+02  0.00000000000E+00 0. -1.
</event>
<event>
 7    1  0.2312612E-008  0.4614232E+02  0.7816164E-02  0.1320468E+00
        -11   -1    0    0    0    0  0.00000000000E+00  0.00000000000E+00  0.45593999997E+02  0.45594000000E+02  0.51100000000E-03 0.  1.
         11   -1    0    0    0    0 -0.00000000000E+00 -0.00000000000E+00 -0.45593999997E+02  0.45594000000E+02  0.51100000000E-03 0. -1.
    9900012    2    1    2    0    0 -0.20335763597E+02  0.35340702454E+02 -0.19146932423E+02  0.46142317052E+02  0.99999935343E+01 0.  0.
         12    1    1    2    0    0  0.20335763597E+02 -0.35340702454E+02  0.19146932423E+02  0.45045682948E+02  0.00000000000E+00 0. -1.
         11    1    3    3    0    0 -0.13631995218E+02  0.21205311664E+02 -0.16206280672E+02  0.29968985132E+02  0.51100000000E-03 0. -1.
        -11    1    3    3    0    0 -0.15943884245E+01  0.31218641296E+01 -0.19014955146E+01  0.39879563118E+01  0.51100000000E-03 0.  1.
         12    1    3    3    0    0 -0.51093799549E+01  0.11013526660E+02 -0.10391562370E+01  0.12185375608E+02  0.00000000000E+00 0. -1.
</event>
<event>
 7    1  0.2312612E-008  0.4614231E+02  0.7816164E-02  0.1320468E+00
        -11   -1    0    0    0    0  0.00000000000E+00  0.00000000000E+00  0.45593999997E+02  0.45594000000E+02  0.51100000000E-03 0. -1.
         11   -1    0    0    0    0 -0.00000000000E+00 -0.00000000000E+00 -0.45593999997E+02  0.45594000000E+02  0.51100000000E-03 0.  1.
    9900012    2    1    2    0    0  0.99185572485E+01  0.47219883528E+01 -0.43685688135E+02  0.46142308756E+02  0.99999178797E+01 0.  0.
         12    1    1    2    0    0 -0.99185572485E+01 -0.47219883528E+01  0.43685688135E+02  0.45045691244E+02  0.00000000000E+00 0. -1.
         11    1    3    3    0    0  0.98541493414E+01  0.86058963163E+00 -0.22900174646E+02  0.24945197390E+02  0.51100000000E-03 0. -1.
        -11    1    3    3    0    0  0.51381104341E+00  0.17800954970E+01 -0.66954771671E+01  0.69470969853E+01  0.51100000000E-03 0.  1.
         12    1    3    3    0    0 -0.44940313633E+00  0.20813032242E+01 -0.14090036322E+02  0.14250014380E+02  0.00000000000E+00 0. -1.
</event>
<event>
 7    1  0.2312612E-008  0.4614232E+02  0.7816164E-02  0.1320468E+00
        -11   -1    0    0    0    0  0.00000000000E+00  0.00000000000E+00  0.45593999997E+02  0.45594000000E+02  0.51100000000E-03 0. -1.
         11   -1    0    0    0    0 -0.00000000000E+00 -0.00000000000E+00 -0.45593999997E+02  0.45594000000E+02  0.51100000000E-03 0.  1.
    9900012    2    1    2    0    0 -0.42791260610E+02 -0.13620477682E+02  0.35361192771E+01  0.46142317228E+02  0.99999951360E+01 0.  0.
         12    1    1    2    0    0  0.42791260610E+02  0.13620477682E+02 -0.35361192771E+01  0.45045682772E+02  0.00000000000E+00 0. -1.
         11    1    3    3    0    0 -0.58266050317E+01  0.14939125519E+01 -0.10984558779E+00  0.60160757327E+01  0.51100000000E-03 0. -1.
        -11    1    3    3    0    0 -0.16384870564E+02 -0.60122544751E+01  0.12995123328E+01  0.17501426223E+02  0.51100000000E-03 0.  1.
         12    1    3    3    0    0 -0.20579785014E+02 -0.91021357587E+01  0.23464525320E+01  0.22624815272E+02  0.00000000000E+00 0. -1.
</event>
<event>
 7    1  0.2312612E-008  0.4614232E+02  0.7816164E-02  0.1320468E+00
        -11   -1    0    0    0    0  0.00000000000E+00  0.00000000000E+00  0.45593999997E+02  0.45594000000E+02  0.51100000000E-03 0. -1.
         11   -1    0    0    0    0 -0.00000000000E+00 -0.00000000000E+00 -0.45593999997E+02  0.45594000000E+02  0.51100000000E-03 0.  1.
    9900012    2    1    2    0    0 -0.35267039063E+02 -0.14470817251E+02  0.23998851411E+02  0.46142318018E+02  0.10000002345E+02 0.  0.
         12    1    1    2    0    0  0.35267039063E+02  0.14470817251E+02 -0.23998851411E+02  0.45045681982E+02  0.00000000000E+00 0. -1.
         11    1    3    3    0    0 -0.11752725029E+01 -0.16239749529E+01  0.31612365572E+00  0.20294074333E+01  0.51100000000E-03 0. -1.
        -11    1    3    3    0    0 -0.23330646481E+02 -0.12455000445E+02  0.16998971804E+02  0.31439006727E+02  0.51100000000E-03 0.  1.
        -12    1    3    3    0    0 -0.10761120079E+02 -0.39184185267E+00  0.66837559512E+01  0.12673903858E+02  0.00000000000E+00 0.  1.
</event>
<event>
 7    1  0.2312612E-008  0.4614232E+02  0.7816164E-02  0.1320468E+00
        -11   -1    0    0    0    0  0.00000000000E+00  0.00000000000E+00  0.45593999997E+02  0.45594000000E+02  0.51100000000E-03 0. -1.
         11   -1    0    0    0    0 -0.00000000000E+00 -0.00000000000E+00 -0.45593999997E+02  0.45594000000E+02  0.51100000000E-03 0.  1.
    9900012    2    1    2    0    0 -0.30507667983E+02  0.13395071892E+01 -0.33114971487E+02  0.46142318499E+02  0.10000006733E+02 0.  0.
         12    1    1    2    0    0  0.30507667983E+02 -0.13395071892E+01  0.33114971487E+02  0.45045681501E+02  0.00000000000E+00 0. -1.
         11    1    3    3    0    0 -0.82631966240E+01  0.22269920644E+01 -0.10979423566E+02  0.13920763421E+02  0.51100000000E-03 0. -1.
        -11    1    3    3    0    0 -0.11212945322E+01 -0.10372420229E+01 -0.43403076647E+01  0.46012436718E+01  0.51100000000E-03 0.  1.
         12    1    3    3    0    0 -0.21123176827E+02  0.14975714767E+00 -0.17795240256E+02  0.27620311407E+02  0.00000000000E+00 0. -1.
</event>
<event>
 7    1  0.2312612E-008  0.4614232E+02  0.7816164E-02  0.1320468E+00
        -11   -1    0    0    0    0  0.00000000000E+00  0.00000000000E+00  0.45593999997E+02  0.45594000000E+02  0.51100000000E-03 0.  1.
         11   -1    0    0    0    0 -0.00000000000E+00 -0.00000000000E+00 -0.45593999997E+02  0.45594000000E+02  0.51100000000E-03 0. -1.
    9900012    2    1    2    0    0 -0.41259831537E+02 -0.14314430734E+02  0.11037974512E+02  0.46142317554E+02  0.99999981153E+01 0.  0.
         12    1    1    2    0    0  0.41259831537E+02  0.14314430734E+02 -0.11037974512E+02  0.45045682446E+02  0.00000000000E+00 0. -1.
         11    1    3    3    0    0 -0.91884250843E+01 -0.36999303020E+01  0.39801627202E+01  0.10675126946E+02  0.51100000000E-03 0. -1.
        -11    1    3    3    0    0 -0.18589588979E+02 -0.41168351676E+01  0.75770331951E+01  0.20492256648E+02  0.51100000000E-03 0.  1.
        -12    1    3    3    0    0 -0.13481817473E+02 -0.64976652644E+01 -0.51922140385E+00  0.14974933961E+02  0.00000000000E+00 0.  1.
</event>
<event>
 7    1  0.2312612E-008  0.4614232E+02  0.7816164E-02  0.1320468E+00
        -11   -1    0    0    0    0  0.00000000000E+00  0.00000000000E+00  0.45593999997E+02  0.45594000000E+02  0.51100000000E-03 0.  1.
         11   -1    0    0    0    0 -0.00000000000E+00 -0.00000000000E+00 -0.45593999997E+02  0.45594000000E+02  0.51100000000E-03 0. -1.
    9900012    2    1    2    0    0 -0.29504867682E+02  0.16373567104E+02  0.29840956186E+02  0.46142316714E+02  0.99999904482E+01 0.  0.
         12    1    1    2    0    0  0.29504867682E+02 -0.16373567104E+02 -0.29840956186E+02  0.45045683286E+02  0.00000000000E+00 0. -1.
         11    1    3    3    0    0 -0.90274328074E+01  0.50849015701E+01  0.72038135947E+01  0.12619258997E+02  0.51100000000E-03 0. -1.
        -11    1    3    3    0    0 -0.16385596601E+02  0.84532534529E+01  0.21669028412E+02  0.28451573989E+02  0.51100000000E-03 0.  1.
        -12    1    3    3    0    0 -0.40918382738E+01  0.28354120811E+01  0.96811417927E+00  0.50714837269E+01  0.00000000000E+00 0.  1.
</event>
<event>
 7    1  0.2312612E-008  0.4614232E+02  0.7816164E-02  0.1320468E+00
        -11   -1    0    0    0    0  0.00000000000E+00  0.00000000000E+00  0.45593999997E+02  0.45594000000E+02  0.51100000000E-03 0. -1.
         11   -1    0    0    0    0 -0.00000000000E+00 -0.00000000000E+00 -0.45593999997E+02  0.45594000000E+02  0.51100000000E-03 0.  1.
    9900012    2    1    2    0    0 -0.38298059358E+02 -0.85297421710E+01 -0.22127259741E+02  0.46142317902E+02  0.10000001281E+02 0.  0.
         12    1    1    2    0    0  0.38298059358E+02  0.85297421710E+01  0.22127259741E+02  0.45045682098E+02  0.00000000000E+00 0. -1.
         11    1    3    3    0    0 -0.65787620273E+01 -0.21417441826E+01 -0.13218256833E+01  0.70437490978E+01  0.51100000000E-03 0. -1.
        -11    1    3    3    0    0 -0.16118858381E+02 -0.68007288494E+01 -0.11244153491E+02  0.20796598192E+02  0.51100000000E-03 0.  1.
        -12    1    3    3    0    0 -0.15600438950E+02  0.41273086099E+00 -0.95612805669E+01  0.18301970612E+02  0.00000000000E+00 0.  1.
</event>
<event>
 7    1  0.2312612E-008  0.4614232E+02  0.7816164E-02  0.1320468E+00
        -11   -1    0    0    0    0  0.00000000000E+00  0.00000000000E+00  0.45593999997E+02  0.45594000000E+02  0.51100000000E-03 0.  1.
         11   -1    0    0    0    0 -0.00000000000E+00 -0.00000000000E+00 -0.45593999997E+02  0.45594000000E+02  0.51100000000E-03 0. -1.
    9900012    2    1    2    0    0  0.33399372440E+02  0.12696049851E+02  0.27430016123E+02  0.46142317125E+02  0.99999941957E+01 0.  0.
         12    1    1    2    0    0 -0.33399372440E+02 -0.12696049851E+02 -0.27430016123E+02  0.45045682875E+02  0.00000000000E+00 0. -1.
         11    1    3    3    0    0  0.14344978873E+02  0.31332600279E+01  0.95008714687E+01  0.17488919240E+02  0.51100000000E-03 0.  1.
        -11    1    3    3    0    0  0.11427468073E+02  0.76391168951E+01  0.14770827507E+02  0.20177226742E+02  0.51100000000E-03 0. -1.
         12    1    3    3    0    0  0.76269254943E+01  0.19236729277E+01  0.31583171469E+01  0.84761711420E+01  0.00000000000E+00 0. -1.
</event>
<event>
 7    1  0.2312612E-008  0.4614232E+02  0.7816164E-02  0.1320468E+00
        -11   -1    0    0    0    0  0.00000000000E+00  0.00000000000E+00  0.45593999997E+02  0.45594000000E+02  0.51100000000E-03 0. -1.
         11   -1    0    0    0    0 -0.00000000000E+00 -0.00000000000E+00 -0.45593999997E+02  0.45594000000E+02  0.51100000000E-03 0.  1.
    9900012    2    1    2    0    0 -0.33193017924E+02  0.17925219811E+02 -0.24617546173E+02  0.46142317369E+02  0.99999964244E+01 0.  0.
         12    1    1    2    0    0  0.33193017924E+02 -0.17925219811E+02  0.24617546173E+02  0.45045682631E+02  0.00000000000E+00 0. -1.
         11    1    3    3    0    0 -0.79682114124E+01  0.28580665326E+01 -0.27268357279E+01  0.88936252881E+01  0.51100000000E-03 0.  1.
        -11    1    3    3    0    0 -0.85328731631E+01  0.60089137815E+01 -0.40588376147E+01  0.11197818193E+02  0.51100000000E-03 0. -1.
        -12    1    3    3    0    0 -0.16691933348E+02  0.90582394966E+01 -0.17831872830E+02  0.26050873887E+02  0.00000000000E+00 0.  1.
</event>
<event>
 7    1  0.2312612E-008  0.4614232E+02  0.7816164E-02  0.1320468E+00
        -11   -1    0    0    0    0  0.00000000000E+00  0.00000000000E+00  0.45593999997E+02  0.45594000000E+02  0.51100000000E-03 0.  1.
         11   -1    0    0    0    0 -0.00000000000E+00 -0.00000000000E+00 -0.45593999997E+02  0.45594000000E+02  0.51100000000E-03 0. -1.
    9900012    2    1    2    0    0  0.17973021795E+02  0.11123206242E+01  0.41289791724E+02  0.46142315743E+02  0.99999815971E+01 0.  0.
         12    1    1    2    0    0 -0.17973021795E+02 -0.11123206242E+01 -0.41289791724E+02  0.45045684257E+02  0.00000000000E+00 0. -1.
         11    1    3    3    0    0  0.75759022877E+00 -0.20108734919E+01  0.18111315460E+01  0.28102940937E+01  0.51100000000E-03 0. -1.
        -11    1    3    3    0    0  0.30403577144E+01 -0.82080447471E+00  0.70990976561E+01  0.77662528165E+01  0.51100000000E-03 0.  1.
        -12    1    3    3    0    0  0.14175073851E+02  0.39439985909E+01  0.32379562522E+02  0.35565768833E+02  0.00000000000E+00 0.  1.
</event>
<event>
 7    1  0.2312612E-008  0.4614232E+02  0.7816164E-02  0.1320468E+00
        -11   -1    0    0    0    0  0.00000000000E+00  0.00000000000E+00  0.45593999997E+02  0.45594000000E+02  0.51100000000E-03 0.  1.
         11   -1    0    0    0    0 -0.00000000000E+00 -0.00000000000E+00 -0.45593999997E+02  0.45594000000E+02  0.51100000000E-03 0. -1.
    9900012    2    1    2    0    0 -0.20454187302E+02  0.19973776888E+02  0.34810745118E+02  0.46142317443E+02  0.99999971017E+01 0.  0.
         12    1    1    2    0    0  0.20454187302E+02 -0.19973776888E+02 -0.34810745118E+02  0.45045682557E+02  0.00000000000E+00 0. -1.
         11    1    3    3    0    0 -0.12207214274E+02  0.14345973626E+02  0.28102402910E+02  0.33831465963E+02  0.51100000000E-03 0. -1.
        -11    1    3    3    0    0 -0.60022471176E+00  0.13449479015E+01  0.15634035312E+01  0.21478792854E+01  0.51100000000E-03 0.  1.
         12    1    3    3    0    0 -0.76467483164E+01  0.42828553602E+01  0.51449386760E+01  0.10162972195E+02  0.00000000000E+00 0. -1.
</event>
<event>
 7    1  0.2312612E-008  0.4614232E+02  0.7816164E-02  0.1320468E+00
        -11   -1    0    0    0    0  0.00000000000E+00  0.00000000000E+00  0.45593999997E+02  0.45594000000E+02  0.51100000000E-03 0.  1.
         11   -1    0    0    0    0 -0.00000000000E+00 -0.00000000000E+00 -0.45593999997E+02  0.45594000000E+02  0.51100000000E-03 0. -1.
    9900012    2    1    2    0    0 -0.16810014436E+01  0.43624366484E+02  0.11099663993E+02  0.46142315881E+02  0.99999828587E+01 0.  0.
         12    1    1    2    0    0  0.16810014436E+01 -0.43624366484E+02 -0.11099663993E+02  0.45045684119E+02  0.00000000000E+00 0. -1.
         11    1    3    3    0    0  0.17545936297E+01  0.17485637784E+02  0.75731553780E+01  0.19135799177E+02  0.51100000000E-03 0. -1.
        -11    1    3    3    0    0 -0.32062357309E+01  0.86939397906E+01  0.21050467875E+01  0.95024080571E+01  0.51100000000E-03 0.  1.
         12    1    3    3    0    0 -0.22935934230E+00  0.17444788909E+02  0.14214618276E+01  0.17504108647E+02  0.00000000000E+00 0. -1.
</event>
<event>
 7    1  0.2312612E-008  0.4614232E+02  0.7816164E-02  0.1320468E+00
        -11   -1    0    0    0    0  0.00000000000E+00  0.00000000000E+00  0.45593999997E+02  0.45594000000E+02  0.51100000000E-03 0. -1.
         11   -1    0    0    0    0 -0.00000000000E+00 -0.00000000000E+00 -0.45593999997E+02  0.45594000000E+02  0.51100000000E-03 0.  1.
    9900012    2    1    2    0    0 -0.18604196657E+02 -0.31582247195E+02 -0.26183182989E+02  0.46142317159E+02  0.99999945077E+01 0.  0.
         12    1    1    2    0    0  0.18604196657E+02  0.31582247195E+02  0.26183182989E+02  0.45045682841E+02  0.00000000000E+00 0. -1.
         11    1    3    3    0    0 -0.16701042942E+01 -0.74591423489E+01 -0.54114206176E+01  0.93654431981E+01  0.51100000000E-03 0. -1.
        -11    1    3    3    0    0 -0.11788515111E+02 -0.20830852080E+02 -0.14319383366E+02  0.27891544008E+02  0.51100000000E-03 0.  1.
         12    1    3    3    0    0 -0.51455772515E+01 -0.32922527662E+01 -0.64523790058E+01  0.88853299524E+01  0.00000000000E+00 0. -1.
</event>
<event>
 7    1  0.2312612E-008  0.4614232E+02  0.7816164E-02  0.1320468E+00
        -11   -1    0    0    0    0  0.00000000000E+00  0.00000000000E+00  0.45593999997E+02  0.45594000000E+02  0.51100000000E-03 0.  1.
         11   -1    0    0    0    0 -0.00000000000E+00 -0.00000000000E+00 -0.45593999997E+02  0.45594000000E+02  0.51100000000E-03 0. -1.
    9900012    2    1    2    0    0  0.15553321339E+02 -0.35759789775E+02  0.22548725346E+02  0.46142318918E+02  0.10000010547E+02 0.  0.
         12    1    1    2    0    0 -0.15553321339E+02  0.35759789775E+02 -0.22548725346E+02  0.45045681082E+02  0.00000000000E+00 0. -1.
         11    1    3    3    0    0  0.10547785998E+02 -0.14194675886E+02  0.10954859144E+02  0.20802729438E+02  0.51100000000E-03 0. -1.
        -11    1    3    3    0    0  0.17224743592E+01 -0.34710108832E+01  0.35950600323E+01  0.52857630827E+01  0.51100000000E-03 0.  1.
        -12    1    3    3    0    0  0.32830609824E+01 -0.18094103006E+02  0.79988061697E+01  0.20053826397E+02  0.00000000000E+00 0.  1.
</event>
<event>
 7    1  0.2312612E-008  0.4614232E+02  0.7816164E-02  0.1320468E+00
        -11   -1    0    0    0    0  0.00000000000E+00  0.00000000000E+00  0.45593999997E+02  0.45594000000E+02  0.51100000000E-03 0.  1.
         11   -1    0    0    0    0 -0.00000000000E+00 -0.00000000000E+00 -0.45593999997E+02  0.45594000000E+02  0.51100000000E-03 0. -1.
    9900012    2    1    2    0    0 -0.41179052125E+01 -0.13482602763E+02  0.42782889006E+02  0.46142319716E+02  0.10000017825E+02 0.  0.
         12    1    1    2    0    0  0.41179052125E+01  0.13482602763E+02 -0.42782889006E+02  0.45045680284E+02  0.00000000000E+00 0. -1.
         11    1    3    3    0    0 -0.85358190318E+00  0.14634827487E+01  0.59514013440E+01  0.61878560132E+01  0.51100000000E-03 0. -1.
        -11    1    3    3    0    0 -0.30053981191E+01 -0.12090085785E+02  0.27455942485E+02  0.30150147100E+02  0.51100000000E-03 0.  1.
         12    1    3    3    0    0 -0.25892519015E+00 -0.28559997268E+01  0.93755451764E+01  0.98043166028E+01  0.00000000000E+00 0. -1.
</event>
<event>
 7    1  0.2312612E-008  0.4614232E+02  0.7816164E-02  0.1320468E+00
        -11   -1    0    0    0    0  0.00000000000E+00  0.00000000000E+00  0.45593999997E+02  0.45594000000E+02  0.51100000000E-03 0.  1.
         11   -1    0    0    0    0 -0.00000000000E+00 -0.00000000000E+00 -0.45593999997E+02  0.45594000000E+02  0.51100000000E-03 0. -1.
    9900012    2    1    2    0    0 -0.17300406632E+02  0.27142657166E+02  0.31513257985E+02  0.46142319447E+02  0.10000015369E+02 0.  0.
         12    1    1    2    0    0  0.17300406632E+02 -0.27142657166E+02 -0.31513257985E+02  0.45045680553E+02  0.00000000000E+00 0. -1.
         11    1    3    3    0    0 -0.16284665192E+01  0.76215897344E+01  0.76146876069E+01  0.10896054373E+02  0.51100000000E-03 0. -1.
        -11    1    3    3    0    0 -0.53257393562E+01  0.37356218704E+01  0.32514632391E+01  0.72725775283E+01  0.51100000000E-03 0.  1.
         12    1    3    3    0    0 -0.10346200757E+02  0.15785445562E+02  0.20647107139E+02  0.27973687545E+02  0.00000000000E+00 0. -1.
</event>
<event>
 7    1  0.2312612E-008  0.4614232E+02  0.7816164E-02  0.1320468E+00
        -11   -1    0    0    0    0  0.00000000000E+00  0.00000000000E+00  0.45593999997E+02  0.45594000000E+02  0.51100000000E-03 0. -1.
         11   -1    0    0    0    0 -0.00000000000E+00 -0.00000000000E+00 -0.45593999997E+02  0.45594000000E+02  0.51100000000E-03 0.  1.
    9900012    2    1    2    0    0 -0.11991862754E+02  0.36190807927E+02 -0.23990292474E+02  0.46142317813E+02  0.10000000474E+02 0.  0.
         12    1    1    2    0    0  0.11991862754E+02 -0.36190807927E+02  0.23990292474E+02  0.45045682187E+02  0.00000000000E+00 0. -1.
         11    1    3    3    0    0 -0.42156121503E+01  0.20300631751E+02 -0.15098593962E+02  0.25648675895E+02  0.51100000000E-03 0.  1.
        -11    1    3    3    0    0 -0.19545304271E+01  0.22058546484E+01  0.37585200225E+00  0.29710686476E+01  0.51100000000E-03 0. -1.
         12    1    3    3    0    0 -0.58217201766E+01  0.13684321528E+02 -0.92675505140E+01  0.17522573271E+02  0.00000000000E+00 0. -1.
</event>
<event>
 7    1  0.2312612E-008  0.4614232E+02  0.7816164E-02  0.1320468E+00
        -11   -1    0    0    0    0  0.00000000000E+00  0.00000000000E+00  0.45593999997E+02  0.45594000000E+02  0.51100000000E-03 0.  1.
         11   -1    0    0    0    0 -0.00000000000E+00 -0.00000000000E+00 -0.45593999997E+02  0.45594000000E+02  0.51100000000E-03 0. -1.
    9900012    2    1    2    0    0 -0.11262010143E+02  0.12720223655E+01  0.43596589225E+02  0.46142317572E+02  0.99999982734E+01 0.  0.
         12    1    1    2    0    0  0.11262010143E+02 -0.12720223655E+01 -0.43596589225E+02  0.45045682428E+02  0.00000000000E+00 0. -1.
         11    1    3    3    0    0 -0.58444296191E+01  0.17252967612E+01  0.14280856984E+02  0.15526650732E+02  0.51100000000E-03 0. -1.
        -11    1    3    3    0    0 -0.16328752651E+00  0.25989527490E+01  0.64381838758E+01  0.69448851746E+01  0.51100000000E-03 0.  1.
        -12    1    3    3    0    0 -0.52542929972E+01 -0.30522271447E+01  0.22877548366E+02  0.23670781666E+02  0.00000000000E+00 0.  1.
</event>
<event>
 7    1  0.2312612E-008  0.4614232E+02  0.7816164E-02  0.1320468E+00
        -11   -1    0    0    0    0  0.00000000000E+00  0.00000000000E+00  0.45593999997E+02  0.45594000000E+02  0.51100000000E-03 0.  1.
         11   -1    0    0    0    0 -0.00000000000E+00 -0.00000000000E+00 -0.45593999997E+02  0.45594000000E+02  0.51100000000E-03 0. -1.
    9900012    2    1    2    0    0 -0.19387496834E+02 -0.40641420185E+02 -0.12302967613E+01  0.46142315431E+02  0.99999787533E+01 0.  0.
         12    1    1    2    0    0  0.19387496834E+02  0.40641420185E+02  0.12302967613E+01  0.45045684569E+02  0.00000000000E+00 0. -1.
         11    1    3    3    0    0 -0.11972387236E+02 -0.23619853271E+02 -0.19251005152E+01  0.26550735148E+02  0.51100000000E-03 0.  1.
        -11    1    3    3    0    0 -0.15650650101E+00 -0.29250821241E+01 -0.19472215265E+01  0.35174240080E+01  0.51100000000E-03 0. -1.
         12    1    3    3    0    0 -0.72586030972E+01 -0.14096484790E+02  0.26420252805E+01  0.16074156275E+02  0.00000000000E+00 0. -1.
</event>
<event>
 7    1  0.2312612E-008  0.4614232E+02  0.7816164E-02  0.1320468E+00
        -11   -1    0    0    0    0  0.00000000000E+00  0.00000000000E+00  0.45593999997E+02  0.45594000000E+02  0.51100000000E-03 0.  1.
         11   -1    0    0    0    0 -0.00000000000E+00 -0.00000000000E+00 -0.45593999997E+02  0.45594000000E+02  0.51100000000E-03 0. -1.
    9900012    2    1    2    0    0 -0.13184101551E+02  0.21440903725E+02  0.37357471095E+02  0.46142317267E+02  0.99999954960E+01 0.  0.
         12    1    1    2    0    0  0.13184101551E+02 -0.21440903725E+02 -0.37357471095E+02  0.45045682733E+02  0.00000000000E+00 0. -1.
         11    1    3    3    0    0  0.43203422863E-01 -0.34700083246E+00  0.33232425072E+00  0.48240624189E+00  0.51100000000E-03 0. -1.
        -11    1    3    3    0    0 -0.20740122417E+01  0.32509890712E+01  0.16506622219E+01  0.41946564522E+01  0.51100000000E-03 0.  1.
        -12    1    3    3    0    0 -0.11153292732E+02  0.18536915486E+02  0.35374484623E+02  0.41465254573E+02  0.00000000000E+00 0.  1.
</event>
<event>
 7    1  0.2312612E-008  0.4614232E+02  0.7816164E-02  0.1320468E+00
        -11   -1    0    0    0    0  0.00000000000E+00  0.00000000000E+00  0.45593999997E+02  0.45594000000E+02  0.51100000000E-03 0. -1.
         11   -1    0    0    0    0 -0.00000000000E+00 -0.00000000000E+00 -0.45593999997E+02  0.45594000000E+02  0.51100000000E-03 0.  1.
    9900012    2    1    2    0    0 -0.32259768381E+01  0.43837999720E+02  0.98456178334E+01  0.46142319446E+02  0.10000015368E+02 0.  0.
         12    1    1    2    0    0  0.32259768381E+01 -0.43837999720E+02 -0.98456178334E+01  0.45045680554E+02  0.00000000000E+00 0. -1.
         11    1    3    3    0    0 -0.24060206171E+01  0.13789657062E+02  0.20176369817E+01  0.14142646017E+02  0.51100000000E-03 0. -1.
        -11    1    3    3    0    0 -0.11904704812E+01  0.12462603326E+02 -0.51884839676E+00  0.12530080029E+02  0.51100000000E-03 0.  1.
        -12    1    3    3    0    0  0.37051426019E+00  0.17585739332E+02  0.83468292484E+01  0.19469593401E+02  0.00000000000E+00 0.  1.
</event>
<event>
 7    1  0.2312612E-008  0.4614232E+02  0.7816164E-02  0.1320468E+00
        -11   -1    0    0    0    0  0.00000000000E+00  0.00000000000E+00  0.45593999997E+02  0.45594000000E+02  0.51100000000E-03 0.  1.
         11   -1    0    0    0    0 -0.00000000000E+00 -0.00000000000E+00 -0.45593999997E+02  0.45594000000E+02  0.51100000000E-03 0. -1.
    9900012    2    1    2    0    0  0.81494795192E+01 -0.20279271838E+02  0.39388458032E+02  0.46142317534E+02  0.99999979248E+01 0.  0.
         12    1    1    2    0    0 -0.81494795192E+01  0.20279271838E+02 -0.39388458032E+02  0.45045682466E+02  0.00000000000E+00 0. -1.
         11    1    3    3    0    0  0.12392853710E+00 -0.70794740069E+01  0.10365507893E+02  0.12553010182E+02  0.51100000000E-03 0. -1.
        -11    1    3    3    0    0  0.14320061912E+01  0.84286209527E-01  0.65140108894E+00  0.15754585163E+01  0.51100000000E-03 0.  1.
        -12    1    3    3    0    0  0.65935447909E+01 -0.13284084040E+02  0.28371549051E+02  0.32013848835E+02  0.00000000000E+00 0.  1.
</event>
<event>
 7    1  0.2312612E-008  0.4614232E+02  0.7816164E-02  0.1320468E+00
        -11   -1    0    0    0    0  0.00000000000E+00  0.00000000000E+00  0.45593999997E+02  0.45594000000E+02  0.51100000000E-03 0. -1.
         11   -1    0    0    0    0 -0.00000000000E+00 -0.00000000000E+00 -0.45593999997E+02  0.45594000000E+02  0.51100000000E-03 0.  1.
    9900012    2    1    2    0    0  0.26675220286E+01  0.41713585404E+02 -0.16792100121E+02  0.46142317548E+02  0.99999980591E+01 0.  0.
         12    1    1    2    0    0 -0.26675220286E+01 -0.41713585404E+02  0.16792100121E+02  0.45045682452E+02  0.00000000000E+00 0. -1.
         11    1    3    3    0    0  0.33332405138E+01  0.94788321554E+01 -0.21505277292E+01  0.10275384233E+02  0.51100000000E-03 0. -1.
        -11    1    3    3    0    0  0.71570181088E+00  0.29876090813E+02 -0.12496048628E+02  0.32392040117E+02  0.51100000000E-03 0.  1.
        -12    1    3    3    0    0 -0.13814202961E+01  0.23586624356E+01 -0.21455237638E+01  0.34748931985E+01  0.00000000000E+00 0.  1.
</event>
<event>
 7    1  0.2312612E-008  0.4614231E+02  0.7816164E-02  0.1320468E+00
        -11   -1    0    0    0    0  0.00000000000E+00  0.00000000000E+00  0.45593999997E+02  0.45594000000E+02  0.51100000000E-03 0.  1.
         11   -1    0    0    0    0 -0.00000000000E+00 -0.00000000000E+00 -0.45593999997E+02  0.45594000000E+02  0.51100000000E-03 0. -1.
    9900012    2    1    2    0    0 -0.41981153289E+02  0.11090969476E+02 -0.11986983988E+02  0.46142305194E+02  0.99998854052E+01 0.  0.
         12    1    1    2    0    0  0.41981153289E+02 -0.11090969476E+02  0.11986983988E+02  0.45045694806E+02  0.00000000000E+00 0. -1.
         11    1    3    3    0    0 -0.52404542213E+01  0.17505670253E+01 -0.36608416443E+01  0.66278659583E+01  0.51100000000E-03 0. -1.
        -11    1    3    3    0    0 -0.22526257500E+02  0.94050298516E+01 -0.50733539782E+01  0.24932424357E+02  0.51100000000E-03 0.  1.
        -12    1    3    3    0    0 -0.14214441568E+02 -0.64627400390E-01 -0.32527883650E+01  0.14582014879E+02  0.00000000000E+00 0.  1.
</event>
<event>
 7    1  0.2312612E-008  0.4614232E+02  0.7816164E-02  0.1320468E+00
        -11   -1    0    0    0    0  0.00000000000E+00  0.00000000000E+00  0.45593999997E+02  0.45594000000E+02  0.51100000000E-03 0.  1.
         11   -1    0    0    0    0 -0.00000000000E+00 -0.00000000000E+00 -0.45593999997E+02  0.45594000000E+02  0.51100000000E-03 0. -1.
    9900012    2    1    2    0    0 -0.13692771737E+02  0.24511282415E+02  0.35225254953E+02  0.46142317078E+02  0.99999937664E+01 0.  0.
         12    1    1    2    0    0  0.13692771737E+02 -0.24511282415E+02 -0.35225254953E+02  0.45045682922E+02  0.00000000000E+00 0. -1.
         11    1    3    3    0    0 -0.41541870201E+01  0.26642092502E+01  0.32478268354E+01  0.59079319682E+01  0.51100000000E-03 0. -1.
        -11    1    3    3    0    0  0.38112326815E+00  0.21030451754E+01  0.44433806485E+01  0.49306881674E+01  0.51100000000E-03 0.  1.
        -12    1    3    3    0    0 -0.99197079846E+01  0.19744027990E+02  0.27534047469E+02  0.35303696942E+02  0.00000000000E+00 0.  1.
</event>
<event>
 7    1  0.2312612E-008  0.4614232E+02  0.7816164E-02  0.1320468E+00
        -11   -1    0    0    0    0  0.00000000000E+00  0.00000000000E+00  0.45593999997E+02  0.45594000000E+02  0.51100000000E-03 0.  1.
         11   -1    0    0    0    0 -0.00000000000E+00 -0.00000000000E+00 -0.45593999997E+02  0.45594000000E+02  0.51100000000E-03 0. -1.
    9900012    2    1    2    0    0 -0.26098919546E+02 -0.12705540871E+01  0.36692582288E+02  0.46142317586E+02  0.99999984063E+01 0.  0.
         12    1    1    2    0    0  0.26098919546E+02  0.12705540871E+01 -0.36692582288E+02  0.45045682414E+02  0.00000000000E+00 0. -1.
         11    1    3    3    0    0 -0.12057153310E+02 -0.10767146917E+00  0.17179222160E+02  0.20988382819E+02  0.51100000000E-03 0.  1.
        -11    1    3    3    0    0 -0.13680461784E+02 -0.15768442499E+01  0.14087167803E+02  0.19699994147E+02  0.51100000000E-03 0. -1.
         12    1    3    3    0    0 -0.36130445181E+00  0.41396163202E+00  0.54261923252E+01  0.54539406203E+01  0.00000000000E+00 0. -1.
</event>
<event>
 7    1  0.2312612E-008  0.4614233E+02  0.7816164E-02  0.1320468E+00
        -11   -1    0    0    0    0  0.00000000000E+00  0.00000000000E+00  0.45593999997E+02  0.45594000000E+02  0.51100000000E-03 0.  1.
         11   -1    0    0    0    0 -0.00000000000E+00 -0.00000000000E+00 -0.45593999997E+02  0.45594000000E+02  0.51100000000E-03 0. -1.
    9900012    2    1    2    0    0 -0.10504476823E+02 -0.32286784660E+02  0.29602905439E+02  0.46142328649E+02  0.10000099286E+02 0.  0.
         12    1    1    2    0    0  0.10504476823E+02  0.32286784660E+02 -0.29602905439E+02  0.45045671351E+02  0.00000000000E+00 0. -1.
         11    1    3    3    0    0 -0.22797285617E+01 -0.72935654269E+01  0.10908085043E+02  0.13318392490E+02  0.51100000000E-03 0. -1.
        -11    1    3    3    0    0 -0.51571011749E+01 -0.84869876505E+01  0.47959162089E+01  0.11028393557E+02  0.51100000000E-03 0.  1.
         12    1    3    3    0    0 -0.30676470863E+01 -0.16506231583E+02  0.13898904187E+02  0.21795542602E+02  0.00000000000E+00 0. -1.
</event>
<event>
 7    1  0.2312612E-008  0.4614232E+02  0.7816164E-02  0.1320468E+00
        -11   -1    0    0    0    0  0.00000000000E+00  0.00000000000E+00  0.45593999997E+02  0.45594000000E+02  0.51100000000E-03 0. -1.
         11   -1    0    0    0    0 -0.00000000000E+00 -0.00000000000E+00 -0.45593999997E+02  0.45594000000E+02  0.51100000000E-03 0.  1.
    9900012    2    1    2    0    0  0.69880546153E+01 -0.37002640297E+02 -0.24720137093E+02  0.46142317919E+02  0.10000001436E+02 0.  0.
         12    1    1    2    0    0 -0.69880546153E+01  0.37002640297E+02  0.24720137093E+02  0.45045682081E+02  0.00000000000E+00 0. -1.
         11    1    3    3    0    0  0.82784147476E+01 -0.23551923300E+02 -0.16475737428E+02  0.29911121107E+02  0.51100000000E-03 0. -1.
        -11    1    3    3    0    0  0.32110013888E+00 -0.11048371487E+02 -0.69924484787E+01  0.13079141937E+02  0.51100000000E-03 0.  1.
        -12    1    3    3    0    0 -0.16114602711E+01 -0.24023455101E+01 -0.12519511869E+01  0.31520548742E+01  0.00000000000E+00 0.  1.
</event>
<event>
 7    1  0.2312612E-008  0.4614232E+02  0.7816164E-02  0.1320468E+00
        -11   -1    0    0    0    0  0.00000000000E+00  0.00000000000E+00  0.45593999997E+02  0.45594000000E+02  0.51100000000E-03 0.  1.
         11   -1    0    0    0    0 -0.00000000000E+00 -0.00000000000E+00 -0.45593999997E+02  0.45594000000E+02  0.51100000000E-03 0. -1.
    9900012    2    1    2    0    0  0.13866575084E+02 -0.28096134895E+02  0.32364158904E+02  0.46142317830E+02  0.10000000631E+02 0.  0.
         12    1    1    2    0    0 -0.13866575084E+02  0.28096134895E+02 -0.32364158904E+02  0.45045682170E+02  0.00000000000E+00 0. -1.
         11    1    3    3    0    0  0.52976534252E+01 -0.48821457469E+01  0.85843516376E+01  0.11206764573E+02  0.51100000000E-03 0. -1.
        -11    1    3    3    0    0  0.51366819651E+01 -0.61387338122E+01  0.56659770826E+01  0.98067757693E+01  0.51100000000E-03 0.  1.
        -12    1    3    3    0    0  0.34322396935E+01 -0.17075255336E+02  0.18113830183E+02  0.25128777487E+02  0.00000000000E+00 0.  1.
</event>
<event>
 7    1  0.2312612E-008  0.4614232E+02  0.7816164E-02  0.1320468E+00
        -11   -1    0    0    0    0  0.00000000000E+00  0.00000000000E+00  0.45593999997E+02  0.45594000000E+02  0.51100000000E-03 0.  1.
         11   -1    0    0    0    0 -0.00000000000E+00 -0.00000000000E+00 -0.45593999997E+02  0.45594000000E+02  0.51100000000E-03 0. -1.
    9900012    2    1    2    0    0 -0.44419940087E+01 -0.19611949051E+02  0.40308234507E+02  0.46142316240E+02  0.99999861317E+01 0.  0.
         12    1    1    2    0    0  0.44419940087E+01  0.19611949051E+02 -0.40308234507E+02  0.45045683760E+02  0.00000000000E+00 0. -1.
         11    1    3    3    0    0 -0.70262584242E+00  0.25325528805E+00 -0.94760892019E-01  0.75286200803E+00  0.51100000000E-03 0. -1.
        -11    1    3    3    0    0 -0.34523572389E+01 -0.15377446370E+02  0.27131571153E+02  0.31376851035E+02  0.51100000000E-03 0.  1.
         12    1    3    3    0    0 -0.28701092737E+00 -0.44877579685E+01  0.13271424246E+02  0.14012603198E+02  0.00000000000E+00 0. -1.
</event>
<event>
 7    1  0.2312612E-008  0.4614232E+02  0.7816164E-02  0.1320468E+00
        -11   -1    0    0    0    0  0.00000000000E+00  0.00000000000E+00  0.45593999997E+02  0.45594000000E+02  0.51100000000E-03 0.  1.
         11   -1    0    0    0    0 -0.00000000000E+00 -0.00000000000E+00 -0.45593999997E+02  0.45594000000E+02  0.51100000000E-03 0. -1.
    9900012    2    1    2    0    0 -0.36934639729E+00  0.32204673506E+02  0.31493430571E+02  0.46142316727E+02  0.99999905736E+01 0.  0.
         12    1    1    2    0    0  0.36934639729E+00 -0.32204673506E+02 -0.31493430571E+02  0.45045683273E+02  0.00000000000E+00 0. -1.
         11    1    3    3    0    0 -0.18832861457E+01  0.37702595602E+01  0.27303774438E+01  0.50216118034E+01  0.51100000000E-03 0. -1.
        -11    1    3    3    0    0 -0.25473521139E+01  0.75359147841E+01  0.96913792554E+01  0.12538016054E+02  0.51100000000E-03 0.  1.
         12    1    3    3    0    0  0.40612918623E+01  0.20898499162E+02  0.19071673871E+02  0.28582688870E+02  0.00000000000E+00 0. -1.
</event>
<event>
 7    1  0.2312612E-008  0.4614232E+02  0.7816164E-02  0.1320468E+00
        -11   -1    0    0    0    0  0.00000000000E+00  0.00000000000E+00  0.45593999997E+02  0.45594000000E+02  0.51100000000E-03 0.  1.
         11   -1    0    0    0    0 -0.00000000000E+00 -0.00000000000E+00 -0.45593999997E+02  0.45594000000E+02  0.51100000000E-03 0. -1.
    9900012    2    1    2    0    0  0.10062070276E+02  0.37218498510E+02  0.23294884134E+02  0.46142317450E+02  0.99999971659E+01 0.  0.
         12    1    1    2    0    0 -0.10062070276E+02 -0.37218498510E+02 -0.23294884134E+02  0.45045682550E+02  0.00000000000E+00 0. -1.
         11    1    3    3    0    0  0.45734456162E+00  0.70016768750E-01  0.21069542626E-02  0.46267817792E+00  0.51100000000E-03 0. -1.
        -11    1    3    3    0    0  0.59264735003E+01  0.28749362989E+02  0.21375788753E+02  0.36312164704E+02  0.51100000000E-03 0.  1.
        -12    1    3    3    0    0  0.36782522144E+01  0.83991187524E+01  0.19169884269E+01  0.93674745688E+01  0.00000000000E+00 0.  1.
</event>
<event>
 7    1  0.2312612E-008  0.4614232E+02  0.7816164E-02  0.1320468E+00
        -11   -1    0    0    0    0  0.00000000000E+00  0.00000000000E+00  0.45593999997E+02  0.45594000000E+02  0.51100000000E-03 0. -1.
         11   -1    0    0    0    0 -0.00000000000E+00 -0.00000000000E+00 -0.45593999997E+02  0.45594000000E+02  0.51100000000E-03 0.  1.
    9900012    2    1    2    0    0 -0.61494990067E+01 -0.23627223702E+02 -0.37855665431E+02  0.46142318264E+02  0.10000004584E+02 0.  0.
         12    1    1    2    0    0  0.61494990067E+01  0.23627223702E+02  0.37855665431E+02  0.45045681736E+02  0.00000000000E+00 0. -1.
         11    1    3    3    0    0 -0.16142540840E+01 -0.97124896095E+01 -0.17839687063E+02  0.20376278007E+02  0.51100000000E-03 0. -1.
        -11    1    3    3    0    0 -0.47946412890E+01 -0.99782373622E+01 -0.18460505442E+02  0.21525428390E+02  0.51100000000E-03 0.  1.
         12    1    3    3    0    0  0.25939636629E+00 -0.39364967300E+01 -0.15554729262E+01  0.42406118667E+01  0.00000000000E+00 0. -1.
</event>
<event>
 7    1  0.2312612E-008  0.4614232E+02  0.7816164E-02  0.1320468E+00
        -11   -1    0    0    0    0  0.00000000000E+00  0.00000000000E+00  0.45593999997E+02  0.45594000000E+02  0.51100000000E-03 0.  1.
         11   -1    0    0    0    0 -0.00000000000E+00 -0.00000000000E+00 -0.45593999997E+02  0.45594000000E+02  0.51100000000E-03 0. -1.
    9900012    2    1    2    0    0  0.12813828414E+02 -0.37822954081E+02  0.20840908478E+02  0.46142317407E+02  0.99999967752E+01 0.  0.
         12    1    1    2    0    0 -0.12813828414E+02  0.37822954081E+02 -0.20840908478E+02  0.45045682593E+02  0.00000000000E+00 0. -1.
         11    1    3    3    0    0  0.76751372188E+00 -0.77668511822E+01  0.70157677255E+01  0.10494477197E+02  0.51100000000E-03 0. -1.
        -11    1    3    3    0    0  0.18745584618E+01 -0.81453404487E+01  0.58752958772E+01  0.10216635569E+02  0.51100000000E-03 0.  1.
         12    1    3    3    0    0  0.10171756230E+02 -0.21910762450E+02  0.79498448754E+01  0.25431204641E+02  0.00000000000E+00 0. -1.
</event>
<event>
 7    1  0.2312612E-008  0.4614232E+02  0.7816164E-02  0.1320468E+00
        -11   -1    0    0    0    0  0.00000000000E+00  0.00000000000E+00  0.45593999997E+02  0.45594000000E+02  0.51100000000E-03 0. -1.
         11   -1    0    0    0    0 -0.00000000000E+00 -0.00000000000E+00 -0.45593999997E+02  0.45594000000E+02  0.51100000000E-03 0.  1.
    9900012    2    1    2    0    0 -0.32978985009E+02  0.30429152859E+02  0.39454445174E+01  0.46142319537E+02  0.10000016197E+02 0.  0.
         12    1    1    2    0    0  0.32978985009E+02 -0.30429152859E+02 -0.39454445174E+01  0.45045680463E+02  0.00000000000E+00 0. -1.
         11    1    3    3    0    0 -0.11644242095E+02  0.76321054847E+01  0.67674155412E-01  0.13922714827E+02  0.51100000000E-03 0. -1.
        -11    1    3    3    0    0 -0.44556088477E+01  0.45127292631E+01 -0.20020451454E+01  0.66502150816E+01  0.51100000000E-03 0.  1.
         12    1    3    3    0    0 -0.16879134066E+02  0.18284318111E+02  0.58798155073E+01  0.25569389629E+02  0.00000000000E+00 0. -1.
</event>
<event>
 7    1  0.2312612E-008  0.4614231E+02  0.7816164E-02  0.1320468E+00
        -11   -1    0    0    0    0  0.00000000000E+00  0.00000000000E+00  0.45593999997E+02  0.45594000000E+02  0.51100000000E-03 0. -1.
         11   -1    0    0    0    0 -0.00000000000E+00 -0.00000000000E+00 -0.45593999997E+02  0.45594000000E+02  0.51100000000E-03 0.  1.
    9900012    2    1    2    0    0 -0.31633131581E+02 -0.12290145474E+02 -0.29621131211E+02  0.46142310932E+02  0.99999377283E+01 0.  0.
         12    1    1    2    0    0  0.31633131581E+02  0.12290145474E+02  0.29621131211E+02  0.45045689068E+02  0.00000000000E+00 0. -1.
         11    1    3    3    0    0 -0.50415069372E+01 -0.34391620622E+01 -0.31018888980E+01  0.68458997133E+01  0.51100000000E-03 0. -1.
        -11    1    3    3    0    0 -0.14159467997E+02 -0.10043814626E+01 -0.11377886156E+02  0.18192185403E+02  0.51100000000E-03 0.  1.
         12    1    3    3    0    0 -0.12432156646E+02 -0.78466019493E+01 -0.15141356157E+02  0.21104225816E+02  0.00000000000E+00 0. -1.
</event>
<event>
 7    1  0.2312612E-008  0.4614232E+02  0.7816164E-02  0.1320468E+00
        -11   -1    0    0    0    0  0.00000000000E+00  0.00000000000E+00  0.45593999997E+02  0.45594000000E+02  0.51100000000E-03 0. -1.
         11   -1    0    0    0    0 -0.00000000000E+00 -0.00000000000E+00 -0.45593999997E+02  0.45594000000E+02  0.51100000000E-03 0.  1.
    9900012    2    1    2    0    0  0.42792532248E+02 -0.14068022804E+02  0.58887934604E-01  0.46142317082E+02  0.99999938028E+01 0.  0.
         12    1    1    2    0    0 -0.42792532248E+02  0.14068022804E+02 -0.58887934604E-01  0.45045682918E+02  0.00000000000E+00 0. -1.
         11    1    3    3    0    0  0.14154414925E+02 -0.66099832631E+01 -0.24795470711E+01  0.15817316288E+02  0.51100000000E-03 0. -1.
        -11    1    3    3    0    0  0.26183482452E+02 -0.48953357865E+01  0.17824073411E+01  0.26696742160E+02  0.51100000000E-03 0.  1.
         12    1    3    3    0    0  0.24546348708E+01 -0.25627037544E+01  0.75602766466E+00  0.36282586335E+01  0.00000000000E+00 0. -1.
</event>
<event>
 7    1  0.2312612E-008  0.4614232E+02  0.7816164E-02  0.1320468E+00
        -11   -1    0    0    0    0  0.00000000000E+00  0.00000000000E+00  0.45593999997E+02  0.45594000000E+02  0.51100000000E-03 0.  1.
         11   -1    0    0    0    0 -0.00000000000E+00 -0.00000000000E+00 -0.45593999997E+02  0.45594000000E+02  0.51100000000E-03 0. -1.
    9900012    2    1    2    0    0  0.29721471575E+02 -0.10325727027E+02  0.32235494891E+02  0.46142316055E+02  0.99999844412E+01 0.  0.
         12    1    1    2    0    0 -0.29721471575E+02  0.10325727027E+02 -0.32235494891E+02  0.45045683945E+02  0.00000000000E+00 0. -1.
         11    1    3    3    0    0  0.83158188671E+01 -0.23064035683E+01  0.42629129842E+01  0.96252152299E+01  0.51100000000E-03 0. -1.
        -11    1    3    3    0    0  0.65664510581E+01  0.75521352644E-01  0.81199746148E+01  0.10443082446E+02  0.51100000000E-03 0.  1.
        -12    1    3    3    0    0  0.14839201650E+02 -0.80948448119E+01  0.19852607292E+02  0.26074018379E+02  0.00000000000E+00 0.  1.
</event>
<event>
 7    1  0.2312612E-008  0.4614232E+02  0.7816164E-02  0.1320468E+00
        -11   -1    0    0    0    0  0.00000000000E+00  0.00000000000E+00  0.45593999997E+02  0.45594000000E+02  0.51100000000E-03 0.  1.
         11   -1    0    0    0    0 -0.00000000000E+00 -0.00000000000E+00 -0.45593999997E+02  0.45594000000E+02  0.51100000000E-03 0. -1.
    9900012    2    1    2    0    0  0.14431755122E+02  0.93009226667E+01  0.41645297397E+02  0.46142317481E+02  0.99999974440E+01 0.  0.
         12    1    1    2    0    0 -0.14431755122E+02 -0.93009226667E+01 -0.41645297397E+02  0.45045682519E+02  0.00000000000E+00 0. -1.
         11    1    3    3    0    0  0.18581674533E+01 -0.18531148923E+01  0.44934340406E+01  0.52036305429E+01  0.51100000000E-03 0. -1.
        -11    1    3    3    0    0  0.82070275712E-01  0.84106387013E+00  0.91212120310E+00  0.12434183986E+01  0.51100000000E-03 0.  1.
        -12    1    3    3    0    0  0.12491517393E+02  0.10312973689E+02  0.36239742153E+02  0.39695268539E+02  0.00000000000E+00 0.  1.
</event>
<event>
 7    1  0.2312612E-008  0.4614232E+02  0.7816164E-02  0.1320468E+00
        -11   -1    0    0    0    0  0.00000000000E+00  0.00000000000E+00  0.45593999997E+02  0.45594000000E+02  0.51100000000E-03 0. -1.
         11   -1    0    0    0    0 -0.00000000000E+00 -0.00000000000E+00 -0.45593999997E+02  0.45594000000E+02  0.51100000000E-03 0.  1.
    9900012    2    1    2    0    0  0.33411006420E+02  0.19381221918E+02 -0.23177281531E+02  0.46142317719E+02  0.99999996144E+01 0.  0.
         12    1    1    2    0    0 -0.33411006420E+02 -0.19381221918E+02  0.23177281531E+02  0.45045682281E+02  0.00000000000E+00 0. -1.
         11    1    3    3    0    0  0.98002914660E+01  0.70739338279E+01 -0.91792567800E+01  0.15177121200E+02  0.51100000000E-03 0. -1.
        -11    1    3    3    0    0  0.39932609728E+00  0.64007479943E+00 -0.23987964194E+01  0.25146334929E+01  0.51100000000E-03 0.  1.
        -12    1    3    3    0    0  0.23211388856E+02  0.11667213291E+02 -0.11599228332E+02  0.28450563026E+02  0.00000000000E+00 0.  1.
</event>
<event>
 7    1  0.2312612E-008  0.4614232E+02  0.7816164E-02  0.1320468E+00
        -11   -1    0    0    0    0  0.00000000000E+00  0.00000000000E+00  0.45593999997E+02  0.45594000000E+02  0.51100000000E-03 0.  1.
         11   -1    0    0    0    0 -0.00000000000E+00 -0.00000000000E+00 -0.45593999997E+02  0.45594000000E+02  0.51100000000E-03 0. -1.
    9900012    2    1    2    0    0 -0.86523276618E+01 -0.41034016424E+02  0.16445675796E+02  0.46142317296E+02  0.99999957627E+01 0.  0.
         12    1    1    2    0    0  0.86523276618E+01  0.41034016424E+02 -0.16445675796E+02  0.45045682704E+02  0.00000000000E+00 0. -1.
         11    1    3    3    0    0 -0.49876423563E+01 -0.17093830413E+02  0.24709818045E+01  0.17977245779E+02  0.51100000000E-03 0. -1.
        -11    1    3    3    0    0 -0.57842289634E+00 -0.87750086580E+01  0.34358142962E+01  0.94414072115E+01  0.51100000000E-03 0.  1.
         12    1    3    3    0    0 -0.30862624092E+01 -0.15165177353E+02  0.10538879695E+02  0.18723664306E+02  0.00000000000E+00 0. -1.
</event>
<event>
 7    1  0.2312612E-008  0.4614232E+02  0.7816164E-02  0.1320468E+00
        -11   -1    0    0    0    0  0.00000000000E+00  0.00000000000E+00  0.45593999997E+02  0.45594000000E+02  0.51100000000E-03 0.  1.
         11   -1    0    0    0    0 -0.00000000000E+00 -0.00000000000E+00 -0.45593999997E+02  0.45594000000E+02  0.51100000000E-03 0. -1.
    9900012    2    1    2    0    0 -0.32195127199E+02  0.30734165960E+02 -0.69280728499E+01  0.46142319119E+02  0.10000012383E+02 0.  0.
         12    1    1    2    0    0  0.32195127199E+02 -0.30734165960E+02  0.69280728499E+01  0.45045680881E+02  0.00000000000E+00 0. -1.
         11    1    3    3    0    0 -0.45304218277E+01  0.36065140358E+01 -0.24672688214E+01  0.62943690013E+01  0.51100000000E-03 0. -1.
        -11    1    3    3    0    0 -0.13651909465E+02  0.15493208847E+02 -0.61776595167E+01  0.21554062953E+02  0.51100000000E-03 0.  1.
         12    1    3    3    0    0 -0.14012795906E+02  0.11634443077E+02  0.17168554883E+01  0.18293887165E+02  0.00000000000E+00 0. -1.
</event>
<event>
 7    1  0.2312612E-008  0.4614232E+02  0.7816164E-02  0.1320468E+00
        -11   -1    0    0    0    0  0.00000000000E+00  0.00000000000E+00  0.45593999997E+02  0.45594000000E+02  0.51100000000E-03 0.  1.
         11   -1    0    0    0    0 -0.00000000000E+00 -0.00000000000E+00 -0.45593999997E+02  0.45594000000E+02  0.51100000000E-03 0. -1.
    9900012    2    1    2    0    0  0.50609166772E+01  0.33309314427E+02  0.29899669626E+02  0.46142317088E+02  0.99999938660E+01 0.  0.
         12    1    1    2    0    0 -0.50609166772E+01 -0.33309314427E+02 -0.29899669626E+02  0.45045682912E+02  0.00000000000E+00 0. -1.
         11    1    3    3    0    0  0.14539373572E+01  0.89735283684E+01  0.40645721763E+01  0.99578558161E+01  0.51100000000E-03 0. -1.
        -11    1    3    3    0    0  0.51753008733E+01  0.15991222050E+02  0.18069452127E+02  0.24678087896E+02  0.51100000000E-03 0.  1.
         12    1    3    3    0    0 -0.15683215532E+01  0.83445640085E+01  0.77656453228E+01  0.11506373376E+02  0.00000000000E+00 0. -1.
</event>
<event>
 7    1  0.2312612E-008  0.4614232E+02  0.7816164E-02  0.1320468E+00
        -11   -1    0    0    0    0  0.00000000000E+00  0.00000000000E+00  0.45593999997E+02  0.45594000000E+02  0.51100000000E-03 0.  1.
         11   -1    0    0    0    0 -0.00000000000E+00 -0.00000000000E+00 -0.45593999997E+02  0.45594000000E+02  0.51100000000E-03 0. -1.
    9900012    2    1    2    0    0 -0.61879374154E+01 -0.17989068693E+02  0.40831559397E+02  0.46142318690E+02  0.10000008466E+02 0.  0.
         12    1    1    2    0    0  0.61879374154E+01  0.17989068693E+02 -0.40831559397E+02  0.45045681310E+02  0.00000000000E+00 0. -1.
         11    1    3    3    0    0  0.55341730873E-01 -0.17891232132E+01  0.62727394813E+01  0.65231346330E+01  0.51100000000E-03 0. -1.
        -11    1    3    3    0    0 -0.17794445833E+01 -0.12081102873E+02  0.16234522364E+02  0.20314506794E+02  0.51100000000E-03 0.  1.
        -12    1    3    3    0    0 -0.44638345630E+01 -0.41188426075E+01  0.18324297552E+02  0.19304677262E+02  0.00000000000E+00 0.  1.
</event>
<event>
 7    1  0.2312612E-008  0.4614232E+02  0.7816164E-02  0.1320468E+00
        -11   -1    0    0    0    0  0.00000000000E+00  0.00000000000E+00  0.45593999997E+02  0.45594000000E+02  0.51100000000E-03 0.  1.
         11   -1    0    0    0    0 -0.00000000000E+00 -0.00000000000E+00 -0.45593999997E+02  0.45594000000E+02  0.51100000000E-03 0. -1.
    9900012    2    1    2    0    0 -0.37355291426E+00  0.16767938846E+01  0.45012912089E+02  0.46142318362E+02  0.10000005477E+02 0.  0.
         12    1    1    2    0    0  0.37355291426E+00 -0.16767938846E+01 -0.45012912089E+02  0.45045681638E+02  0.00000000000E+00 0. -1.
         11    1    3    3    0    0  0.78284358930E+00 -0.18233888065E+01  0.59271865507E+01  0.62505304969E+01  0.51100000000E-03 0. -1.
        -11    1    3    3    0    0 -0.24755404133E+01  0.34166050319E+01  0.11099388691E+02  0.11874254496E+02  0.51100000000E-03 0.  1.
        -12    1    3    3    0    0  0.13191439098E+01  0.83577659222E-01  0.27986336848E+02  0.28017533368E+02  0.00000000000E+00 0.  1.
</event>
<event>
 7    1  0.2312612E-008  0.4614232E+02  0.7816164E-02  0.1320468E+00
        -11   -1    0    0    0    0  0.00000000000E+00  0.00000000000E+00  0.45593999997E+02  0.45594000000E+02  0.51100000000E-03 0. -1.
         11   -1    0    0    0    0 -0.00000000000E+00 -0.00000000000E+00 -0.45593999997E+02  0.45594000000E+02  0.51100000000E-03 0.  1.
    9900012    2    1    2    0    0  0.17431431414E+02 -0.41509256732E+02  0.14967494461E+01  0.46142318137E+02  0.10000003427E+02 0.  0.
         12    1    1    2    0    0 -0.17431431414E+02  0.41509256732E+02 -0.14967494461E+01  0.45045681863E+02  0.00000000000E+00 0. -1.
         11    1    3    3    0    0  0.66021120127E+01 -0.10154594028E+02 -0.15618288490E+01  0.12212410594E+02  0.51100000000E-03 0.  1.
        -11    1    3    3    0    0  0.10659880370E+02 -0.30945058206E+02  0.39175905285E+01  0.32963270358E+02  0.51100000000E-03 0. -1.
        -12    1    3    3    0    0  0.16943903109E+00 -0.40960449817E+00 -0.85901223334E+00  0.96663718489E+00  0.00000000000E+00 0.  1.
</event>
<event>
 7    1  0.2312612E-008  0.4614232E+02  0.7816164E-02  0.1320468E+00
        -11   -1    0    0    0    0  0.00000000000E+00  0.00000000000E+00  0.45593999997E+02  0.45594000000E+02  0.51100000000E-03 0. -1.
         11   -1    0    0    0    0 -0.00000000000E+00 -0.00000000000E+00 -0.45593999997E+02  0.45594000000E+02  0.51100000000E-03 0.  1.
    9900012    2    1    2    0    0  0.22646422175E+02 -0.37301718768E+02 -0.11172949563E+02  0.46142318051E+02  0.10000002640E+02 0.  0.
         12    1    1    2    0    0 -0.22646422175E+02  0.37301718768E+02  0.11172949563E+02  0.45045681949E+02  0.00000000000E+00 0. -1.
         11    1    3    3    0    0  0.48250232354E+01 -0.87853600002E+01 -0.45552580538E+01  0.11009712792E+02  0.51100000000E-03 0. -1.
        -11    1    3    3    0    0  0.27631590036E+01 -0.31729023799E+01 -0.35294934559E+01  0.54917830900E+01  0.51100000000E-03 0.  1.
        -12    1    3    3    0    0  0.15058239936E+02 -0.25343456388E+02 -0.30881980535E+01  0.29640822169E+02  0.00000000000E+00 0.  1.
</event>
<event>
 7    1  0.2312612E-008  0.4614232E+02  0.7816164E-02  0.1320468E+00
        -11   -1    0    0    0    0  0.00000000000E+00  0.00000000000E+00  0.45593999997E+02  0.45594000000E+02  0.51100000000E-03 0.  1.
         11   -1    0    0    0    0 -0.00000000000E+00 -0.00000000000E+00 -0.45593999997E+02  0.45594000000E+02  0.51100000000E-03 0. -1.
    9900012    2    1    2    0    0 -0.42889030321E+02  0.25092163690E+01  0.13540621366E+02  0.46142317459E+02  0.99999972434E+01 0.  0.
         12    1    1    2    0    0  0.42889030321E+02 -0.25092163690E+01 -0.13540621366E+02  0.45045682541E+02  0.00000000000E+00 0. -1.
         11    1    3    3    0    0 -0.15223688194E+02  0.41777745007E+01  0.25725603289E+01  0.15994766298E+02  0.51100000000E-03 0. -1.
        -11    1    3    3    0    0 -0.19410978450E+02  0.88289366857E+00  0.79775749744E+01  0.21004934857E+02  0.51100000000E-03 0.  1.
        -12    1    3    3    0    0 -0.82543636760E+01 -0.25514518003E+01  0.29904860622E+01  0.91426163035E+01  0.00000000000E+00 0.  1.
</event>
<event>
 7    1  0.2312612E-008  0.4614232E+02  0.7816164E-02  0.1320468E+00
        -11   -1    0    0    0    0  0.00000000000E+00  0.00000000000E+00  0.45593999997E+02  0.45594000000E+02  0.51100000000E-03 0.  1.
         11   -1    0    0    0    0 -0.00000000000E+00 -0.00000000000E+00 -0.45593999997E+02  0.45594000000E+02  0.51100000000E-03 0. -1.
    9900012    2    1    2    0    0  0.14557287813E+02 -0.17544955589E+01  0.42592494559E+02  0.46142317900E+02  0.10000001264E+02 0.  0.
         12    1    1    2    0    0 -0.14557287813E+02  0.17544955589E+01 -0.42592494559E+02  0.45045682100E+02  0.00000000000E+00 0. -1.
         11    1    3    3    0    0  0.52045137487E+00  0.11255363594E+01  0.14200812270E+01  0.18852937920E+01  0.51100000000E-03 0. -1.
        -11    1    3    3    0    0 -0.67100980223E+00  0.68153429156E+00  0.41994691788E+01  0.43070041548E+01  0.51100000000E-03 0.  1.
        -12    1    3    3    0    0  0.14707846240E+02 -0.35615662099E+01  0.36972944153E+02  0.39950019953E+02  0.00000000000E+00 0.  1.
</event>
<event>
 7    1  0.2312612E-008  0.4614232E+02  0.7816164E-02  0.1320468E+00
        -11   -1    0    0    0    0  0.00000000000E+00  0.00000000000E+00  0.45593999997E+02  0.45594000000E+02  0.51100000000E-03 0. -1.
         11   -1    0    0    0    0 -0.00000000000E+00 -0.00000000000E+00 -0.45593999997E+02  0.45594000000E+02  0.51100000000E-03 0.  1.
    9900012    2    1    2    0    0 -0.15015943820E+02  0.38004197408E+02  0.18955630042E+02  0.46142317635E+02  0.99999988501E+01 0.  0.
         12    1    1    2    0    0  0.15015943820E+02 -0.38004197408E+02 -0.18955630042E+02  0.45045682365E+02  0.00000000000E+00 0. -1.
         11    1    3    3    0    0 -0.63394296882E+01  0.73786572233E+01  0.27090286481E+01  0.10098108123E+02  0.51100000000E-03 0.  1.
        -11    1    3    3    0    0 -0.27798013295E+01  0.99691865671E+01  0.78088566536E+01  0.12964961193E+02  0.51100000000E-03 0. -1.
        -12    1    3    3    0    0 -0.58967128021E+01  0.20656353618E+02  0.84377447402E+01  0.23079248319E+02  0.00000000000E+00 0.  1.
</event>
<event>
 7    1  0.2312612E-008  0.4614232E+02  0.7816164E-02  0.1320468E+00
        -11   -1    0    0    0    0  0.00000000000E+00  0.00000000000E+00  0.45593999997E+02  0.45594000000E+02  0.51100000000E-03 0.  1.
         11   -1    0    0    0    0 -0.00000000000E+00 -0.00000000000E+00 -0.45593999997E+02  0.45594000000E+02  0.51100000000E-03 0. -1.
    9900012    2    1    2    0    0 -0.98565765904E+01 -0.43914343749E+02  0.18686279014E+01  0.46142318085E+02  0.10000002954E+02 0.  0.
         12    1    1    2    0    0  0.98565765904E+01  0.43914343749E+02 -0.18686279014E+01  0.45045681915E+02  0.00000000000E+00 0. -1.
         11    1    3    3    0    0  0.92570348577E+00 -0.83367389441E+00  0.25030866306E+00  0.12706666729E+01  0.51100000000E-03 0. -1.
        -11    1    3    3    0    0 -0.49838901391E+01 -0.23688994184E+02  0.38392315163E+01  0.24510146985E+02  0.51100000000E-03 0.  1.
         12    1    3    3    0    0 -0.57983899370E+01 -0.19391675671E+02 -0.22209122780E+01  0.20361504427E+02  0.00000000000E+00 0. -1.
</event>
<event>
 7    1  0.2312612E-008  0.4614232E+02  0.7816164E-02  0.1320468E+00
        -11   -1    0    0    0    0  0.00000000000E+00  0.00000000000E+00  0.45593999997E+02  0.45594000000E+02  0.51100000000E-03 0.  1.
         11   -1    0    0    0    0 -0.00000000000E+00 -0.00000000000E+00 -0.45593999997E+02  0.45594000000E+02  0.51100000000E-03 0. -1.
    9900012    2    1    2    0    0  0.19339388364E+02  0.27858926486E+02  0.29647621500E+02  0.46142321097E+02  0.10000030418E+02 0.  0.
         12    1    1    2    0    0 -0.19339388364E+02 -0.27858926486E+02 -0.29647621500E+02  0.45045678903E+02  0.00000000000E+00 0. -1.
         11    1    3    3    0    0  0.15195120591E+01  0.92093923042E+00  0.14384671097E+00  0.17826211323E+01  0.51100000000E-03 0. -1.
        -11    1    3    3    0    0  0.11357255645E+02  0.14575812284E+02  0.12239395423E+02  0.22164033029E+02  0.51100000000E-03 0.  1.
         12    1    3    3    0    0  0.64626206592E+01  0.12362174971E+02  0.17264379366E+02  0.22195666935E+02  0.00000000000E+00 0. -1.
</event>
<event>
 7    1  0.2312612E-008  0.4614232E+02  0.7816164E-02  0.1320468E+00
        -11   -1    0    0    0    0  0.00000000000E+00  0.00000000000E+00  0.45593999997E+02  0.45594000000E+02  0.51100000000E-03 0. -1.
         11   -1    0    0    0    0 -0.00000000000E+00 -0.00000000000E+00 -0.45593999997E+02  0.45594000000E+02  0.51100000000E-03 0.  1.
    9900012    2    1    2    0    0 -0.22877020522E+02  0.41585874272E+01 -0.38580582941E+02  0.46142319881E+02  0.10000019332E+02 0.  0.
         12    1    1    2    0    0  0.22877020522E+02 -0.41585874272E+01  0.38580582941E+02  0.45045680119E+02  0.00000000000E+00 0. -1.
         11    1    3    3    0    0 -0.78316717967E+01  0.34228442259E+01 -0.98192574170E+01  0.13018016831E+02  0.51100000000E-03 0. -1.
        -11    1    3    3    0    0 -0.89329938296E+01 -0.26803030236E+01 -0.18237133248E+02  0.20483540525E+02  0.51100000000E-03 0.  1.
         12    1    3    3    0    0 -0.61123548953E+01  0.34160462249E+01 -0.10524192276E+02  0.12640762526E+02  0.00000000000E+00 0. -1.
</event>
<event>
 7    1  0.2312612E-008  0.4614232E+02  0.7816164E-02  0.1320468E+00
        -11   -1    0    0    0    0  0.00000000000E+00  0.00000000000E+00  0.45593999997E+02  0.45594000000E+02  0.51100000000E-03 0. -1.
         11   -1    0    0    0    0 -0.00000000000E+00 -0.00000000000E+00 -0.45593999997E+02  0.45594000000E+02  0.51100000000E-03 0.  1.
    9900012    2    1    2    0    0 -0.38922851258E+02 -0.22483781675E+02  0.29333672957E+01  0.46142318385E+02  0.10000005690E+02 0.  0.
         12    1    1    2    0    0  0.38922851258E+02  0.22483781675E+02 -0.29333672957E+01  0.45045681615E+02  0.00000000000E+00 0. -1.
         11    1    3    3    0    0 -0.14981386930E+02 -0.90299021858E+01 -0.25459217482E+01  0.17676617483E+02  0.51100000000E-03 0. -1.
        -11    1    3    3    0    0 -0.70359998603E+01 -0.59080009927E+01  0.35611053354E+01  0.98534887850E+01  0.51100000000E-03 0.  1.
         12    1    3    3    0    0 -0.16905464468E+02 -0.75458784967E+01  0.19181837084E+01  0.18612212117E+02  0.00000000000E+00 0. -1.
</event>
<event>
 7    1  0.2312612E-008  0.4614232E+02  0.7816164E-02  0.1320468E+00
        -11   -1    0    0    0    0  0.00000000000E+00  0.00000000000E+00  0.45593999997E+02  0.45594000000E+02  0.51100000000E-03 0.  1.
         11   -1    0    0    0    0 -0.00000000000E+00 -0.00000000000E+00 -0.45593999997E+02  0.45594000000E+02  0.51100000000E-03 0. -1.
    9900012    2    1    2    0    0  0.91511377174E+01  0.22751581345E+02  0.37785390216E+02  0.46142317754E+02  0.99999999367E+01 0.  0.
         12    1    1    2    0    0 -0.91511377174E+01 -0.22751581345E+02 -0.37785390216E+02  0.45045682246E+02  0.00000000000E+00 0. -1.
         11    1    3    3    0    0  0.86381773462E+01  0.11097516285E+02  0.19489833223E+02  0.24033863087E+02  0.51100000000E-03 0. -1.
        -11    1    3    3    0    0 -0.46444982221E+00  0.83177216281E+01  0.94141859587E+01  0.12570883193E+02  0.51100000000E-03 0.  1.
        -12    1    3    3    0    0  0.97741019345E+00  0.33363434317E+01  0.88813710346E+01  0.95375714747E+01  0.00000000000E+00 0.  1.
</event>
<event>
 7    1  0.2312612E-008  0.4614232E+02  0.7816164E-02  0.1320468E+00
        -11   -1    0    0    0    0  0.00000000000E+00  0.00000000000E+00  0.45593999997E+02  0.45594000000E+02  0.51100000000E-03 0.  1.
         11   -1    0    0    0    0 -0.00000000000E+00 -0.00000000000E+00 -0.45593999997E+02  0.45594000000E+02  0.51100000000E-03 0. -1.
    9900012    2    1    2    0    0  0.75121731302E+01 -0.30514508813E+02  0.32272985125E+02  0.46142316942E+02  0.99999925327E+01 0.  0.
         12    1    1    2    0    0 -0.75121731302E+01  0.30514508813E+02 -0.32272985125E+02  0.45045683058E+02  0.00000000000E+00 0. -1.
         11    1    3    3    0    0  0.66980851582E+01 -0.17768447766E+02  0.20375776107E+02  0.27852366740E+02  0.51100000000E-03 0. -1.
        -11    1    3    3    0    0  0.31200573932E+01 -0.84435661141E+01  0.74045501666E+01  0.11655725215E+02  0.51100000000E-03 0.  1.
        -12    1    3    3    0    0 -0.23059694212E+01 -0.43024949330E+01  0.44926588512E+01  0.66342249867E+01  0.00000000000E+00 0.  1.
</event>
<event>
 7    1  0.2312612E-008  0.4614232E+02  0.7816164E-02  0.1320468E+00
        -11   -1    0    0    0    0  0.00000000000E+00  0.00000000000E+00  0.45593999997E+02  0.45594000000E+02  0.51100000000E-03 0.  1.
         11   -1    0    0    0    0 -0.00000000000E+00 -0.00000000000E+00 -0.45593999997E+02  0.45594000000E+02  0.51100000000E-03 0. -1.
    9900012    2    1    2    0    0  0.39451140340E+02 -0.18725689569E+02 -0.11048508858E+02  0.46142317943E+02  0.10000001663E+02 0.  0.
         12    1    1    2    0    0 -0.39451140340E+02  0.18725689569E+02  0.11048508858E+02  0.45045682057E+02  0.00000000000E+00 0. -1.
         11    1    3    3    0    0  0.20843671993E+02 -0.12076937803E+02 -0.35539348733E+01  0.24350391007E+02  0.51100000000E-03 0. -1.
        -11    1    3    3    0    0  0.16923221305E+02 -0.66850831208E+01 -0.51604884412E+01  0.18913391998E+02  0.51100000000E-03 0.  1.
         12    1    3    3    0    0  0.16842470422E+01  0.36331354878E-01 -0.23340855437E+01  0.28785349384E+01  0.00000000000E+00 0. -1.
</event>
<event>
 7    1  0.2312612E-008  0.4614232E+02  0.7816164E-02  0.1320468E+00
        -11   -1    0    0    0    0  0.00000000000E+00  0.00000000000E+00  0.45593999997E+02  0.45594000000E+02  0.51100000000E-03 0.  1.
         11   -1    0    0    0    0 -0.00000000000E+00 -0.00000000000E+00 -0.45593999997E+02  0.45594000000E+02  0.51100000000E-03 0. -1.
    9900012    2    1    2    0    0 -0.42493508085E+02  0.76940567798E+01  0.12814707855E+02  0.46142317893E+02  0.10000001198E+02 0.  0.
         12    1    1    2    0    0  0.42493508085E+02 -0.76940567798E+01 -0.12814707855E+02  0.45045682107E+02  0.00000000000E+00 0. -1.
         11    1    3    3    0    0 -0.17749733460E+02  0.42017434736E+01  0.85416851790E+01  0.20141203342E+02  0.51100000000E-03 0.  1.
        -11    1    3    3    0    0 -0.28043370327E+00 -0.76611700212E+00  0.16593254155E+00  0.83253359832E+00  0.51100000000E-03 0. -1.
        -12    1    3    3    0    0 -0.24463340922E+02  0.42584303083E+01  0.41070901341E+01  0.25168580952E+02  0.00000000000E+00 0.  1.
</event>
<event>
 7    1  0.2312612E-008  0.4614232E+02  0.7816164E-02  0.1320468E+00
        -11   -1    0    0    0    0  0.00000000000E+00  0.00000000000E+00  0.45593999997E+02  0.45594000000E+02  0.51100000000E-03 0.  1.
         11   -1    0    0    0    0 -0.00000000000E+00 -0.00000000000E+00 -0.45593999997E+02  0.45594000000E+02  0.51100000000E-03 0. -1.
    9900012    2    1    2    0    0  0.28547769365E+02  0.11937792171E+02  0.32735722370E+02  0.46142317225E+02  0.99999951068E+01 0.  0.
         12    1    1    2    0    0 -0.28547769365E+02 -0.11937792171E+02 -0.32735722370E+02  0.45045682775E+02  0.00000000000E+00 0. -1.
         11    1    3    3    0    0  0.11039757102E+02  0.99816518012E+01  0.15373164695E+02  0.21397284934E+02  0.51100000000E-03 0. -1.
        -11    1    3    3    0    0  0.52306771474E+01  0.76121621802E+00  0.55949725520E+01  0.76969572994E+01  0.51100000000E-03 0.  1.
         12    1    3    3    0    0  0.12277335116E+02  0.11949241513E+01  0.11767585123E+02  0.17048074991E+02  0.00000000000E+00 0. -1.
</event>
<event>
 7    1  0.2312612E-008  0.4614232E+02  0.7816164E-02  0.1320468E+00
        -11   -1    0    0    0    0  0.00000000000E+00  0.00000000000E+00  0.45593999997E+02  0.45594000000E+02  0.51100000000E-03 0.  1.
         11   -1    0    0    0    0 -0.00000000000E+00 -0.00000000000E+00 -0.45593999997E+02  0.45594000000E+02  0.51100000000E-03 0. -1.
    9900012    2    1    2    0    0  0.32060698956E+02  0.22758217938E+02  0.21983819066E+02  0.46142320940E+02  0.10000028991E+02 0.  0.
         12    1    1    2    0    0 -0.32060698956E+02 -0.22758217938E+02 -0.21983819066E+02  0.45045679060E+02  0.00000000000E+00 0. -1.
         11    1    3    3    0    0 -0.25242587651E+00  0.78766234263E+00 -0.78243126763E-01  0.83081468279E+00  0.51100000000E-03 0. -1.
        -11    1    3    3    0    0  0.31461104257E+02  0.21586885128E+02  0.22483336440E+02  0.44286511585E+02  0.51100000000E-03 0.  1.
        -12    1    3    3    0    0  0.85202057491E+00  0.38367046730E+00 -0.42127424754E+00  0.10249946728E+01  0.00000000000E+00 0.  1.
</event>
<event>
 7    1  0.2312612E-008  0.4614232E+02  0.7816164E-02  0.1320468E+00
        -11   -1    0    0    0    0  0.00000000000E+00  0.00000000000E+00  0.45593999997E+02  0.45594000000E+02  0.51100000000E-03 0. -1.
         11   -1    0    0    0    0 -0.00000000000E+00 -0.00000000000E+00 -0.45593999997E+02  0.45594000000E+02  0.51100000000E-03 0.  1.
    9900012    2    1    2    0    0 -0.38027654085E+02 -0.96127194922E+01  0.22149640419E+02  0.46142318498E+02  0.10000006723E+02 0.  0.
         12    1    1    2    0    0  0.38027654085E+02  0.96127194922E+01 -0.22149640419E+02  0.45045681502E+02  0.00000000000E+00 0. -1.
         11    1    3    3    0    0 -0.10247809044E+02 -0.58913643480E+01  0.37086040488E+01  0.12388684689E+02  0.51100000000E-03 0. -1.
        -11    1    3    3    0    0 -0.23283995721E+02 -0.37827923855E+01  0.13984525617E+02  0.27423000054E+02  0.51100000000E-03 0.  1.
         12    1    3    3    0    0 -0.44958493205E+01  0.61437241275E-01  0.44565107537E+01  0.63306337554E+01  0.00000000000E+00 0. -1.
</event>
<event>
 7    1  0.2312612E-008  0.4614232E+02  0.7816164E-02  0.1320468E+00
        -11   -1    0    0    0    0  0.00000000000E+00  0.00000000000E+00  0.45593999997E+02  0.45594000000E+02  0.51100000000E-03 0.  1.
         11   -1    0    0    0    0 -0.00000000000E+00 -0.00000000000E+00 -0.45593999997E+02  0.45594000000E+02  0.51100000000E-03 0. -1.
    9900012    2    1    2    0    0 -0.26289568544E+01 -0.43308866049E+02 -0.12105546398E+02  0.46142317119E+02  0.99999941477E+01 0.  0.
         12    1    1    2    0    0  0.26289568544E+01  0.43308866049E+02  0.12105546398E+02  0.45045682881E+02  0.00000000000E+00 0. -1.
         11    1    3    3    0    0  0.49870995689E+00 -0.33489480267E+01 -0.15033091757E+01  0.37046056802E+01  0.51100000000E-03 0. -1.
        -11    1    3    3    0    0  0.35194916033E+00  0.41601938290E-01 -0.11282216019E+01  0.11825748082E+01  0.51100000000E-03 0.  1.
        -12    1    3    3    0    0 -0.34796159716E+01 -0.40001519961E+02 -0.94740156206E+01  0.41255136631E+02  0.00000000000E+00 0.  1.
</event>
<event>
 7    1  0.2312612E-008  0.4614232E+02  0.7816164E-02  0.1320468E+00
        -11   -1    0    0    0    0  0.00000000000E+00  0.00000000000E+00  0.45593999997E+02  0.45594000000E+02  0.51100000000E-03 0. -1.
         11   -1    0    0    0    0 -0.00000000000E+00 -0.00000000000E+00 -0.45593999997E+02  0.45594000000E+02  0.51100000000E-03 0.  1.
    9900012    2    1    2    0    0 -0.20973883039E+02  0.25558003543E+02 -0.30594086425E+02  0.46142318309E+02  0.10000004993E+02 0.  0.
         12    1    1    2    0    0  0.20973883039E+02 -0.25558003543E+02  0.30594086425E+02  0.45045681691E+02  0.00000000000E+00 0. -1.
         11    1    3    3    0    0 -0.20310786528E+01 -0.12345639087E+00 -0.43905770667E+00  0.20816565291E+01  0.51100000000E-03 0. -1.
        -11    1    3    3    0    0 -0.11930401906E+02  0.14412304249E+02 -0.15574382258E+02  0.24343590252E+02  0.51100000000E-03 0.  1.
         12    1    3    3    0    0 -0.70124024809E+01  0.11269155685E+02 -0.14580646461E+02  0.19717071528E+02  0.00000000000E+00 0. -1.
</event>
<event>
 7    1  0.2312612E-008  0.4614231E+02  0.7816164E-02  0.1320468E+00
        -11   -1    0    0    0    0  0.00000000000E+00  0.00000000000E+00  0.45593999997E+02  0.45594000000E+02  0.51100000000E-03 0.  1.
         11   -1    0    0    0    0 -0.00000000000E+00 -0.00000000000E+00 -0.45593999997E+02  0.45594000000E+02  0.51100000000E-03 0. -1.
    9900012    2    1    2    0    0  0.49226890161E+01  0.11586021247E+02  0.43250957605E+02  0.46142311092E+02  0.99999391836E+01 0.  0.
         12    1    1    2    0    0 -0.49226890161E+01 -0.11586021247E+02 -0.43250957605E+02  0.45045688908E+02  0.00000000000E+00 0. -1.
         11    1    3    3    0    0 -0.16969555221E+00  0.23505091250E+01  0.14148353475E+01  0.27487177099E+01  0.51100000000E-03 0. -1.
        -11    1    3    3    0    0 -0.36045557554E+00  0.33605084338E+01  0.15523856850E+02  0.15887513239E+02  0.51100000000E-03 0.  1.
         12    1    3    3    0    0  0.54528401438E+01  0.58750036884E+01  0.26312265407E+02  0.27506080143E+02  0.00000000000E+00 0. -1.
</event>
<event>
 7    1  0.2312612E-008  0.4614232E+02  0.7816164E-02  0.1320468E+00
        -11   -1    0    0    0    0  0.00000000000E+00  0.00000000000E+00  0.45593999997E+02  0.45594000000E+02  0.51100000000E-03 0.  1.
         11   -1    0    0    0    0 -0.00000000000E+00 -0.00000000000E+00 -0.45593999997E+02  0.45594000000E+02  0.51100000000E-03 0. -1.
    9900012    2    1    2    0    0  0.42818979848E+02  0.18494448811E+01  0.13864625856E+02  0.46142319500E+02  0.10000015857E+02 0.  0.
         12    1    1    2    0    0 -0.42818979848E+02 -0.18494448811E+01 -0.13864625856E+02  0.45045680500E+02  0.00000000000E+00 0. -1.
         11    1    3    3    0    0  0.17167890082E+01 -0.46335331253E+00  0.28400518985E+01  0.33508142052E+01  0.51100000000E-03 0. -1.
        -11    1    3    3    0    0  0.14837474026E+02  0.53818238928E-01  0.57167319789E+01  0.15900772203E+02  0.51100000000E-03 0.  1.
        -12    1    3    3    0    0  0.26264716814E+02  0.22589799547E+01  0.53078419788E+01  0.26890733092E+02  0.00000000000E+00 0.  1.
</event>
<event>
 7    1  0.2312612E-008  0.4614232E+02  0.7816164E-02  0.1320468E+00
        -11   -1    0    0    0    0  0.00000000000E+00  0.00000000000E+00  0.45593999997E+02  0.45594000000E+02  0.51100000000E-03 0.  1.
         11   -1    0    0    0    0 -0.00000000000E+00 -0.00000000000E+00 -0.45593999997E+02  0.45594000000E+02  0.51100000000E-03 0. -1.
    9900012    2    1    2    0    0  0.91064489055E+01  0.10722562534E+02  0.42792671550E+02  0.46142317662E+02  0.99999990928E+01 0.  0.
         12    1    1    2    0    0 -0.91064489055E+01 -0.10722562534E+02 -0.42792671550E+02  0.45045682338E+02  0.00000000000E+00 0. -1.
         11    1    3    3    0    0  0.29357615983E+00 -0.72581324464E+00  0.47836332062E+00  0.91750943066E+00  0.51100000000E-03 0. -1.
        -11    1    3    3    0    0  0.76122101090E+00  0.57481781490E+01  0.11659260154E+02  0.13021495961E+02  0.51100000000E-03 0.  1.
        -12    1    3    3    0    0  0.80516517348E+01  0.57001976300E+01  0.30655048075E+02  0.32203312270E+02  0.00000000000E+00 0.  1.
</event>
<event>
 7    1  0.2312612E-008  0.4614232E+02  0.7816164E-02  0.1320468E+00
        -11   -1    0    0    0    0  0.00000000000E+00  0.00000000000E+00  0.45593999997E+02  0.45594000000E+02  0.51100000000E-03 0.  1.
         11   -1    0    0    0    0 -0.00000000000E+00 -0.00000000000E+00 -0.45593999997E+02  0.45594000000E+02  0.51100000000E-03 0. -1.
    9900012    2    1    2    0    0 -0.32744455324E+02 -0.98847760471E+01  0.29312207993E+02  0.46142315530E+02  0.99999796546E+01 0.  0.
         12    1    1    2    0    0  0.32744455324E+02  0.98847760471E+01 -0.29312207993E+02  0.45045684470E+02  0.00000000000E+00 0. -1.
         11    1    3    3    0    0 -0.27217741848E+01 -0.11825527049E+01  0.38283160919E+00  0.29921640856E+01  0.51100000000E-03 0. -1.
        -11    1    3    3    0    0 -0.26261691675E+02 -0.67174692065E+01  0.21535174851E+02  0.34620291713E+02  0.51100000000E-03 0.  1.
        -12    1    3    3    0    0 -0.37609894637E+01 -0.19847541358E+01  0.73942015330E+01  0.85298597313E+01  0.00000000000E+00 0.  1.
</event>
<event>
 7    1  0.2312612E-008  0.4614232E+02  0.7816164E-02  0.1320468E+00
        -11   -1    0    0    0    0  0.00000000000E+00  0.00000000000E+00  0.45593999997E+02  0.45594000000E+02  0.51100000000E-03 0.  1.
         11   -1    0    0    0    0 -0.00000000000E+00 -0.00000000000E+00 -0.45593999997E+02  0.45594000000E+02  0.51100000000E-03 0. -1.
    9900012    2    1    2    0    0  0.16854158168E+02  0.43052144458E+01  0.41551365563E+02  0.46142317642E+02  0.99999989112E+01 0.  0.
         12    1    1    2    0    0 -0.16854158168E+02 -0.43052144458E+01 -0.41551365563E+02  0.45045682358E+02  0.00000000000E+00 0. -1.
         11    1    3    3    0    0 -0.12862417166E+01  0.12770513293E+00  0.21799818457E+01  0.25343731894E+01  0.51100000000E-03 0. -1.
        -11    1    3    3    0    0  0.42418856118E+01  0.27278228897E-01  0.92202791433E+01  0.10149280043E+02  0.51100000000E-03 0.  1.
        -12    1    3    3    0    0  0.13898514272E+02  0.41502310839E+01  0.30151104574E+02  0.33458664410E+02  0.00000000000E+00 0.  1.
</event>
<event>
 7    1  0.2312612E-008  0.4614232E+02  0.7816164E-02  0.1320468E+00
        -11   -1    0    0    0    0  0.00000000000E+00  0.00000000000E+00  0.45593999997E+02  0.45594000000E+02  0.51100000000E-03 0.  1.
         11   -1    0    0    0    0 -0.00000000000E+00 -0.00000000000E+00 -0.45593999997E+02  0.45594000000E+02  0.51100000000E-03 0. -1.
    9900012    2    1    2    0    0 -0.24730185014E+02 -0.19411315084E+01  0.37600046168E+02  0.46142317474E+02  0.99999973817E+01 0.  0.
         12    1    1    2    0    0  0.24730185014E+02  0.19411315084E+01 -0.37600046168E+02  0.45045682526E+02  0.00000000000E+00 0. -1.
         11    1    3    3    0    0 -0.83611016595E+01 -0.23468409939E+01  0.13543994870E+02  0.16088986324E+02  0.51100000000E-03 0. -1.
        -11    1    3    3    0    0 -0.81232167959E+01  0.39210131462E+01  0.12935088247E+02  0.15769511832E+02  0.51100000000E-03 0.  1.
         12    1    3    3    0    0 -0.82458665589E+01 -0.35153036607E+01  0.11120963051E+02  0.14283819318E+02  0.00000000000E+00 0. -1.
</event>
<event>
 7    1  0.2312612E-008  0.4614232E+02  0.7816164E-02  0.1320468E+00
        -11   -1    0    0    0    0  0.00000000000E+00  0.00000000000E+00  0.45593999997E+02  0.45594000000E+02  0.51100000000E-03 0.  1.
         11   -1    0    0    0    0 -0.00000000000E+00 -0.00000000000E+00 -0.45593999997E+02  0.45594000000E+02  0.51100000000E-03 0. -1.
    9900012    2    1    2    0    0  0.20307779687E+02 -0.24101442654E+02  0.32184282353E+02  0.46142317805E+02  0.10000000399E+02 0.  0.
         12    1    1    2    0    0 -0.20307779687E+02  0.24101442654E+02 -0.32184282353E+02  0.45045682195E+02  0.00000000000E+00 0. -1.
         11    1    3    3    0    0  0.27706447660E+01 -0.20561631831E+01  0.67095020438E+01  0.75446469362E+01  0.51100000000E-03 0. -1.
        -11    1    3    3    0    0 -0.23154992142E-01 -0.89672335742E-01 -0.38681132481E+00  0.39774431935E+00  0.51100000000E-03 0.  1.
        -12    1    3    3    0    0  0.17560289913E+02 -0.21955607135E+02  0.25861591634E+02  0.38199926549E+02  0.00000000000E+00 0.  1.
</event>
<event>
 7    1  0.2312612E-008  0.4614232E+02  0.7816164E-02  0.1320468E+00
        -11   -1    0    0    0    0  0.00000000000E+00  0.00000000000E+00  0.45593999997E+02  0.45594000000E+02  0.51100000000E-03 0. -1.
         11   -1    0    0    0    0 -0.00000000000E+00 -0.00000000000E+00 -0.45593999997E+02  0.45594000000E+02  0.51100000000E-03 0.  1.
    9900012    2    1    2    0    0  0.22225321670E+02  0.16812802201E+02 -0.35390366759E+02  0.46142319847E+02  0.10000019019E+02 0.  0.
         12    1    1    2    0    0 -0.22225321670E+02 -0.16812802201E+02  0.35390366759E+02  0.45045680153E+02  0.00000000000E+00 0. -1.
         11    1    3    3    0    0  0.16908044606E+02  0.94822592719E+01 -0.22452043635E+02  0.29662931024E+02  0.51100000000E-03 0. -1.
        -11    1    3    3    0    0  0.58077633295E+01  0.72100595126E+01 -0.13011378569E+02  0.15969065270E+02  0.51100000000E-03 0.  1.
        -12    1    3    3    0    0 -0.49048626567E+00  0.12048341630E+00  0.73055445611E-01  0.51032355281E+00  0.00000000000E+00 0.  1.
</event>
<event>
 7    1  0.2312612E-008  0.4614232E+02  0.7816164E-02  0.1320468E+00
        -11   -1    0    0    0    0  0.00000000000E+00  0.00000000000E+00  0.45593999997E+02  0.45594000000E+02  0.51100000000E-03 0.  1.
         11   -1    0    0    0    0 -0.00000000000E+00 -0.00000000000E+00 -0.45593999997E+02  0.45594000000E+02  0.51100000000E-03 0. -1.
    9900012    2    1    2    0    0  0.37715767465E+02 -0.17706483820E+02  0.17120594590E+02  0.46142318255E+02  0.10000004503E+02 0.  0.
         12    1    1    2    0    0 -0.37715767465E+02  0.17706483820E+02 -0.17120594590E+02  0.45045681745E+02  0.00000000000E+00 0. -1.
         11    1    3    3    0    0  0.24756308186E+02 -0.13243261892E+02  0.75409595038E+01  0.29071031131E+02  0.51100000000E-03 0. -1.
        -11    1    3    3    0    0  0.75120271850E+01 -0.43468419258E+01  0.60372666041E+01  0.10572330654E+02  0.51100000000E-03 0.  1.
        -12    1    3    3    0    0  0.54474320944E+01 -0.11638000231E+00  0.35423684819E+01  0.64989564693E+01  0.00000000000E+00 0.  1.
</event>
<event>
 7    1  0.2312612E-008  0.4614232E+02  0.7816164E-02  0.1320468E+00
        -11   -1    0    0    0    0  0.00000000000E+00  0.00000000000E+00  0.45593999997E+02  0.45594000000E+02  0.51100000000E-03 0. -1.
         11   -1    0    0    0    0 -0.00000000000E+00 -0.00000000000E+00 -0.45593999997E+02  0.45594000000E+02  0.51100000000E-03 0.  1.
    9900012    2    1    2    0    0 -0.35933939594E+01  0.11225833043E+02 -0.43476219582E+02  0.46142317889E+02  0.10000001167E+02 0.  0.
         12    1    1    2    0    0  0.35933939594E+01 -0.11225833043E+02  0.43476219582E+02  0.45045682111E+02  0.00000000000E+00 0. -1.
         11    1    3    3    0    0 -0.21479932997E+00  0.17575274696E+01 -0.47394548844E+00  0.18329392095E+01  0.51100000000E-03 0. -1.
        -11    1    3    3    0    0  0.35907008932E+00  0.12905010310E+01 -0.10543358218E+02  0.10628110228E+02  0.51100000000E-03 0.  1.
        -12    1    3    3    0    0 -0.37376647188E+01  0.81778045422E+01 -0.32458915876E+02  0.33681268452E+02  0.00000000000E+00 0.  1.
</event>
<event>
 7    1  0.2312612E-008  0.4614232E+02  0.7816164E-02  0.1320468E+00
        -11   -1    0    0    0    0  0.00000000000E+00  0.00000000000E+00  0.45593999997E+02  0.45594000000E+02  0.51100000000E-03 0.  1.
         11   -1    0    0    0    0 -0.00000000000E+00 -0.00000000000E+00 -0.45593999997E+02  0.45594000000E+02  0.51100000000E-03 0. -1.
    9900012    2    1    2    0    0 -0.36851967915E+02  0.54301913275E+01  0.25329013626E+02  0.46142318205E+02  0.10000004050E+02 0.  0.
         12    1    1    2    0    0  0.36851967915E+02 -0.54301913275E+01 -0.25329013626E+02  0.45045681795E+02  0.00000000000E+00 0. -1.
         11    1    3    3    0    0 -0.96124991335E+01  0.70160392470E+00  0.36860638760E+01  0.10318888255E+02  0.51100000000E-03 0. -1.
        -11    1    3    3    0    0 -0.23670210492E+02  0.17062602474E+01  0.16700658681E+02  0.29018997044E+02  0.51100000000E-03 0.  1.
         12    1    3    3    0    0 -0.35692582897E+01  0.30223271554E+01  0.49422910687E+01  0.68044329066E+01  0.00000000000E+00 0. -1.
</event>
<event>
 7    1  0.2312612E-008  0.4614232E+02  0.7816164E-02  0.1320468E+00
        -11   -1    0    0    0    0  0.00000000000E+00  0.00000000000E+00  0.45593999997E+02  0.45594000000E+02  0.51100000000E-03 0.  1.
         11   -1    0    0    0    0 -0.00000000000E+00 -0.00000000000E+00 -0.45593999997E+02  0.45594000000E+02  0.51100000000E-03 0. -1.
    9900012    2    1    2    0    0 -0.35653496284E+02  0.26689308644E+02 -0.67544462266E+01  0.46142317221E+02  0.99999950783E+01 0.  0.
         12    1    1    2    0    0  0.35653496284E+02 -0.26689308644E+02  0.67544462266E+01  0.45045682779E+02  0.00000000000E+00 0. -1.
         11    1    3    3    0    0 -0.93549759675E+01  0.92729481106E+01  0.11459320608E+01  0.13221811622E+02  0.51100000000E-03 0.  1.
        -11    1    3    3    0    0 -0.26950206655E+01  0.33200043092E+01 -0.23289373085E+01  0.48692416502E+01  0.51100000000E-03 0. -1.
        -12    1    3    3    0    0 -0.23603499651E+02  0.14096356224E+02 -0.55714409790E+01  0.28051263949E+02  0.00000000000E+00 0.  1.
</event>
<event>
 7    1  0.2312612E-008  0.4614232E+02  0.7816164E-02  0.1320468E+00
        -11   -1    0    0    0    0  0.00000000000E+00  0.00000000000E+00  0.45593999997E+02  0.45594000000E+02  0.51100000000E-03 0.  1.
         11   -1    0    0    0    0 -0.00000000000E+00 -0.00000000000E+00 -0.45593999997E+02  0.45594000000E+02  0.51100000000E-03 0. -1.
    9900012    2    1    2    0    0 -0.42810367022E+02 -0.13773172080E+02 -0.25856712388E+01  0.46142317749E+02  0.99999998919E+01 0.  0.
         12    1    1    2    0    0  0.42810367022E+02  0.13773172080E+02  0.25856712388E+01  0.45045682251E+02  0.00000000000E+00 0. -1.
         11    1    3    3    0    0 -0.11177888014E+02 -0.28741984279E+01 -0.13802563342E+01  0.11623738851E+02  0.51100000000E-03 0. -1.
        -11    1    3    3    0    0 -0.26973974977E+02 -0.12183493921E+02 -0.17847906590E+01  0.29651615944E+02  0.51100000000E-03 0.  1.
        -12    1    3    3    0    0 -0.46585040310E+01  0.12845202696E+01  0.57937575435E+00  0.48669629539E+01  0.00000000000E+00 0.  1.
</event>
<event>
 7    1  0.2312612E-008  0.4614232E+02  0.7816164E-02  0.1320468E+00
        -11   -1    0    0    0    0  0.00000000000E+00  0.00000000000E+00  0.45593999997E+02  0.45594000000E+02  0.51100000000E-03 0.  1.
         11   -1    0    0    0    0 -0.00000000000E+00 -0.00000000000E+00 -0.45593999997E+02  0.45594000000E+02  0.51100000000E-03 0. -1.
    9900012    2    1    2    0    0 -0.22904117436E+02 -0.20900720264E+02  0.32675287129E+02  0.46142322160E+02  0.10000040117E+02 0.  0.
         12    1    1    2    0    0  0.22904117436E+02  0.20900720264E+02 -0.32675287129E+02  0.45045677840E+02  0.00000000000E+00 0. -1.
         11    1    3    3    0    0 -0.11174749731E+02 -0.10608310711E+02  0.14486649923E+02  0.21148860820E+02  0.51100000000E-03 0. -1.
        -11    1    3    3    0    0 -0.46469315309E+01 -0.86462106878E+01  0.94520070426E+01  0.13626862049E+02  0.51100000000E-03 0.  1.
        -12    1    3    3    0    0 -0.70824361734E+01 -0.16461988648E+01  0.87366301630E+01  0.11366599292E+02  0.00000000000E+00 0.  1.
</event>
<event>
 7    1  0.2312612E-008  0.4614231E+02  0.7816164E-02  0.1320468E+00
        -11   -1    0    0    0    0  0.00000000000E+00  0.00000000000E+00  0.45593999997E+02  0.45594000000E+02  0.51100000000E-03 0.  1.
         11   -1    0    0    0    0 -0.00000000000E+00 -0.00000000000E+00 -0.45593999997E+02  0.45594000000E+02  0.51100000000E-03 0. -1.
    9900012    2    1    2    0    0 -0.36796261006E+02 -0.23682864838E+02  0.10689764131E+02  0.46142312436E+02  0.99999514369E+01 0.  0.
         12    1    1    2    0    0  0.36796261006E+02  0.23682864838E+02 -0.10689764131E+02  0.45045687564E+02  0.00000000000E+00 0. -1.
         11    1    3    3    0    0 -0.27473269000E+02 -0.17422285500E+02  0.55495640012E+01  0.33001730295E+02  0.51100000000E-03 0.  1.
        -11    1    3    3    0    0 -0.94523900168E+01 -0.47576114938E+01  0.45916435050E+01  0.11535412194E+02  0.51100000000E-03 0. -1.
         12    1    3    3    0    0  0.12939801057E+00 -0.15029678441E+01  0.54855662490E+00  0.16051699462E+01  0.00000000000E+00 0. -1.
</event>
<event>
 7    1  0.2312612E-008  0.4614232E+02  0.7816164E-02  0.1320468E+00
        -11   -1    0    0    0    0  0.00000000000E+00  0.00000000000E+00  0.45593999997E+02  0.45594000000E+02  0.51100000000E-03 0.  1.
         11   -1    0    0    0    0 -0.00000000000E+00 -0.00000000000E+00 -0.45593999997E+02  0.45594000000E+02  0.51100000000E-03 0. -1.
    9900012    2    1    2    0    0  0.21989750809E+02  0.27696996987E+02  0.27900550630E+02  0.46142317540E+02  0.99999979881E+01 0.  0.
         12    1    1    2    0    0 -0.21989750809E+02 -0.27696996987E+02 -0.27900550630E+02  0.45045682460E+02  0.00000000000E+00 0. -1.
         11    1    3    3    0    0  0.10558883538E+02  0.13579754436E+02  0.16475484044E+02  0.23818927911E+02  0.51100000000E-03 0. -1.
        -11    1    3    3    0    0  0.22604297682E+00  0.39880357488E+01  0.32423888552E+01  0.51447653309E+01  0.51100000000E-03 0.  1.
         12    1    3    3    0    0  0.11204824295E+02  0.10129206803E+02  0.81826777313E+01  0.17178624298E+02  0.00000000000E+00 0. -1.
</event>
<event>
 7    1  0.2312612E-008  0.4614232E+02  0.7816164E-02  0.1320468E+00
        -11   -1    0    0    0    0  0.00000000000E+00  0.00000000000E+00  0.45593999997E+02  0.45594000000E+02  0.51100000000E-03 0. -1.
         11   -1    0    0    0    0 -0.00000000000E+00 -0.00000000000E+00 -0.45593999997E+02  0.45594000000E+02  0.51100000000E-03 0.  1.
    9900012    2    1    2    0    0 -0.34478433149E+02 -0.27083983708E+01 -0.28862011304E+02  0.46142317958E+02  0.10000001796E+02 0.  0.
         12    1    1    2    0    0  0.34478433149E+02  0.27083983708E+01  0.28862011304E+02  0.45045682042E+02  0.00000000000E+00 0. -1.
         11    1    3    3    0    0 -0.35077165671E+01  0.60488140310E+00 -0.28794539158E+00  0.35711160492E+01  0.51100000000E-03 0. -1.
        -11    1    3    3    0    0 -0.39396075743E+01  0.10136469083E+01 -0.25562238395E+01  0.48044009485E+01  0.51100000000E-03 0.  1.
        -12    1    3    3    0    0 -0.27031109007E+02 -0.43269266823E+01 -0.26017842072E+02  0.37766800960E+02  0.00000000000E+00 0.  1.
</event>
<event>
 7    1  0.2312612E-008  0.4614232E+02  0.7816164E-02  0.1320468E+00
        -11   -1    0    0    0    0  0.00000000000E+00  0.00000000000E+00  0.45593999997E+02  0.45594000000E+02  0.51100000000E-03 0.  1.
         11   -1    0    0    0    0 -0.00000000000E+00 -0.00000000000E+00 -0.45593999997E+02  0.45594000000E+02  0.51100000000E-03 0. -1.
    9900012    2    1    2    0    0 -0.39992855732E+02  0.93955625717E+01  0.18477242476E+02  0.46142316575E+02  0.99999891874E+01 0.  0.
         12    1    1    2    0    0  0.39992855732E+02 -0.93955625717E+01 -0.18477242476E+02  0.45045683425E+02  0.00000000000E+00 0. -1.
         11    1    3    3    0    0 -0.10608734557E+02  0.57127632089E+01  0.27544040878E+01  0.12359921299E+02  0.51100000000E-03 0. -1.
        -11    1    3    3    0    0 -0.63397149891E+01 -0.88272288111E+00  0.36763718545E+01  0.73815239687E+01  0.51100000000E-03 0.  1.
        -12    1    3    3    0    0 -0.23044406186E+02  0.45655222438E+01  0.12046466534E+02  0.26400871307E+02  0.00000000000E+00 0.  1.
</event>
<event>
 7    1  0.2312612E-008  0.4614231E+02  0.7816164E-02  0.1320468E+00
        -11   -1    0    0    0    0  0.00000000000E+00  0.00000000000E+00  0.45593999997E+02  0.45594000000E+02  0.51100000000E-03 0.  1.
         11   -1    0    0    0    0 -0.00000000000E+00 -0.00000000000E+00 -0.45593999997E+02  0.45594000000E+02  0.51100000000E-03 0. -1.
    9900012    2    1    2    0    0  0.19644670015E+02 -0.22336962716E+02  0.33826929830E+02  0.46142310472E+02  0.99999335304E+01 0.  0.
         12    1    1    2    0    0 -0.19644670015E+02  0.22336962716E+02 -0.33826929830E+02  0.45045689528E+02  0.00000000000E+00 0. -1.
         11    1    3    3    0    0  0.74860979314E+01 -0.55994990413E+01  0.92835656871E+01  0.13175000717E+02  0.51100000000E-03 0. -1.
        -11    1    3    3    0    0  0.12508103978E+02 -0.16753515142E+02  0.24868533755E+02  0.32489643060E+02  0.51100000000E-03 0.  1.
        -12    1    3    3    0    0 -0.34953189457E+00  0.16051467169E-01 -0.32516961299E+00  0.47766669565E+00  0.00000000000E+00 0.  1.
</event>
